GaAs                                    
   4.50000000000000     
     1.206593   -0.000000   -0.000000
    -0.000000    1.206593   -0.000000
     0.000000    0.000000    1.206593
   As   Ga
     4     4
Direct
  0.000000  0.000000  0.000000
  0.500000  0.500000  0.000000
  0.500000  0.000000  0.500000
  0.000000  0.500000  0.500000
  0.250000  0.250000  0.250000
  0.750000  0.250000  0.750000
  0.750000  0.750000  0.250000
  0.250000  0.750000  0.750000
 
   56   56   56
 -63.076     -54.190     -29.803      4.0819      39.780      70.250      90.798      99.714      97.971      88.396    
  74.709      60.621      48.456      38.367      30.169      23.644      18.546      14.619      11.613      9.3148    
  7.5572      6.2186      5.2095      4.4611      3.9180      3.5362      3.2830      3.1376      3.0901      3.1376    
  3.2830      3.5362      3.9180      4.4611      5.2095      6.2186      7.5572      9.3148      11.613      14.619    
  18.546      23.644      30.169      38.367      48.456      60.621      74.709      88.396      97.971      99.714    
  90.798      70.250      39.780      4.0819     -29.803     -54.190     -54.190     -45.681     -22.345      10.039    
  44.065      72.953      92.189      100.15      97.805      87.945      74.211      60.231      48.188      38.192    
  30.065      23.592      18.531      14.629      11.640      9.3512      7.5995      6.2642      5.2568      4.5091    
  3.9662      3.5842      3.3307      3.1852      3.1376      3.1852      3.3307      3.5842      3.9662      4.5091    
  5.2568      6.2642      7.5995      9.3512      11.640      14.629      18.531      23.592      30.065      38.192    
  48.188      60.231      74.211      87.945      97.805      100.15      92.189      72.953      44.065      10.039    
 -22.345     -45.681     -29.803     -22.345     -1.9252      26.285      55.666      80.161      95.762      101.08    
  97.114      86.508      72.704      59.074      47.391      37.672      29.755      23.437      18.487      14.660    
  11.720      9.4616      7.7279      6.4028      5.4009      4.6557      4.1134      3.7310      3.4768      3.3307    
  3.2830      3.3307      3.4768      3.7310      4.1134      4.6557      5.4009      6.4028      7.7279      9.4616    
  11.720      14.660      18.487      23.437      29.755      37.672      47.391      59.074      72.704      86.508    
  97.114      101.08      95.762      80.161      55.666      26.285     -1.9252     -22.345      4.0819      10.039    
  26.285      48.527      71.270      89.502      99.949      101.58      95.407      83.899      70.178      57.193    
  46.090      36.823      29.249      23.185      18.417      14.716      11.857      9.6498      7.9474      6.6408    
  5.6493      4.9092      4.3687      3.9861      3.7310      3.5842      3.5362      3.5842      3.7310      3.9861    
  4.3687      4.9092      5.6493      6.6408      7.9474      9.6498      11.857      14.716      18.417      23.185    
  29.249      36.823      46.090      57.193      70.178      83.899      95.407      101.58      99.949      89.502    
  71.270      48.527      26.285      10.039      39.780      44.065      55.666      71.270      86.647      97.962    
  102.78      100.49      92.133      79.956      66.702      54.661      44.334      35.672      28.562      22.846    
  18.329      14.800      12.056      9.9233      8.2677      6.9903      6.0164      5.2861      4.7500      4.3687    
  4.1134      3.9662      3.9180      3.9662      4.1134      4.3687      4.7500      5.2861      6.0164      6.9903    
  8.2677      9.9233      12.056      14.800      18.329      22.846      28.562      35.672      44.334      54.661    
  66.702      79.956      92.133      100.49      102.78      97.962      86.647      71.270      55.666      44.065    
  70.250      72.953      80.161      89.502      97.962      102.86      102.57      96.909      86.958      74.712    
  62.474      51.587      42.192      34.265      27.724      22.437      18.233      14.924      12.329      10.295    
  8.7052      7.4714      6.5257      5.8127      5.2861      4.9092      4.6557      4.5091      4.4611      4.5091    
  4.6557      4.9092      5.2861      5.8127      6.5257      7.4714      8.7052      10.295      12.329      14.924    
  18.233      22.437      27.724      34.265      42.192      51.587      62.474      74.712      86.958      96.909    
  102.57      102.86      97.962      89.502      80.161      72.953      90.798      92.189      95.762      99.949    
  102.78      102.57      98.438      90.536      79.977      68.493      57.716      48.108      39.754      32.662    
  26.775      21.986      18.150      15.103      12.691      10.785      9.2847      8.1133      7.2106      6.5257    
  6.0164      5.6493      5.4009      5.2568      5.2095      5.2568      5.4009      5.6493      6.0164      6.5257    
  7.2106      8.1133      9.2847      10.785      12.691      15.103      18.150      21.986      26.775      32.662    
  39.754      48.108      57.716      68.493      79.977      90.536      98.438      102.57      102.78      99.949    
  95.762      92.189      99.714      100.15      101.08      101.58      100.49      96.909      90.536      81.800    
  71.781      61.843      52.644      44.374      37.128      30.935      25.762      21.526      18.103      15.360    
  13.168      11.422      10.039      8.9540      8.1133      7.4714      6.9903      6.6408      6.4028      6.2642    
  6.2186      6.2642      6.4028      6.6408      6.9903      7.4714      8.1133      8.9540      10.039      11.422    
  13.168      15.360      18.103      21.526      25.762      30.935      37.128      44.374      52.644      61.843    
  71.781      81.800      90.536      96.909      100.49      101.58      101.08      100.15      97.971      97.805    
  97.114      95.407      92.133      86.958      79.977      71.781      63.302      55.117      47.473      40.542    
  34.425      29.164      24.743      21.095      18.125      15.723      13.790      12.241      11.009      10.039    
  9.2847      8.7052      8.2677      7.9474      7.7279      7.5995      7.5572      7.5995      7.7279      7.9474    
  8.2677      8.7052      9.2847      10.039      11.009      12.241      13.790      15.723      18.125      21.095    
  24.743      29.164      34.425      40.542      47.473      55.117      63.302      71.781      79.977      86.958    
  92.133      95.407      97.114      97.805      88.396      87.945      86.508      83.899      79.956      74.712    
  68.493      61.843      55.117      48.567      42.398      36.761      31.756      27.429      23.772      20.738    
  18.251      16.228      14.594      13.283      12.241      11.422      10.785      10.295      9.9233      9.6498    
  9.4616      9.3512      9.3148      9.3512      9.4616      9.6498      9.9233      10.295      10.785      11.422    
  12.241      13.283      14.594      16.228      18.251      20.738      23.772      27.429      31.756      36.761    
  42.398      48.567      55.117      61.843      68.493      74.712      79.956      83.899      86.508      87.945    
  74.709      74.211      72.704      70.178      66.702      62.474      57.716      52.644      47.473      42.398    
  37.584      33.163      29.221      25.802      22.905      20.495      18.517      16.911      15.620      14.594    
  13.790      13.168      12.691      12.329      12.056      11.857      11.720      11.640      11.613      11.640    
  11.720      11.857      12.056      12.329      12.691      13.168      13.790      14.594      15.620      16.911    
  18.517      20.495      22.905      25.802      29.221      33.163      37.584      42.398      47.473      52.644    
  57.716      62.474      66.702      70.178      72.704      74.211      60.621      60.231      59.074      57.193    
  54.661      51.587      48.108      44.374      40.542      36.761      33.163      29.851      26.900      24.343    
  22.186      20.403      18.958      17.807      16.911      16.228      15.723      15.360      15.103      14.924    
  14.800      14.716      14.660      14.629      14.619      14.629      14.660      14.716      14.800      14.924    
  15.103      15.360      15.723      16.228      16.911      17.807      18.958      20.403      22.186      24.343    
  26.900      29.851      33.163      36.761      40.542      44.374      48.108      51.587      54.661      57.193    
  59.074      60.231      48.456      48.188      47.391      46.090      44.334      42.192      39.754      37.128    
  34.425      31.756      29.221      26.900      24.848      23.097      21.650      20.494      19.607      18.958    
  18.517      18.251      18.125      18.103      18.150      18.233      18.329      18.417      18.487      18.531    
  18.546      18.531      18.487      18.417      18.329      18.233      18.150      18.103      18.125      18.251    
  18.517      18.958      19.607      20.494      21.650      23.097      24.848      26.900      29.221      31.756    
  34.425      37.128      39.754      42.192      44.334      46.090      47.391      48.188      38.367      38.192    
  37.672      36.823      35.672      34.265      32.662      30.935      29.164      27.429      25.802      24.343    
  23.097      22.086      21.320      20.794      20.494      20.403      20.495      20.738      21.095      21.526    
  21.986      22.437      22.846      23.185      23.437      23.592      23.644      23.592      23.437      23.185    
  22.846      22.437      21.986      21.526      21.095      20.738      20.495      20.403      20.494      20.794    
  21.320      22.086      23.097      24.343      25.802      27.429      29.164      30.935      32.662      34.265    
  35.672      36.823      37.672      38.192      30.169      30.065      29.755      29.249      28.562      27.724    
  26.775      25.762      24.743      23.772      22.905      22.186      21.650      21.320      21.209      21.320    
  21.650      22.186      22.905      23.772      24.743      25.762      26.775      27.724      28.562      29.249    
  29.755      30.065      30.169      30.065      29.755      29.249      28.562      27.724      26.775      25.762    
  24.743      23.772      22.905      22.186      21.650      21.320      21.209      21.320      21.650      22.186    
  22.905      23.772      24.743      25.762      26.775      27.724      28.562      29.249      29.755      30.065    
  23.644      23.592      23.437      23.185      22.846      22.437      21.986      21.526      21.095      20.738    
  20.495      20.403      20.494      20.794      21.320      22.086      23.097      24.343      25.802      27.429    
  29.164      30.935      32.662      34.265      35.672      36.823      37.672      38.192      38.367      38.192    
  37.672      36.823      35.672      34.265      32.662      30.935      29.164      27.429      25.802      24.343    
  23.097      22.086      21.320      20.794      20.494      20.403      20.495      20.738      21.095      21.526    
  21.986      22.437      22.846      23.185      23.437      23.592      18.546      18.531      18.487      18.417    
  18.329      18.233      18.150      18.103      18.125      18.251      18.517      18.958      19.607      20.494    
  21.650      23.097      24.848      26.900      29.221      31.756      34.425      37.128      39.754      42.192    
  44.334      46.090      47.391      48.188      48.456      48.188      47.391      46.090      44.334      42.192    
  39.754      37.128      34.425      31.756      29.221      26.900      24.848      23.097      21.650      20.494    
  19.607      18.958      18.517      18.251      18.125      18.103      18.150      18.233      18.329      18.417    
  18.487      18.531      14.619      14.629      14.660      14.716      14.800      14.924      15.103      15.360    
  15.723      16.228      16.911      17.807      18.958      20.403      22.186      24.343      26.900      29.851    
  33.163      36.761      40.542      44.374      48.108      51.587      54.661      57.193      59.074      60.231    
  60.621      60.231      59.074      57.193      54.661      51.587      48.108      44.374      40.542      36.761    
  33.163      29.851      26.900      24.343      22.186      20.403      18.958      17.807      16.911      16.228    
  15.723      15.360      15.103      14.924      14.800      14.716      14.660      14.629      11.613      11.640    
  11.720      11.857      12.056      12.329      12.691      13.168      13.790      14.594      15.620      16.911    
  18.517      20.495      22.905      25.802      29.221      33.163      37.584      42.398      47.473      52.644    
  57.716      62.474      66.702      70.178      72.704      74.211      74.709      74.211      72.704      70.178    
  66.702      62.474      57.716      52.644      47.473      42.398      37.584      33.163      29.221      25.802    
  22.905      20.495      18.517      16.911      15.620      14.594      13.790      13.168      12.691      12.329    
  12.056      11.857      11.720      11.640      9.3148      9.3512      9.4616      9.6498      9.9233      10.295    
  10.785      11.422      12.241      13.283      14.594      16.228      18.251      20.738      23.772      27.429    
  31.756      36.761      42.398      48.567      55.117      61.843      68.493      74.712      79.956      83.899    
  86.508      87.945      88.396      87.945      86.508      83.899      79.956      74.712      68.493      61.843    
  55.117      48.567      42.398      36.761      31.756      27.429      23.772      20.738      18.251      16.228    
  14.594      13.283      12.241      11.422      10.785      10.295      9.9233      9.6498      9.4616      9.3512    
  7.5572      7.5995      7.7279      7.9474      8.2677      8.7052      9.2847      10.039      11.009      12.241    
  13.790      15.723      18.125      21.095      24.743      29.164      34.425      40.542      47.473      55.117    
  63.302      71.781      79.977      86.958      92.133      95.407      97.114      97.805      97.971      97.805    
  97.114      95.407      92.133      86.958      79.977      71.781      63.302      55.117      47.473      40.542    
  34.425      29.164      24.743      21.095      18.125      15.723      13.790      12.241      11.009      10.039    
  9.2847      8.7052      8.2677      7.9474      7.7279      7.5995      6.2186      6.2642      6.4028      6.6408    
  6.9903      7.4714      8.1133      8.9540      10.039      11.422      13.168      15.360      18.103      21.526    
  25.762      30.935      37.128      44.374      52.644      61.843      71.781      81.800      90.536      96.909    
  100.49      101.58      101.08      100.15      99.714      100.15      101.08      101.58      100.49      96.909    
  90.536      81.800      71.781      61.843      52.644      44.374      37.128      30.935      25.762      21.526    
  18.103      15.360      13.168      11.422      10.039      8.9540      8.1133      7.4714      6.9903      6.6408    
  6.4028      6.2642      5.2095      5.2568      5.4009      5.6493      6.0164      6.5257      7.2106      8.1133    
  9.2847      10.785      12.691      15.103      18.150      21.986      26.775      32.662      39.754      48.108    
  57.716      68.493      79.977      90.536      98.438      102.57      102.78      99.949      95.762      92.189    
  90.798      92.189      95.762      99.949      102.78      102.57      98.438      90.536      79.977      68.493    
  57.716      48.108      39.754      32.662      26.775      21.986      18.150      15.103      12.691      10.785    
  9.2847      8.1133      7.2106      6.5257      6.0164      5.6493      5.4009      5.2568      4.4611      4.5091    
  4.6557      4.9092      5.2861      5.8127      6.5257      7.4714      8.7052      10.295      12.329      14.924    
  18.233      22.437      27.724      34.265      42.192      51.587      62.474      74.712      86.958      96.909    
  102.57      102.86      97.962      89.502      80.161      72.953      70.250      72.953      80.161      89.502    
  97.962      102.86      102.57      96.909      86.958      74.712      62.474      51.587      42.192      34.265    
  27.724      22.437      18.233      14.924      12.329      10.295      8.7052      7.4714      6.5257      5.8127    
  5.2861      4.9092      4.6557      4.5091      3.9180      3.9662      4.1134      4.3687      4.7500      5.2861    
  6.0164      6.9903      8.2677      9.9233      12.056      14.800      18.329      22.846      28.562      35.672    
  44.334      54.661      66.702      79.956      92.133      100.49      102.78      97.962      86.647      71.270    
  55.666      44.065      39.780      44.065      55.666      71.270      86.647      97.962      102.78      100.49    
  92.133      79.956      66.702      54.661      44.334      35.672      28.562      22.846      18.329      14.800    
  12.056      9.9233      8.2677      6.9903      6.0164      5.2861      4.7500      4.3687      4.1134      3.9662    
  3.5362      3.5842      3.7310      3.9861      4.3687      4.9092      5.6493      6.6408      7.9474      9.6498    
  11.857      14.716      18.417      23.185      29.249      36.823      46.090      57.193      70.178      83.899    
  95.407      101.58      99.949      89.502      71.270      48.527      26.285      10.039      4.0819      10.039    
  26.285      48.527      71.270      89.502      99.949      101.58      95.407      83.899      70.178      57.193    
  46.090      36.823      29.249      23.185      18.417      14.716      11.857      9.6498      7.9474      6.6408    
  5.6493      4.9092      4.3687      3.9861      3.7310      3.5842      3.2830      3.3307      3.4768      3.7310    
  4.1134      4.6557      5.4009      6.4028      7.7279      9.4616      11.720      14.660      18.487      23.437    
  29.755      37.672      47.391      59.074      72.704      86.508      97.114      101.08      95.762      80.161    
  55.666      26.285     -1.9252     -22.345     -29.803     -22.345     -1.9252      26.285      55.666      80.161    
  95.762      101.08      97.114      86.508      72.704      59.074      47.391      37.672      29.755      23.437    
  18.487      14.660      11.720      9.4616      7.7279      6.4028      5.4009      4.6557      4.1134      3.7310    
  3.4768      3.3307      3.1376      3.1852      3.3307      3.5842      3.9662      4.5091      5.2568      6.2642    
  7.5995      9.3512      11.640      14.629      18.531      23.592      30.065      38.192      48.188      60.231    
  74.211      87.945      97.805      100.15      92.189      72.953      44.065      10.039     -22.345     -45.681    
 -54.190     -45.681     -22.345      10.039      44.065      72.953      92.189      100.15      97.805      87.945    
  74.211      60.231      48.188      38.192      30.065      23.592      18.531      14.629      11.640      9.3512    
  7.5995      6.2642      5.2568      4.5091      3.9662      3.5842      3.3307      3.1852      3.0901      3.1376    
  3.2830      3.5362      3.9180      4.4611      5.2095      6.2186      7.5572      9.3148      11.613      14.619    
  18.546      23.644      30.169      38.367      48.456      60.621      74.709      88.396      97.971      99.714    
  90.798      70.250      39.780      4.0819     -29.803     -54.190     -63.076     -54.190     -29.803      4.0819    
  39.780      70.250      90.798      99.714      97.971      88.396      74.709      60.621      48.456      38.367    
  30.169      23.644      18.546      14.619      11.613      9.3148      7.5572      6.2186      5.2095      4.4611    
  3.9180      3.5362      3.2830      3.1376      3.1376      3.1852      3.3307      3.5842      3.9662      4.5091    
  5.2568      6.2642      7.5995      9.3512      11.640      14.629      18.531      23.592      30.065      38.192    
  48.188      60.231      74.211      87.945      97.805      100.15      92.189      72.953      44.065      10.039    
 -22.345     -45.681     -54.190     -45.681     -22.345      10.039      44.065      72.953      92.189      100.15    
  97.805      87.945      74.211      60.231      48.188      38.192      30.065      23.592      18.531      14.629    
  11.640      9.3512      7.5995      6.2642      5.2568      4.5091      3.9662      3.5842      3.3307      3.1852    
  3.2830      3.3307      3.4768      3.7310      4.1134      4.6557      5.4009      6.4028      7.7279      9.4616    
  11.720      14.660      18.487      23.437      29.755      37.672      47.391      59.074      72.704      86.508    
  97.114      101.08      95.762      80.161      55.666      26.285     -1.9252     -22.345     -29.803     -22.345    
 -1.9252      26.285      55.666      80.161      95.762      101.08      97.114      86.508      72.704      59.074    
  47.391      37.672      29.755      23.437      18.487      14.660      11.720      9.4616      7.7279      6.4028    
  5.4009      4.6557      4.1134      3.7310      3.4768      3.3307      3.5362      3.5842      3.7310      3.9861    
  4.3687      4.9092      5.6493      6.6408      7.9474      9.6498      11.857      14.716      18.417      23.185    
  29.249      36.823      46.090      57.193      70.178      83.899      95.407      101.58      99.949      89.502    
  71.270      48.527      26.285      10.039      4.0819      10.039      26.285      48.527      71.270      89.502    
  99.949      101.58      95.407      83.899      70.178      57.193      46.090      36.823      29.249      23.185    
  18.417      14.716      11.857      9.6498      7.9474      6.6408      5.6493      4.9092      4.3687      3.9861    
  3.7310      3.5842      3.9180      3.9662      4.1134      4.3687      4.7500      5.2861      6.0164      6.9903    
  8.2677      9.9233      12.056      14.800      18.329      22.846      28.562      35.672      44.334      54.661    
  66.702      79.956      92.133      100.49      102.78      97.962      86.647      71.270      55.666      44.065    
  39.780      44.065      55.666      71.270      86.647      97.962      102.78      100.49      92.133      79.956    
  66.702      54.661      44.334      35.672      28.562      22.846      18.329      14.800      12.056      9.9233    
  8.2677      6.9903      6.0164      5.2861      4.7500      4.3687      4.1134      3.9662      4.4611      4.5091    
  4.6557      4.9092      5.2861      5.8127      6.5257      7.4714      8.7052      10.295      12.329      14.924    
  18.233      22.437      27.724      34.265      42.192      51.587      62.474      74.712      86.958      96.909    
  102.57      102.86      97.962      89.502      80.161      72.953      70.250      72.953      80.161      89.502    
  97.962      102.86      102.57      96.909      86.958      74.712      62.474      51.587      42.192      34.265    
  27.724      22.437      18.233      14.924      12.329      10.295      8.7052      7.4714      6.5257      5.8127    
  5.2861      4.9092      4.6557      4.5091      5.2095      5.2568      5.4009      5.6493      6.0164      6.5257    
  7.2106      8.1133      9.2847      10.785      12.691      15.103      18.150      21.986      26.775      32.662    
  39.754      48.108      57.716      68.493      79.977      90.536      98.438      102.57      102.78      99.949    
  95.762      92.189      90.798      92.189      95.762      99.949      102.78      102.57      98.438      90.536    
  79.977      68.493      57.716      48.108      39.754      32.662      26.775      21.986      18.150      15.103    
  12.691      10.785      9.2847      8.1133      7.2106      6.5257      6.0164      5.6493      5.4009      5.2568    
  6.2186      6.2642      6.4028      6.6408      6.9903      7.4714      8.1133      8.9540      10.039      11.422    
  13.168      15.360      18.103      21.526      25.762      30.935      37.128      44.374      52.644      61.843    
  71.781      81.800      90.536      96.909      100.49      101.58      101.08      100.15      99.714      100.15    
  101.08      101.58      100.49      96.909      90.536      81.800      71.781      61.843      52.644      44.374    
  37.128      30.935      25.762      21.526      18.103      15.360      13.168      11.422      10.039      8.9540    
  8.1133      7.4714      6.9903      6.6408      6.4028      6.2642      7.5572      7.5995      7.7279      7.9474    
  8.2677      8.7052      9.2847      10.039      11.009      12.241      13.790      15.723      18.125      21.095    
  24.743      29.164      34.425      40.542      47.473      55.117      63.302      71.781      79.977      86.958    
  92.133      95.407      97.114      97.805      97.971      97.805      97.114      95.407      92.133      86.958    
  79.977      71.781      63.302      55.117      47.473      40.542      34.425      29.164      24.743      21.095    
  18.125      15.723      13.790      12.241      11.009      10.039      9.2847      8.7052      8.2677      7.9474    
  7.7279      7.5995      9.3148      9.3512      9.4616      9.6498      9.9233      10.295      10.785      11.422    
  12.241      13.283      14.594      16.228      18.251      20.738      23.772      27.429      31.756      36.761    
  42.398      48.567      55.117      61.843      68.493      74.712      79.956      83.899      86.508      87.945    
  88.396      87.945      86.508      83.899      79.956      74.712      68.493      61.843      55.117      48.567    
  42.398      36.761      31.756      27.429      23.772      20.738      18.251      16.228      14.594      13.283    
  12.241      11.422      10.785      10.295      9.9233      9.6498      9.4616      9.3512      11.613      11.640    
  11.720      11.857      12.056      12.329      12.691      13.168      13.790      14.594      15.620      16.911    
  18.517      20.495      22.905      25.802      29.221      33.163      37.584      42.398      47.473      52.644    
  57.716      62.474      66.702      70.178      72.704      74.211      74.709      74.211      72.704      70.178    
  66.702      62.474      57.716      52.644      47.473      42.398      37.584      33.163      29.221      25.802    
  22.905      20.495      18.517      16.911      15.620      14.594      13.790      13.168      12.691      12.329    
  12.056      11.857      11.720      11.640      14.619      14.629      14.660      14.716      14.800      14.924    
  15.103      15.360      15.723      16.228      16.911      17.807      18.958      20.403      22.186      24.343    
  26.900      29.851      33.163      36.761      40.542      44.374      48.108      51.587      54.661      57.193    
  59.074      60.231      60.621      60.231      59.074      57.193      54.661      51.587      48.108      44.374    
  40.542      36.761      33.163      29.851      26.900      24.343      22.186      20.403      18.958      17.807    
  16.911      16.228      15.723      15.360      15.103      14.924      14.800      14.716      14.660      14.629    
  18.546      18.531      18.487      18.417      18.329      18.233      18.150      18.103      18.125      18.251    
  18.517      18.958      19.607      20.494      21.650      23.097      24.848      26.900      29.221      31.756    
  34.425      37.128      39.754      42.192      44.334      46.090      47.391      48.188      48.456      48.188    
  47.391      46.090      44.334      42.192      39.754      37.128      34.425      31.756      29.221      26.900    
  24.848      23.097      21.650      20.494      19.607      18.958      18.517      18.251      18.125      18.103    
  18.150      18.233      18.329      18.417      18.487      18.531      23.644      23.592      23.437      23.185    
  22.846      22.437      21.986      21.526      21.095      20.738      20.495      20.403      20.494      20.794    
  21.320      22.086      23.097      24.343      25.802      27.429      29.164      30.935      32.662      34.265    
  35.672      36.823      37.672      38.192      38.367      38.192      37.672      36.823      35.672      34.265    
  32.662      30.935      29.164      27.429      25.802      24.343      23.097      22.086      21.320      20.794    
  20.494      20.403      20.495      20.738      21.095      21.526      21.986      22.437      22.846      23.185    
  23.437      23.592      30.169      30.065      29.755      29.249      28.562      27.724      26.775      25.762    
  24.743      23.772      22.905      22.186      21.650      21.320      21.209      21.320      21.650      22.186    
  22.905      23.772      24.743      25.762      26.775      27.724      28.562      29.249      29.755      30.065    
  30.169      30.065      29.755      29.249      28.562      27.724      26.775      25.762      24.743      23.772    
  22.905      22.186      21.650      21.320      21.209      21.320      21.650      22.186      22.905      23.772    
  24.743      25.762      26.775      27.724      28.562      29.249      29.755      30.065      38.367      38.192    
  37.672      36.823      35.672      34.265      32.662      30.935      29.164      27.429      25.802      24.343    
  23.097      22.086      21.320      20.794      20.494      20.403      20.495      20.738      21.095      21.526    