GaAs                                    
   4.50000000000000     
     1.190800   -0.000000   -0.000000
    -0.000000    1.190800   -0.000000
     0.000000    0.000000    1.190800
   As   Ga
     4     4
Direct
  0.000000  1.000000  1.000000
  0.500000  0.500000  0.000000
  0.500000  0.000000  0.500000
  1.000000  0.500000  0.500000
  0.250000  0.250000  0.250000
  0.750000  0.250000  0.750000
  0.750000  0.750000  0.250000
  0.250000  0.750000  0.750000
 
   56   56   56
 -.60972605560E+02 -.52977163808E+02 -.30925781289E+02 0.29130612602E-01 0.33180163573E+02
 0.62220863260E+02 0.82750272261E+02 0.92916991085E+02 0.93243393132E+02 0.85957740028E+02
 0.74182381489E+02 0.61183019127E+02 0.49493481604E+02 0.39634446345E+02 0.31488443811E+02
 0.24898519328E+02 0.19676091224E+02 0.15605163370E+02 0.12461794977E+02 0.10042155431E+02
 0.81818133350E+01 0.67577578094E+01 0.56789157190E+01 0.48752437658E+01 0.42904773401E+01
 0.38790405334E+01 0.36063048263E+01 0.34498901002E+01 0.33987603838E+01 0.34498901002E+01
 0.36063048263E+01 0.38790405334E+01 0.42904773401E+01 0.48752437658E+01 0.56789157190E+01
 0.67577578094E+01 0.81818133350E+01 0.10042155431E+02 0.12461794977E+02 0.15605163370E+02
 0.19676091224E+02 0.24898519328E+02 0.31488443811E+02 0.39634446345E+02 0.49493481604E+02
 0.61183019127E+02 0.74182381489E+02 0.85957740028E+02 0.93243393132E+02 0.92916991085E+02
 0.82750272261E+02 0.62220863260E+02 0.33180163573E+02 0.29130612602E-01 -.30925781289E+02
 -.52977163808E+02 -.52977163808E+02 -.45302169164E+02 -.24145803417E+02 0.55166052484E+01
 0.37209532346E+02 0.64847447328E+02 0.84189874812E+02 0.93466824212E+02 0.93212557489E+02
 0.85621031041E+02 0.73756595437E+02 0.60818253544E+02 0.49237453466E+02 0.39464080928E+02
 0.31384198053E+02 0.24844437734E+02 0.19658911605E+02 0.15613920550E+02 0.12487864927E+02
 0.10079237274E+02 0.82256150819E+01 0.68055103470E+01 0.57288888810E+01 0.49263448687E+01
 0.43419924629E+01 0.39305427348E+01 0.36576327611E+01 0.35010709153E+01 0.34498901002E+01
 0.35010709153E+01 0.36576327611E+01 0.39305427348E+01 0.43419924629E+01 0.49263448687E+01
 0.57288888810E+01 0.68055103470E+01 0.82256150819E+01 0.10079237274E+02 0.12487864927E+02
 0.15613920550E+02 0.19658911605E+02 0.24844437734E+02 0.31384198053E+02 0.39464080928E+02
 0.49237453466E+02 0.60818253544E+02 0.73756595437E+02 0.85621031041E+02 0.93212557489E+02
 0.93466824212E+02 0.84189874812E+02 0.64847447328E+02 0.37209532346E+02 0.55166052484E+01
 -.24145803417E+02 -.45302169164E+02 -.30925781289E+02 -.24145803417E+02 -.54888132909E+01
 0.20565435829E+02 0.48190185359E+02 0.71918143074E+02 0.87958686767E+02 0.94771306918E+02
 0.92925250472E+02 0.84518809464E+02 0.72451920449E+02 0.59732199371E+02 0.48474615579E+02
 0.38955757314E+02 0.31072925900E+02 0.24683026217E+02 0.19607927097E+02 0.15640697171E+02
 0.12566725303E+02 0.10191442724E+02 0.83584003546E+01 0.69506034451E+01 0.58810558230E+01
 0.50822138948E+01 0.44993211890E+01 0.40879677233E+01 0.38146071959E+01 0.36576327611E+01
 0.36063048263E+01 0.36576327611E+01 0.38146071959E+01 0.40879677233E+01 0.44993211890E+01
 0.50822138948E+01 0.58810558230E+01 0.69506034451E+01 0.83584003546E+01 0.10191442724E+02
 0.12566725303E+02 0.15640697171E+02 0.19607927097E+02 0.24683026217E+02 0.31072925900E+02
 0.38955757314E+02 0.48474615579E+02 0.59732199371E+02 0.72451920449E+02 0.84518809464E+02
 0.92925250472E+02 0.94771306918E+02 0.87958686767E+02 0.71918143074E+02 0.48190185359E+02
 0.20565435829E+02 -.54888132909E+01 -.24145803417E+02 0.29130612602E-01 0.55166052484E+01
 0.20565435829E+02 0.41414559628E+02 0.63177898615E+02 0.81285468283E+02 0.92602140357E+02
 0.95925534781E+02 0.91880324186E+02 0.82425877562E+02 0.70215866042E+02 0.57955528116E+02
 0.47223155538E+02 0.38119790740E+02 0.30560532820E+02 0.24417834939E+02 0.19525514395E+02
 0.15687544225E+02 0.12700821621E+02 0.10382192011E+02 0.85849427241E+01 0.71992980505E+01
 0.61430663548E+01 0.53516486214E+01 0.47721410607E+01 0.43616326336E+01 0.40879677233E+01
 0.39305427348E+01 0.38790405334E+01 0.39305427348E+01 0.40879677233E+01 0.43616326336E+01
 0.47721410607E+01 0.53516486214E+01 0.61430663548E+01 0.71992980505E+01 0.85849427241E+01
 0.10382192011E+02 0.12700821621E+02 0.15687544225E+02 0.19525514395E+02 0.24417834939E+02
 0.30560532820E+02 0.38119790740E+02 0.47223155538E+02 0.57955528116E+02 0.70215866042E+02
 0.82425877562E+02 0.91880324186E+02 0.95925534781E+02 0.92602140357E+02 0.81285468283E+02
 0.63177898615E+02 0.41414559628E+02 0.20565435829E+02 0.55166052484E+01 0.33180163573E+02
 0.37209532346E+02 0.48190185359E+02 0.63177898615E+02 0.78356411229E+02 0.90178902250E+02
 0.96262830550E+02 0.95800187349E+02 0.89485182964E+02 0.79115094531E+02 0.67044939678E+02
 0.55546607297E+02 0.45519678997E+02 0.36978670531E+02 0.29860961562E+02 0.24057727969E+02
 0.19417751585E+02 0.15759578221E+02 0.12895846882E+02 0.10658922983E+02 0.89151384521E+01
 0.75641970159E+01 0.65300924669E+01 0.57520347763E+01 0.51796450003E+01 0.47721410607E+01
 0.44993211890E+01 0.43419924629E+01 0.42904773401E+01 0.43419924629E+01 0.44993211890E+01
 0.47721410607E+01 0.51796450003E+01 0.57520347763E+01 0.65300924669E+01 0.75641970159E+01
 0.89151384521E+01 0.10658922983E+02 0.12895846882E+02 0.15759578221E+02 0.19417751585E+02
 0.24057727969E+02 0.29860961562E+02 0.36978670531E+02 0.45519678997E+02 0.55546607297E+02
 0.67044939678E+02 0.79115094531E+02 0.89485182964E+02 0.95800187349E+02 0.96262830550E+02
 0.90178902250E+02 0.78356411229E+02 0.63177898615E+02 0.48190185359E+02 0.37209532346E+02
 0.62220863260E+02 0.64847447328E+02 0.71918143074E+02 0.81285468283E+02 0.90178902250E+02
 0.96056755154E+02 0.97283004851E+02 0.93447260526E+02 0.85315555732E+02 0.74512912598E+02
 0.63067430972E+02 0.52595714136E+02 0.43423607879E+02 0.35571266147E+02 0.28999730084E+02
 0.23619697390E+02 0.19296747792E+02 0.15867113609E+02 0.13162864313E+02 0.11035259520E+02
 0.93661756190E+01 0.80663291238E+01 0.70667532397E+01 0.63110668834E+01 0.57520347763E+01
 0.53516486214E+01 0.50822138948E+01 0.49263448687E+01 0.48752437658E+01 0.49263448687E+01
 0.50822138948E+01 0.53516486214E+01 0.57520347763E+01 0.63110668834E+01 0.70667532397E+01
 0.80663291238E+01 0.93661756190E+01 0.11035259520E+02 0.13162864313E+02 0.15867113609E+02
 0.19296747792E+02 0.23619697390E+02 0.28999730084E+02 0.35571266147E+02 0.43423607879E+02
 0.52595714136E+02 0.63067430972E+02 0.74512912598E+02 0.85315555732E+02 0.93447260526E+02
 0.97283004851E+02 0.96056755154E+02 0.90178902250E+02 0.81285468283E+02 0.71918143074E+02
 0.64847447328E+02 0.82750272261E+02 0.84189874812E+02 0.87958686767E+02 0.92602140357E+02
 0.96262830550E+02 0.97283004851E+02 0.94689877964E+02 0.88428844971E+02 0.79322500033E+02
 0.68815202129E+02 0.58529821716E+02 0.49222657003E+02 0.41017237559E+02 0.33953989183E+02
 0.28015442938E+02 0.23130519253E+02 0.19182456387E+02 0.16027615069E+02 0.13520279580E+02
 0.11532820701E+02 0.99639985095E+01 0.87361456307E+01 0.77876038566E+01 0.70667532397E+01
 0.65300924669E+01 0.61430663548E+01 0.58810558230E+01 0.57288888810E+01 0.56789157190E+01
 0.57288888810E+01 0.58810558230E+01 0.61430663548E+01 0.65300924669E+01 0.70667532397E+01
 0.77876038566E+01 0.87361456307E+01 0.99639985095E+01 0.11532820701E+02 0.13520279580E+02
 0.16027615069E+02 0.19182456387E+02 0.23130519253E+02 0.28015442938E+02 0.33953989183E+02
 0.41017237559E+02 0.49222657003E+02 0.58529821716E+02 0.68815202129E+02 0.79322500033E+02
 0.88428844971E+02 0.94689877964E+02 0.97283004851E+02 0.96262830550E+02 0.92602140357E+02
 0.87958686767E+02 0.84189874812E+02 0.92916991085E+02 0.93466824212E+02 0.94771306918E+02
 0.95925534781E+02 0.95800187349E+02 0.93447260526E+02 0.88428844971E+02 0.80970996118E+02
 0.71917331171E+02 0.62505905750E+02 0.53642711848E+02 0.45567979739E+02 0.38400973581E+02
 0.32198163053E+02 0.26958479174E+02 0.22626428347E+02 0.19103064650E+02 0.16266444246E+02
 0.13994551321E+02 0.12181575126E+02 0.10743142565E+02 0.96128577757E+01 0.87361456307E+01
 0.80663291238E+01 0.75641970159E+01 0.71992980505E+01 0.69506034451E+01 0.68055103470E+01
 0.67577578094E+01 0.68055103470E+01 0.69506034451E+01 0.71992980505E+01 0.75641970159E+01
 0.80663291238E+01 0.87361456307E+01 0.96128577757E+01 0.10743142565E+02 0.12181575126E+02
 0.13994551321E+02 0.16266444246E+02 0.19103064650E+02 0.22626428347E+02 0.26958479174E+02
 0.32198163053E+02 0.38400973581E+02 0.45567979739E+02 0.53642711848E+02 0.62505905750E+02
 0.71917331171E+02 0.80970996118E+02 0.88428844971E+02 0.93447260526E+02 0.95800187349E+02
 0.95925534781E+02 0.94771306918E+02 0.93466824212E+02 0.93243393132E+02 0.93212557489E+02
 0.92925250472E+02 0.91880324186E+02 0.89485182964E+02 0.85315555732E+02 0.79322500033E+02
 0.71917331171E+02 0.63908213050E+02 0.56042399736E+02 0.48607030136E+02 0.41781243947E+02
 0.35685478618E+02 0.30384505515E+02 0.25887229346E+02 0.22150726386E+02 0.19093506958E+02
 0.16615767320E+02 0.14619086302E+02 0.13018539210E+02 0.11745305490E+02 0.10743142565E+02
 0.99639985095E+01 0.93661756190E+01 0.89151384521E+01 0.85849427241E+01 0.83584003546E+01
 0.82256150819E+01 0.81818133350E+01 0.82256150819E+01 0.83584003546E+01 0.85849427241E+01
 0.89151384521E+01 0.93661756190E+01 0.99639985095E+01 0.10743142565E+02 0.11745305490E+02
 0.13018539210E+02 0.14619086302E+02 0.16615767320E+02 0.19093506958E+02 0.22150726386E+02
 0.25887229346E+02 0.30384505515E+02 0.35685478618E+02 0.41781243947E+02 0.48607030136E+02
 0.56042399736E+02 0.63908213050E+02 0.71917331171E+02 0.79322500033E+02 0.85315555732E+02
 0.89485182964E+02 0.91880324186E+02 0.92925250472E+02 0.93212557489E+02 0.85957740028E+02
 0.85621031041E+02 0.84518809464E+02 0.82425877562E+02 0.79115094531E+02 0.74512912598E+02
 0.68815202129E+02 0.62505905750E+02 0.56042399736E+02 0.49676748021E+02 0.43612429526E+02
 0.38009647718E+02 0.32982712540E+02 0.28596109681E+02 0.24862816398E+02 0.21749878747E+02
 0.19192451420E+02 0.17112036053E+02 0.15432073027E+02 0.14086113178E+02 0.13018539210E+02
 0.12181575126E+02 0.11532820701E+02 0.11035259520E+02 0.10658922983E+02 0.10382192011E+02
 0.10191442724E+02 0.10079237274E+02 0.10042155431E+02 0.10079237274E+02 0.10191442724E+02
 0.10382192011E+02 0.10658922983E+02 0.11035259520E+02 0.11532820701E+02 0.12181575126E+02
 0.13018539210E+02 0.14086113178E+02 0.15432073027E+02 0.17112036053E+02 0.19192451420E+02
 0.21749878747E+02 0.24862816398E+02 0.28596109681E+02 0.32982712540E+02 0.38009647718E+02
 0.43612429526E+02 0.49676748021E+02 0.56042399736E+02 0.62505905750E+02 0.68815202129E+02
 0.74512912598E+02 0.79115094531E+02 0.82425877562E+02 0.84518809464E+02 0.85621031041E+02
 0.74182381489E+02 0.73756595437E+02 0.72451920449E+02 0.70215866042E+02 0.67044939678E+02
 0.63067430972E+02 0.58529821716E+02 0.53642711848E+02 0.48607030136E+02 0.43612429526E+02
 0.38826717053E+02 0.34387940853E+02 0.30396886136E+02 0.26911004198E+02 0.23943341884E+02
 0.21469134502E+02 0.19438933230E+02 0.17793499409E+02 0.16475041242E+02 0.15432073027E+02
 0.14619086302E+02 0.13994551321E+02 0.13520279580E+02 0.13162864313E+02 0.12895846882E+02
 0.12700821621E+02 0.12566725303E+02 0.12487864927E+02 0.12461794977E+02 0.12487864927E+02
 0.12566725303E+02 0.12700821621E+02 0.12895846882E+02 0.13162864313E+02 0.13520279580E+02
 0.13994551321E+02 0.14619086302E+02 0.15432073027E+02 0.16475041242E+02 0.17793499409E+02
 0.19438933230E+02 0.21469134502E+02 0.23943341884E+02 0.26911004198E+02 0.30396886136E+02
 0.34387940853E+02 0.38826717053E+02 0.43612429526E+02 0.48607030136E+02 0.53642711848E+02
 0.58529821716E+02 0.63067430972E+02 0.67044939678E+02 0.70215866042E+02 0.72451920449E+02
 0.73756595437E+02 0.61183019127E+02 0.60818253544E+02 0.59732199371E+02 0.57955528116E+02
 0.55546607297E+02 0.52595714136E+02 0.49222657003E+02 0.45567979739E+02 0.41781243947E+02
 0.38009647718E+02 0.34387940853E+02 0.31029081669E+02 0.28015817964E+02 0.25395212804E+02
 0.23178753214E+02 0.21348924618E+02 0.19870067835E+02 0.18699264027E+02 0.17793499409E+02
 0.17112036053E+02 0.16615767320E+02 0.16266444246E+02 0.16027615069E+02 0.15867113609E+02
 0.15759578221E+02 0.15687544225E+02 0.15640697171E+02 0.15613920550E+02 0.15605163370E+02
 0.15613920550E+02 0.15640697171E+02 0.15687544225E+02 0.15759578221E+02 0.15867113609E+02
 0.16027615069E+02 0.16266444246E+02 0.16615767320E+02 0.17112036053E+02 0.17793499409E+02
 0.18699264027E+02 0.19870067835E+02 0.21348924618E+02 0.23178753214E+02 0.25395212804E+02
 0.28015817964E+02 0.31029081669E+02 0.34387940853E+02 0.38009647718E+02 0.41781243947E+02
 0.45567979739E+02 0.49222657003E+02 0.52595714136E+02 0.55546607297E+02 0.57955528116E+02
 0.59732199371E+02 0.60818253544E+02 0.49493481604E+02 0.49237453466E+02 0.48474615579E+02
 0.47223155538E+02 0.45519678997E+02 0.43423607879E+02 0.41017237559E+02 0.38400973581E+02
 0.35685478618E+02 0.32982712540E+02 0.30396886136E+02 0.28015817964E+02 0.25903754673E+02
 0.24097507981E+02 0.22607432577E+02 0.21422990487E+02 0.20520531321E+02 0.19870067835E+02
 0.19438933230E+02 0.19192451420E+02 0.19093506958E+02 0.19103064650E+02 0.19182456387E+02
 0.19296747792E+02 0.19417751585E+02 0.19525514395E+02 0.19607927097E+02 0.19658911605E+02
 0.19676091224E+02 0.19658911605E+02 0.19607927097E+02 0.19525514395E+02 0.19417751585E+02
 0.19296747792E+02 0.19182456387E+02 0.19103064650E+02 0.19093506958E+02 0.19192451420E+02
 0.19438933230E+02 0.19870067835E+02 0.20520531321E+02 0.21422990487E+02 0.22607432577E+02
 0.24097507981E+02 0.25903754673E+02 0.28015817964E+02 0.30396886136E+02 0.32982712540E+02
 0.35685478618E+02 0.38400973581E+02 0.41017237559E+02 0.43423607879E+02 0.45519678997E+02
 0.47223155538E+02 0.48474615579E+02 0.49237453466E+02 0.39634446345E+02 0.39464080928E+02
 0.38955757314E+02 0.38119790740E+02 0.36978670531E+02 0.35571266147E+02 0.33953989183E+02
 0.32198163053E+02 0.30384505515E+02 0.28596109681E+02 0.26911004198E+02 0.25395212804E+02
 0.24097507981E+02 0.23047154730E+02 0.22255181038E+02 0.21718243552E+02 0.21422990487E+02
 0.21348924618E+02 0.21469134502E+02 0.21749878747E+02 0.22150726386E+02 0.22626428347E+02
 0.23130519253E+02 0.23619697390E+02 0.24057727969E+02 0.24417834939E+02 0.24683026217E+02
 0.24844437734E+02 0.24898519328E+02 0.24844437734E+02 0.24683026217E+02 0.24417834939E+02
 0.24057727969E+02 0.23619697390E+02 0.23130519253E+02 0.22626428347E+02 0.22150726386E+02
 0.21749878747E+02 0.21469134502E+02 0.21348924618E+02 0.21422990487E+02 0.21718243552E+02
 0.22255181038E+02 0.23047154730E+02 0.24097507981E+02 0.25395212804E+02 0.26911004198E+02
 0.28596109681E+02 0.30384505515E+02 0.32198163053E+02 0.33953989183E+02 0.35571266147E+02
 0.36978670531E+02 0.38119790740E+02 0.38955757314E+02 0.39464080928E+02 0.31488443811E+02
 0.31384198053E+02 0.31072925900E+02 0.30560532820E+02 0.29860961562E+02 0.28999730084E+02
 0.28015442938E+02 0.26958479174E+02 0.25887229346E+02 0.24862816398E+02 0.23943341884E+02
 0.23178753214E+02 0.22607432577E+02 0.22255181038E+02 0.22136269335E+02 0.22255181038E+02
 0.22607432577E+02 0.23178753214E+02 0.23943341884E+02 0.24862816398E+02 0.25887229346E+02
 0.26958479174E+02 0.28015442938E+02 0.28999730084E+02 0.29860961562E+02 0.30560532820E+02
 0.31072925900E+02 0.31384198053E+02 0.31488443811E+02 0.31384198053E+02 0.31072925900E+02
 0.30560532820E+02 0.29860961562E+02 0.28999730084E+02 0.28015442938E+02 0.26958479174E+02
 0.25887229346E+02 0.24862816398E+02 0.23943341884E+02 0.23178753214E+02 0.22607432577E+02
 0.22255181038E+02 0.22136269335E+02 0.22255181038E+02 0.22607432577E+02 0.23178753214E+02
 0.23943341884E+02 0.24862816398E+02 0.25887229346E+02 0.26958479174E+02 0.28015442938E+02
 0.28999730084E+02 0.29860961562E+02 0.30560532820E+02 0.31072925900E+02 0.31384198053E+02
 0.24898519328E+02 0.24844437734E+02 0.24683026217E+02 0.24417834939E+02 0.24057727969E+02
 0.23619697390E+02 0.23130519253E+02 0.22626428347E+02 0.22150726386E+02 0.21749878747E+02
 0.21469134502E+02 0.21348924618E+02 0.21422990487E+02 0.21718243552E+02 0.22255181038E+02
 0.23047154730E+02 0.24097507981E+02 0.25395212804E+02 0.26911004198E+02 0.28596109681E+02
 0.30384505515E+02 0.32198163053E+02 0.33953989183E+02 0.35571266147E+02 0.36978670531E+02
 0.38119790740E+02 0.38955757314E+02 0.39464080928E+02 0.39634446345E+02 0.39464080928E+02
 0.38955757314E+02 0.38119790740E+02 0.36978670531E+02 0.35571266147E+02 0.33953989183E+02
 0.32198163053E+02 0.30384505515E+02 0.28596109681E+02 0.26911004198E+02 0.25395212804E+02
 0.24097507981E+02 0.23047154730E+02 0.22255181038E+02 0.21718243552E+02 0.21422990487E+02
 0.21348924618E+02 0.21469134502E+02 0.21749878747E+02 0.22150726386E+02 0.22626428347E+02
 0.23130519253E+02 0.23619697390E+02 0.24057727969E+02 0.24417834939E+02 0.24683026217E+02
 0.24844437734E+02 0.19676091224E+02 0.19658911605E+02 0.19607927097E+02 0.19525514395E+02
 0.19417751585E+02 0.19296747792E+02 0.19182456387E+02 0.19103064650E+02 0.19093506958E+02
 0.19192451420E+02 0.19438933230E+02 0.19870067835E+02 0.20520531321E+02 0.21422990487E+02
 0.22607432577E+02 0.24097507981E+02 0.25903754673E+02 0.28015817964E+02 0.30396886136E+02
 0.32982712540E+02 0.35685478618E+02 0.38400973581E+02 0.41017237559E+02 0.43423607879E+02
 0.45519678997E+02 0.47223155538E+02 0.48474615579E+02 0.49237453466E+02 0.49493481604E+02
 0.49237453466E+02 0.48474615579E+02 0.47223155538E+02 0.45519678997E+02 0.43423607879E+02
 0.41017237559E+02 0.38400973581E+02 0.35685478618E+02 0.32982712540E+02 0.30396886136E+02
 0.28015817964E+02 0.25903754673E+02 0.24097507981E+02 0.22607432577E+02 0.21422990487E+02
 0.20520531321E+02 0.19870067835E+02 0.19438933230E+02 0.19192451420E+02 0.19093506958E+02
 0.19103064650E+02 0.19182456387E+02 0.19296747792E+02 0.19417751585E+02 0.19525514395E+02
 0.19607927097E+02 0.19658911605E+02 0.15605163370E+02 0.15613920550E+02 0.15640697171E+02
 0.15687544225E+02 0.15759578221E+02 0.15867113609E+02 0.16027615069E+02 0.16266444246E+02
 0.16615767320E+02 0.17112036053E+02 0.17793499409E+02 0.18699264027E+02 0.19870067835E+02
 0.21348924618E+02 0.23178753214E+02 0.25395212804E+02 0.28015817964E+02 0.31029081669E+02
 0.34387940853E+02 0.38009647718E+02 0.41781243947E+02 0.45567979739E+02 0.49222657003E+02
 0.52595714136E+02 0.55546607297E+02 0.57955528116E+02 0.59732199371E+02 0.60818253544E+02
 0.61183019127E+02 0.60818253544E+02 0.59732199371E+02 0.57955528116E+02 0.55546607297E+02
 0.52595714136E+02 0.49222657003E+02 0.45567979739E+02 0.41781243947E+02 0.38009647718E+02
 0.34387940853E+02 0.31029081669E+02 0.28015817964E+02 0.25395212804E+02 0.23178753214E+02
 0.21348924618E+02 0.19870067835E+02 0.18699264027E+02 0.17793499409E+02 0.17112036053E+02
 0.16615767320E+02 0.16266444246E+02 0.16027615069E+02 0.15867113609E+02 0.15759578221E+02
 0.15687544225E+02 0.15640697171E+02 0.15613920550E+02 0.12461794977E+02 0.12487864927E+02
 0.12566725303E+02 0.12700821621E+02 0.12895846882E+02 0.13162864313E+02 0.13520279580E+02
 0.13994551321E+02 0.14619086302E+02 0.15432073027E+02 0.16475041242E+02 0.17793499409E+02
 0.19438933230E+02 0.21469134502E+02 0.23943341884E+02 0.26911004198E+02 0.30396886136E+02
 0.34387940853E+02 0.38826717053E+02 0.43612429526E+02 0.48607030136E+02 0.53642711848E+02
 0.58529821716E+02 0.63067430972E+02 0.67044939678E+02 0.70215866042E+02 0.72451920449E+02
 0.73756595437E+02 0.74182381489E+02 0.73756595437E+02 0.72451920449E+02 0.70215866042E+02
 0.67044939678E+02 0.63067430972E+02 0.58529821716E+02 0.53642711848E+02 0.48607030136E+02
 0.43612429526E+02 0.38826717053E+02 0.34387940853E+02 0.30396886136E+02 0.26911004198E+02
 0.23943341884E+02 0.21469134502E+02 0.19438933230E+02 0.17793499409E+02 0.16475041242E+02
 0.15432073027E+02 0.14619086302E+02 0.13994551321E+02 0.13520279580E+02 0.13162864313E+02
 0.12895846882E+02 0.12700821621E+02 0.12566725303E+02 0.12487864927E+02 0.10042155431E+02
 0.10079237274E+02 0.10191442724E+02 0.10382192011E+02 0.10658922983E+02 0.11035259520E+02
 0.11532820701E+02 0.12181575126E+02 0.13018539210E+02 0.14086113178E+02 0.15432073027E+02
 0.17112036053E+02 0.19192451420E+02 0.21749878747E+02 0.24862816398E+02 0.28596109681E+02
 0.32982712540E+02 0.38009647718E+02 0.43612429526E+02 0.49676748021E+02 0.56042399736E+02
 0.62505905750E+02 0.68815202129E+02 0.74512912598E+02 0.79115094531E+02 0.82425877562E+02
 0.84518809464E+02 0.85621031041E+02 0.85957740028E+02 0.85621031041E+02 0.84518809464E+02
 0.82425877562E+02 0.79115094531E+02 0.74512912598E+02 0.68815202129E+02 0.62505905750E+02
 0.56042399736E+02 0.49676748021E+02 0.43612429526E+02 0.38009647718E+02 0.32982712540E+02
 0.28596109681E+02 0.24862816398E+02 0.21749878747E+02 0.19192451420E+02 0.17112036053E+02
 0.15432073027E+02 0.14086113178E+02 0.13018539210E+02 0.12181575126E+02 0.11532820701E+02
 0.11035259520E+02 0.10658922983E+02 0.10382192011E+02 0.10191442724E+02 0.10079237274E+02
 0.81818133350E+01 0.82256150819E+01 0.83584003546E+01 0.85849427241E+01 0.89151384521E+01
 0.93661756190E+01 0.99639985095E+01 0.10743142565E+02 0.11745305490E+02 0.13018539210E+02
 0.14619086302E+02 0.16615767320E+02 0.19093506958E+02 0.22150726386E+02 0.25887229346E+02
 0.30384505515E+02 0.35685478618E+02 0.41781243947E+02 0.48607030136E+02 0.56042399736E+02
 0.63908213050E+02 0.71917331171E+02 0.79322500033E+02 0.85315555732E+02 0.89485182964E+02
 0.91880324186E+02 0.92925250472E+02 0.93212557489E+02 0.93243393132E+02 0.93212557489E+02
 0.92925250472E+02 0.91880324186E+02 0.89485182964E+02 0.85315555732E+02 0.79322500033E+02
 0.71917331171E+02 0.63908213050E+02 0.56042399736E+02 0.48607030136E+02 0.41781243947E+02
 0.35685478618E+02 0.30384505515E+02 0.25887229346E+02 0.22150726386E+02 0.19093506958E+02
 0.16615767320E+02 0.14619086302E+02 0.13018539210E+02 0.11745305490E+02 0.10743142565E+02
 0.99639985095E+01 0.93661756190E+01 0.89151384521E+01 0.85849427241E+01 0.83584003546E+01
 0.82256150819E+01 0.67577578094E+01 0.68055103470E+01 0.69506034451E+01 0.71992980505E+01
 0.75641970159E+01 0.80663291238E+01 0.87361456307E+01 0.96128577757E+01 0.10743142565E+02
 0.12181575126E+02 0.13994551321E+02 0.16266444246E+02 0.19103064650E+02 0.22626428347E+02
 0.26958479174E+02 0.32198163053E+02 0.38400973581E+02 0.45567979739E+02 0.53642711848E+02
 0.62505905750E+02 0.71917331171E+02 0.80970996118E+02 0.88428844971E+02 0.93447260526E+02
 0.95800187349E+02 0.95925534781E+02 0.94771306918E+02 0.93466824212E+02 0.92916991085E+02
 0.93466824212E+02 0.94771306918E+02 0.95925534781E+02 0.95800187349E+02 0.93447260526E+02
 0.88428844971E+02 0.80970996118E+02 0.71917331171E+02 0.62505905750E+02 0.53642711848E+02
 0.45567979739E+02 0.38400973581E+02 0.32198163053E+02 0.26958479174E+02 0.22626428347E+02
 0.19103064650E+02 0.16266444246E+02 0.13994551321E+02 0.12181575126E+02 0.10743142565E+02
 0.96128577757E+01 0.87361456307E+01 0.80663291238E+01 0.75641970159E+01 0.71992980505E+01
 0.69506034451E+01 0.68055103470E+01 0.56789157190E+01 0.57288888810E+01 0.58810558230E+01
 0.61430663548E+01 0.65300924669E+01 0.70667532397E+01 0.77876038566E+01 0.87361456307E+01
 0.99639985095E+01 0.11532820701E+02 0.13520279580E+02 0.16027615069E+02 0.19182456387E+02
 0.23130519253E+02 0.28015442938E+02 0.33953989183E+02 0.41017237559E+02 0.49222657003E+02
 0.58529821716E+02 0.68815202129E+02 0.79322500033E+02 0.88428844971E+02 0.94689877964E+02
 0.97283004851E+02 0.96262830550E+02 0.92602140357E+02 0.87958686767E+02 0.84189874812E+02
 0.82750272261E+02 0.84189874812E+02 0.87958686767E+02 0.92602140357E+02 0.96262830550E+02
 0.97283004851E+02 0.94689877964E+02 0.88428844971E+02 0.79322500033E+02 0.68815202129E+02
 0.58529821716E+02 0.49222657003E+02 0.41017237559E+02 0.33953989183E+02 0.28015442938E+02
 0.23130519253E+02 0.19182456387E+02 0.16027615069E+02 0.13520279580E+02 0.11532820701E+02
 0.99639985095E+01 0.87361456307E+01 0.77876038566E+01 0.70667532397E+01 0.65300924669E+01
 0.61430663548E+01 0.58810558230E+01 0.57288888810E+01 0.48752437658E+01 0.49263448687E+01
 0.50822138948E+01 0.53516486214E+01 0.57520347763E+01 0.63110668834E+01 0.70667532397E+01
 0.80663291238E+01 0.93661756190E+01 0.11035259520E+02 0.13162864313E+02 0.15867113609E+02
 0.19296747792E+02 0.23619697390E+02 0.28999730084E+02 0.35571266147E+02 0.43423607879E+02
 0.52595714136E+02 0.63067430972E+02 0.74512912598E+02 0.85315555732E+02 0.93447260526E+02
 0.97283004851E+02 0.96056755154E+02 0.90178902250E+02 0.81285468283E+02 0.71918143074E+02
 0.64847447328E+02 0.62220863260E+02 0.64847447328E+02 0.71918143074E+02 0.81285468283E+02
 0.90178902250E+02 0.96056755154E+02 0.97283004851E+02 0.93447260526E+02 0.85315555732E+02
 0.74512912598E+02 0.63067430972E+02 0.52595714136E+02 0.43423607879E+02 0.35571266147E+02
 0.28999730084E+02 0.23619697390E+02 0.19296747792E+02 0.15867113609E+02 0.13162864313E+02
 0.11035259520E+02 0.93661756190E+01 0.80663291238E+01 0.70667532397E+01 0.63110668834E+01
 0.57520347763E+01 0.53516486214E+01 0.50822138948E+01 0.49263448687E+01 0.42904773401E+01
 0.43419924629E+01 0.44993211890E+01 0.47721410607E+01 0.51796450003E+01 0.57520347763E+01
 0.65300924669E+01 0.75641970159E+01 0.89151384521E+01 0.10658922983E+02 0.12895846882E+02
 0.15759578221E+02 0.19417751585E+02 0.24057727969E+02 0.29860961562E+02 0.36978670531E+02
 0.45519678997E+02 0.55546607297E+02 0.67044939678E+02 0.79115094531E+02 0.89485182964E+02
 0.95800187349E+02 0.96262830550E+02 0.90178902250E+02 0.78356411229E+02 0.63177898615E+02
 0.48190185359E+02 0.37209532346E+02 0.33180163573E+02 0.37209532346E+02 0.48190185359E+02
 0.63177898615E+02 0.78356411229E+02 0.90178902250E+02 0.96262830550E+02 0.95800187349E+02
 0.89485182964E+02 0.79115094531E+02 0.67044939678E+02 0.55546607297E+02 0.45519678997E+02
 0.36978670531E+02 0.29860961562E+02 0.24057727969E+02 0.19417751585E+02 0.15759578221E+02
 0.12895846882E+02 0.10658922983E+02 0.89151384521E+01 0.75641970159E+01 0.65300924669E+01
 0.57520347763E+01 0.51796450003E+01 0.47721410607E+01 0.44993211890E+01 0.43419924629E+01
 0.38790405334E+01 0.39305427348E+01 0.40879677233E+01 0.43616326336E+01 0.47721410607E+01
 0.53516486214E+01 0.61430663548E+01 0.71992980505E+01 0.85849427241E+01 0.10382192011E+02
 0.12700821621E+02 0.15687544225E+02 0.19525514395E+02 0.24417834939E+02 0.30560532820E+02
 0.38119790740E+02 0.47223155538E+02 0.57955528116E+02 0.70215866042E+02 0.82425877562E+02
 0.91880324186E+02 0.95925534781E+02 0.92602140357E+02 0.81285468283E+02 0.63177898615E+02
 0.41414559628E+02 0.20565435829E+02 0.55166052484E+01 0.29130612602E-01 0.55166052484E+01
 0.20565435829E+02 0.41414559628E+02 0.63177898615E+02 0.81285468283E+02 0.92602140357E+02
 0.95925534781E+02 0.91880324186E+02 0.82425877562E+02 0.70215866042E+02 0.57955528116E+02
 0.47223155538E+02 0.38119790740E+02 0.30560532820E+02 0.24417834939E+02 0.19525514395E+02
 0.15687544225E+02 0.12700821621E+02 0.10382192011E+02 0.85849427241E+01 0.71992980505E+01
 0.61430663548E+01 0.53516486214E+01 0.47721410607E+01 0.43616326336E+01 0.40879677233E+01
 0.39305427348E+01 0.36063048263E+01 0.36576327611E+01 0.38146071959E+01 0.40879677233E+01
 0.44993211890E+01 0.50822138948E+01 0.58810558230E+01 0.69506034451E+01 0.83584003546E+01
 0.10191442724E+02 0.12566725303E+02 0.15640697171E+02 0.19607927097E+02 0.24683026217E+02
 0.31072925900E+02 0.38955757314E+02 0.48474615579E+02 0.59732199371E+02 0.72451920449E+02
 0.84518809464E+02 0.92925250472E+02 0.94771306918E+02 0.87958686767E+02 0.71918143074E+02
 0.48190185359E+02 0.20565435829E+02 -.54888132909E+01 -.24145803417E+02 -.30925781289E+02
 -.24145803417E+02 -.54888132909E+01 0.20565435829E+02 0.48190185359E+02 0.71918143074E+02
 0.87958686767E+02 0.94771306918E+02 0.92925250472E+02 0.84518809464E+02 0.72451920449E+02
 0.59732199371E+02 0.48474615579E+02 0.38955757314E+02 0.31072925900E+02 0.24683026217E+02
 0.19607927097E+02 0.15640697171E+02 0.12566725303E+02 0.10191442724E+02 0.83584003546E+01
 0.69506034451E+01 0.58810558230E+01 0.50822138948E+01 0.44993211890E+01 0.40879677233E+01
 0.38146071959E+01 0.36576327611E+01 0.34498901002E+01 0.35010709153E+01 0.36576327611E+01
 0.39305427348E+01 0.43419924629E+01 0.49263448687E+01 0.57288888810E+01 0.68055103470E+01
 0.82256150819E+01 0.10079237274E+02 0.12487864927E+02 0.15613920550E+02 0.19658911605E+02
 0.24844437734E+02 0.31384198053E+02 0.39464080928E+02 0.49237453466E+02 0.60818253544E+02
 0.73756595437E+02 0.85621031041E+02 0.93212557489E+02 0.93466824212E+02 0.84189874812E+02
 0.64847447328E+02 0.37209532346E+02 0.55166052484E+01 -.24145803417E+02 -.45302169164E+02
 -.52977163808E+02 -.45302169164E+02 -.24145803417E+02 0.55166052484E+01 0.37209532346E+02
 0.64847447328E+02 0.84189874812E+02 0.93466824212E+02 0.93212557489E+02 0.85621031041E+02
 0.73756595437E+02 0.60818253544E+02 0.49237453466E+02 0.39464080928E+02 0.31384198053E+02
 0.24844437734E+02 0.19658911605E+02 0.15613920550E+02 0.12487864927E+02 0.10079237274E+02
 0.82256150819E+01 0.68055103470E+01 0.57288888810E+01 0.49263448687E+01 0.43419924629E+01
 0.39305427348E+01 0.36576327611E+01 0.35010709153E+01 0.33987603838E+01 0.34498901002E+01
 0.36063048263E+01 0.38790405334E+01 0.42904773401E+01 0.48752437658E+01 0.56789157190E+01
 0.67577578094E+01 0.81818133350E+01 0.10042155431E+02 0.12461794977E+02 0.15605163370E+02
 0.19676091224E+02 0.24898519328E+02 0.31488443811E+02 0.39634446345E+02 0.49493481604E+02
 0.61183019127E+02 0.74182381489E+02 0.85957740028E+02 0.93243393132E+02 0.92916991085E+02
 0.82750272261E+02 0.62220863260E+02 0.33180163573E+02 0.29130612603E-01 -.30925781289E+02
 -.52977163808E+02 -.60972605560E+02 -.52977163808E+02 -.30925781289E+02 0.29130612602E-01
 0.33180163573E+02 0.62220863260E+02 0.82750272261E+02 0.92916991085E+02 0.93243393132E+02
 0.85957740028E+02 0.74182381489E+02 0.61183019127E+02 0.49493481604E+02 0.39634446345E+02
 0.31488443811E+02 0.24898519328E+02 0.19676091224E+02 0.15605163370E+02 0.12461794977E+02
 0.10042155431E+02 0.81818133350E+01 0.67577578094E+01 0.56789157190E+01 0.48752437658E+01