   8   8   0   0
  0.2082684E+02  0.5502640E-09  0.5502640E-09  0.5502640E-09  0.1000000E-15
  1.000000000000000E-004
  CAR 
 GaAs                                    
     10.56939654    -10.78153903  301      4.23750971      1.00000000
    -10.782  0.0000E+00  0.0000E+00
    -10.710  0.0000E+00  0.0000E+00
    -10.639  0.0000E+00  0.0000E+00
    -10.568  0.0000E+00  0.0000E+00
    -10.497  0.0000E+00  0.0000E+00
    -10.426  0.0000E+00  0.0000E+00
    -10.355  0.0000E+00  0.0000E+00
    -10.283  0.0000E+00  0.0000E+00
    -10.212  0.0000E+00  0.0000E+00
    -10.141  0.0000E+00  0.0000E+00
    -10.070  0.0000E+00  0.0000E+00
     -9.999  0.0000E+00  0.0000E+00
     -9.928  0.0000E+00  0.0000E+00
     -9.856  0.0000E+00  0.0000E+00
     -9.785  0.0000E+00  0.0000E+00
     -9.714  0.5581E-03  0.1257E-04
     -9.643  0.2354E-02  0.1088E-03
     -9.572  0.5124E-02  0.3742E-03
     -9.500  0.6992E-02  0.8128E-03
     -9.429  0.7600E-02  0.1339E-02
     -9.358  0.7905E-02  0.1888E-02
     -9.287  0.8696E-02  0.2476E-02
     -9.216  0.9856E-02  0.3136E-02
     -9.145  0.1110E-01  0.3881E-02
     -9.073  0.1387E-01  0.4732E-02
     -9.002  0.1947E-01  0.5927E-02
     -8.931  0.2356E-01  0.7467E-02
     -8.860  0.2007E-01  0.9016E-02
     -8.789  0.1719E-01  0.1034E-01
     -8.718  0.1688E-01  0.1154E-01
     -8.646  0.1664E-01  0.1274E-01
     -8.575  0.1623E-01  0.1391E-01
     -8.504  0.1566E-01  0.1504E-01
     -8.433  0.1995E-01  0.1639E-01
     -8.362  0.1489E-01  0.1763E-01
     -8.291  0.8434E-02  0.1834E-01
     -8.219  0.1416E-01  0.1911E-01
     -8.148  0.2226E-01  0.2040E-01
     -8.077  0.2523E-01  0.2213E-01
     -8.006  0.2617E-01  0.2409E-01
     -7.935  0.2689E-01  0.2590E-01
     -7.864  0.2939E-01  0.2791E-01
     -7.792  0.3140E-01  0.3008E-01
     -7.721  0.6073E-01  0.3410E-01
     -7.650  0.4910E-01  0.3812E-01
     -7.579  0.3512E-01  0.4114E-01
     -7.508  0.3031E-01  0.4322E-01
     -7.437  0.3261E-01  0.4546E-01
     -7.365  0.3529E-01  0.4787E-01
     -7.294  0.5904E-01  0.5125E-01
     -7.223  0.5506E-01  0.5537E-01
     -7.152  0.6066E-01  0.5942E-01
     -7.081  0.6206E-01  0.6389E-01
     -7.010  0.4444E-01  0.6781E-01
     -6.938  0.4136E-01  0.7087E-01
     -6.867  0.3841E-01  0.7370E-01
     -6.796  0.3568E-01  0.7637E-01
     -6.725  0.3758E-01  0.7873E-01
     -6.654  0.0000E+00  0.8000E-01
     -6.583  0.0000E+00  0.8000E-01
     -6.511  0.0000E+00  0.8000E-01
     -6.440  0.0000E+00  0.8000E-01
     -6.369  0.0000E+00  0.8000E-01
     -6.298  0.0000E+00  0.8000E-01
     -6.227  0.0000E+00  0.8000E-01
     -6.156  0.0000E+00  0.8000E-01
     -6.084  0.0000E+00  0.8000E-01
     -6.013  0.0000E+00  0.8000E-01
     -5.942  0.0000E+00  0.8000E-01
     -5.871  0.0000E+00  0.8000E-01
     -5.800  0.0000E+00  0.8000E-01
     -5.728  0.0000E+00  0.8000E-01
     -5.657  0.0000E+00  0.8000E-01
     -5.586  0.0000E+00  0.8000E-01
     -5.515  0.0000E+00  0.8000E-01
     -5.444  0.0000E+00  0.8000E-01
     -5.373  0.0000E+00  0.8000E-01
     -5.301  0.0000E+00  0.8000E-01
     -5.230  0.0000E+00  0.8000E-01
     -5.159  0.0000E+00  0.8000E-01
     -5.088  0.0000E+00  0.8000E-01
     -5.017  0.0000E+00  0.8000E-01
     -4.946  0.0000E+00  0.8000E-01
     -4.874  0.0000E+00  0.8000E-01
     -4.803  0.0000E+00  0.8000E-01
     -4.732  0.0000E+00  0.8000E-01
     -4.661  0.0000E+00  0.8000E-01
     -4.590  0.0000E+00  0.8000E-01
     -4.519  0.0000E+00  0.8000E-01
     -4.447  0.0000E+00  0.8000E-01
     -4.376  0.0000E+00  0.8000E-01
     -4.305  0.0000E+00  0.8000E-01
     -4.234  0.0000E+00  0.8000E-01
     -4.163  0.0000E+00  0.8000E-01
     -4.092  0.0000E+00  0.8000E-01
     -4.020  0.0000E+00  0.8000E-01
     -3.949  0.0000E+00  0.8000E-01
     -3.878  0.0000E+00  0.8000E-01
     -3.807  0.0000E+00  0.8000E-01
     -3.736  0.0000E+00  0.8000E-01
     -3.665  0.0000E+00  0.8000E-01
     -3.593  0.0000E+00  0.8000E-01
     -3.522  0.0000E+00  0.8000E-01
     -3.451  0.0000E+00  0.8000E-01
     -3.380  0.5234E-03  0.8000E-01
     -3.309  0.8724E-02  0.8028E-01
     -3.238  0.1333E-01  0.8114E-01
     -3.166  0.4213E-01  0.8355E-01
     -3.095  0.6488E-01  0.8701E-01
     -3.024  0.1463E+00  0.9354E-01
     -2.953  0.6982E-01  0.1002E+00
     -2.882  0.7054E-01  0.1052E+00
     -2.811  0.7206E-01  0.1102E+00
     -2.739  0.5510E-01  0.1146E+00
     -2.668  0.4127E-01  0.1180E+00
     -2.597  0.2870E-01  0.1207E+00
     -2.526  0.2307E-01  0.1224E+00
     -2.455  0.2248E-01  0.1240E+00
     -2.384  0.2192E-01  0.1256E+00
     -2.312  0.2140E-01  0.1271E+00
     -2.241  0.2090E-01  0.1286E+00
     -2.170  0.2045E-01  0.1301E+00
     -2.099  0.2002E-01  0.1315E+00
     -2.028  0.1962E-01  0.1330E+00
     -1.956  0.1612E-01  0.1342E+00
     -1.885  0.1589E-01  0.1353E+00
     -1.814  0.1561E-01  0.1364E+00
     -1.743  0.1525E-01  0.1375E+00
     -1.672  0.1482E-01  0.1386E+00
     -1.601  0.1436E-01  0.1396E+00
     -1.529  0.1387E-01  0.1406E+00
     -1.458  0.1335E-01  0.1416E+00
     -1.387  0.1281E-01  0.1425E+00
     -1.316  0.1223E-01  0.1434E+00
     -1.245  0.1225E-01  0.1443E+00
     -1.174  0.1147E-01  0.1452E+00
     -1.102  0.1083E-01  0.1459E+00
     -1.031  0.1031E-01  0.1467E+00
     -0.960  0.8773E-02  0.1474E+00
     -0.889  0.9483E-02  0.1480E+00
     -0.818  0.1066E-01  0.1488E+00
     -0.747  0.1201E-01  0.1496E+00
     -0.675  0.1355E-01  0.1505E+00
     -0.604  0.2262E-01  0.1520E+00
     -0.533  0.1465E-01  0.1530E+00
     -0.462  0.1656E-01  0.1542E+00
     -0.391  0.1829E-01  0.1554E+00
     -0.320  0.2073E-01  0.1568E+00
     -0.248  0.2275E-01  0.1583E+00
     -0.177  0.3849E-01  0.1607E+00
     -0.106  0.4295E-01  0.1635E+00
     -0.035  0.3693E-01  0.1662E+00
      0.036  0.4891E-01  0.1692E+00
      0.107  0.6383E-01  0.1732E+00
      0.179  0.6806E-01  0.1781E+00
      0.250  0.4687E-01  0.1816E+00
      0.321  0.4327E-01  0.1848E+00
      0.392  0.3814E-01  0.1877E+00
      0.463  0.3615E-01  0.1903E+00
      0.534  0.4020E-01  0.1930E+00
      0.606  0.3568E-01  0.1959E+00
      0.677  0.3252E-01  0.1982E+00
      0.748  0.3435E-01  0.2005E+00
      0.819  0.3589E-01  0.2030E+00
      0.890  0.3845E-01  0.2056E+00
      0.961  0.4958E-01  0.2086E+00
      1.033  0.7384E-01  0.2131E+00
      1.104  0.6648E-01  0.2184E+00
      1.175  0.7053E-01  0.2230E+00
      1.246  0.6854E-01  0.2281E+00
      1.317  0.5845E-01  0.2326E+00
      1.388  0.4993E-01  0.2365E+00
      1.460  0.3907E-01  0.2396E+00
      1.531  0.3496E-01  0.2422E+00
      1.602  0.3360E-01  0.2447E+00
      1.673  0.3500E-01  0.2471E+00
      1.744  0.4257E-01  0.2498E+00
      1.816  0.4936E-01  0.2531E+00
      1.887  0.5651E-01  0.2569E+00
      1.958  0.5242E-01  0.2609E+00
      2.029  0.4772E-01  0.2642E+00
      2.100  0.4962E-01  0.2677E+00
      2.171  0.5855E-01  0.2716E+00
      2.243  0.7294E-01  0.2764E+00
      2.314  0.4781E-01  0.2807E+00
      2.385  0.4269E-01  0.2839E+00
      2.456  0.3764E-01  0.2868E+00
      2.527  0.3267E-01  0.2893E+00
      2.598  0.2866E-01  0.2915E+00
      2.670  0.2043E-01  0.2930E+00
      2.741  0.1897E-01  0.2944E+00
      2.812  0.2385E-01  0.2959E+00
      2.883  0.3076E-01  0.2979E+00
      2.954  0.4332E-01  0.3007E+00
      3.025  0.4357E-01  0.3036E+00
      3.097  0.4736E-01  0.3069E+00
      3.168  0.4808E-01  0.3102E+00
      3.239  0.2866E-01  0.3130E+00
      3.310  0.1424E-01  0.3141E+00
      3.381  0.1255E-01  0.3151E+00
      3.452  0.1092E-01  0.3159E+00
      3.524  0.9351E-02  0.3166E+00
      3.595  0.7899E-02  0.3172E+00
      3.666  0.8214E-02  0.3178E+00
      3.737  0.8233E-02  0.3184E+00
      3.808  0.7474E-02  0.3189E+00
      3.879  0.5935E-02  0.3194E+00
      3.951  0.3618E-02  0.3198E+00
      4.022  0.1083E-02  0.3199E+00
      4.093  0.4260E-03  0.3200E+00
      4.164  0.7002E-04  0.3200E+00
      4.235  0.0000E+00  0.3200E+00
      4.306  0.0000E+00  0.3200E+00
      4.378  0.0000E+00  0.3200E+00
      4.449  0.0000E+00  0.3200E+00
      4.520  0.0000E+00  0.3200E+00
      4.591  0.0000E+00  0.3200E+00
      4.662  0.0000E+00  0.3200E+00
      4.733  0.0000E+00  0.3200E+00
      4.805  0.0000E+00  0.3200E+00
      4.876  0.0000E+00  0.3200E+00
      4.947  0.0000E+00  0.3200E+00
      5.018  0.0000E+00  0.3200E+00
      5.089  0.0000E+00  0.3200E+00
      5.160  0.0000E+00  0.3200E+00
      5.232  0.0000E+00  0.3200E+00
      5.303  0.0000E+00  0.3200E+00
      5.374  0.2022E-02  0.3200E+00
      5.445  0.2543E-02  0.3202E+00
      5.516  0.3197E-02  0.3204E+00
      5.588  0.3982E-02  0.3207E+00
      5.659  0.4900E-02  0.3210E+00
      5.730  0.5949E-02  0.3214E+00
      5.801  0.7092E-02  0.3218E+00
      5.872  0.1120E-01  0.3226E+00
      5.943  0.1009E-01  0.3232E+00
      6.015  0.1172E-01  0.3240E+00
      6.086  0.1408E-01  0.3249E+00
      6.157  0.1994E-01  0.3261E+00
      6.228  0.3569E-01  0.3280E+00
      6.299  0.2671E-01  0.3304E+00
      6.370  0.2905E-01  0.3324E+00
      6.442  0.3163E-01  0.3346E+00
      6.513  0.3487E-01  0.3369E+00
      6.584  0.5115E-01  0.3401E+00
      6.655  0.5874E-01  0.3435E+00
      6.726  0.1014E+00  0.3504E+00
      6.797  0.5758E-01  0.3571E+00
      6.869  0.4936E-01  0.3604E+00
      6.940  0.6156E-01  0.3646E+00
      7.011  0.5621E-01  0.3688E+00
      7.082  0.4101E-01  0.3721E+00
      7.153  0.4082E-01  0.3750E+00
      7.224  0.4086E-01  0.3779E+00
      7.296  0.6469E-01  0.3820E+00
      7.367  0.7067E-01  0.3869E+00
      7.438  0.4138E-01  0.3914E+00
      7.509  0.3870E-01  0.3943E+00
      7.580  0.3557E-01  0.3969E+00
      7.651  0.3488E-01  0.3994E+00
      7.723  0.3418E-01  0.4019E+00
      7.794  0.3348E-01  0.4043E+00
      7.865  0.3392E-01  0.4066E+00
      7.936  0.2779E-01  0.4088E+00
      8.007  0.2286E-01  0.4106E+00
      8.078  0.1940E-01  0.4120E+00
      8.150  0.3314E-01  0.4139E+00
      8.221  0.3197E-01  0.4161E+00
      8.292  0.5160E-01  0.4189E+00
      8.363  0.4366E-01  0.4219E+00
      8.434  0.1426E+00  0.4264E+00
      8.505  0.8022E-01  0.4327E+00
      8.577  0.6620E-01  0.4379E+00
      8.648  0.5602E-01  0.4422E+00
      8.719  0.4547E-01  0.4456E+00
      8.790  0.4172E-01  0.4487E+00
      8.861  0.3605E-01  0.4515E+00
      8.932  0.2745E-01  0.4536E+00
      9.004  0.4480E-01  0.4562E+00
      9.075  0.5450E-01  0.4596E+00
      9.146  0.5026E-01  0.4634E+00
      9.217  0.4934E-01  0.4670E+00
      9.288  0.4690E-01  0.4704E+00
      9.360  0.4294E-01  0.4736E+00
      9.431  0.2731E-01  0.4763E+00
      9.502  0.3264E-01  0.4784E+00
      9.573  0.0000E+00  0.4800E+00
      9.644  0.0000E+00  0.4800E+00
      9.715  0.0000E+00  0.4800E+00
      9.787  0.0000E+00  0.4800E+00
      9.858  0.0000E+00  0.4800E+00
      9.929  0.0000E+00  0.4800E+00
     10.000  0.0000E+00  0.4800E+00
     10.071  0.0000E+00  0.4800E+00
     10.142  0.0000E+00  0.4800E+00
     10.214  0.0000E+00  0.4800E+00
     10.285  0.0000E+00  0.4800E+00
     10.356  0.0000E+00  0.4800E+00
     10.427  0.0000E+00  0.4800E+00
     10.498  0.0000E+00  0.4800E+00
     10.569  0.0000E+00  0.4800E+00
