 running    8 mpi-ranks, on    1 nodes
 distrk:  each k-point on    8 cores,    1 groups
 distr:  one band on    1 cores,    8 groups
 vasp.6.4.3 19Mar24 (build Aug 29 2024 15:27:20) complex                        
  
 POSCAR found type information on POSCAR AsGa
 POSCAR found :  2 types and       8 ions
 scaLAPACK will be used
 -----------------------------------------------------------------------------
|                                                                             |
|           W    W    AA    RRRRR   N    N  II  N    N   GGGG   !!!           |
|           W    W   A  A   R    R  NN   N  II  NN   N  G    G  !!!           |
|           W    W  A    A  R    R  N N  N  II  N N  N  G       !!!           |
|           W WW W  AAAAAA  RRRRR   N  N N  II  N  N N  G  GGG   !            |
|           WW  WW  A    A  R   R   N   NN  II  N   NN  G    G                |
|           W    W  A    A  R    R  N    N  II  N    N   GGGG   !!!           |
|                                                                             |
|     For optimal performance we recommend to set                             |
|       NCORE = 2 up to number-of-cores-per-socket                            |
|     NCORE specifies how many cores store one orbital (NPAR=cpu/NCORE).      |
|     This setting can greatly improve the performance of VASP for DFT.       |
|     The default, NCORE=1 might be grossly inefficient on modern             |
|     multi-core architectures or massively parallel machines. Do your        |
|     own testing! More info at https://www.vasp.at/wiki/index.php/NCORE      |
|     Unfortunately you need to use the default for GW and RPA                |
|     calculations (for HF NCORE is supported but not extensively tested      |
|     yet).                                                                   |
|                                                                             |
 -----------------------------------------------------------------------------

 LDA part: xc-table for (Slater+PW92), standard interpolation
 found WAVECAR, reading the header
 POSCAR, INCAR and KPOINTS ok, starting setup
 FFT: planning ... GRIDC
 FFT: planning ... GRID_SOFT
 FFT: planning ... GRID
 reading WAVECAR
 the WAVECAR file was read successfully
 initial charge from wavefunction
 entering main loop
       N       E                     dE             d eps       ncg     rms          rms(c)
DAV:   1    -0.325893086012E+02   -0.32589E+02   -0.75425E+00   544   0.117E+01    0.528E+00
DAV:   2    -0.323990554323E+02    0.19025E+00   -0.38757E-01   496   0.286E+00    0.317E+00
DAV:   3    -0.323408903101E+02    0.58165E-01   -0.30976E-01   512   0.202E+00    0.319E-01
DAV:   4    -0.323357244572E+02    0.51659E-02   -0.23270E-02   504   0.682E-01    0.213E-01
DAV:   5    -0.323353283272E+02    0.39613E-03   -0.20480E-03   560   0.181E-01    0.582E-02
DAV:   6    -0.323353519957E+02   -0.23668E-04   -0.42759E-05   256   0.308E-02
   1 F= -.89370009E+01 E0= -.89370009E+01  d E =-.893700E+01
 curvature:   0.00 expect dE= 0.000E+00 dE for cont linesearch  0.000E+00
 trial: gam= 0.00000 g(F)=  0.205E-60 g(S)=  0.437E+00 ort = 0.000E+00 (trialstep = 0.100E+01)
 search vector abs. value=  0.437E+00
 bond charge predicted
       N       E                     dE             d eps       ncg     rms          rms(c)
DAV:   1    -0.318231651297E+02    0.51216E+00   -0.15644E+00   544   0.553E+00    0.137E+00
DAV:   2    -0.317713716095E+02    0.51794E-01   -0.94969E-02   504   0.136E+00    0.726E-01
DAV:   3    -0.317531645677E+02    0.18207E-01   -0.64381E-02   520   0.942E-01    0.243E-01
DAV:   4    -0.317526460014E+02    0.51857E-03   -0.23185E-03   512   0.232E-01    0.196E-01
DAV:   5    -0.317522033297E+02    0.44267E-03   -0.92218E-04   568   0.127E-01    0.741E-02
DAV:   6    -0.317522001974E+02    0.31322E-05   -0.69827E-05   240   0.351E-02
   2 F= -.92724054E+01 E0= -.92724054E+01  d E =-.335404E+00
 trial-energy change:   -0.335404  1 .order   -0.330987   -0.437414   -0.224560
 step:   1.8569(harm=  2.0550)  dis= 0.00000  next Energy=    -9.371394 (dE=-0.434E+00)
 bond charge predicted
       N       E                     dE             d eps       ncg     rms          rms(c)
DAV:   1    -0.311483270361E+02    0.60388E+00   -0.11543E+00   544   0.478E+00    0.119E+00
DAV:   2    -0.311100167470E+02    0.38310E-01   -0.69204E-02   504   0.118E+00    0.634E-01
DAV:   3    -0.310964097294E+02    0.13607E-01   -0.47662E-02   520   0.817E-01    0.214E-01
DAV:   4    -0.310960558657E+02    0.35386E-03   -0.16790E-03   512   0.198E-01    0.174E-01
DAV:   5    -0.310957336915E+02    0.32217E-03   -0.67003E-04   544   0.109E-01    0.640E-02
DAV:   6    -0.310957311027E+02    0.25888E-05   -0.51540E-05   240   0.305E-02
   3 F= -.93836247E+01 E0= -.93836247E+01  d E =-.446624E+00
 curvature:  -0.99 expect dE=-0.165E-02 dE for cont linesearch -0.165E-02
 ZBRENT: extrapolating
 opt :   1.9740  next Energy=    -9.385206 (dE=-0.448E+00)
 bond charge predicted
       N       E                     dE             d eps       ncg     rms          rms(c)
DAV:   1    -0.309947426443E+02    0.10099E+00   -0.21462E-02   544   0.647E-01    0.160E-01
DAV:   2    -0.309940471496E+02    0.69549E-03   -0.12464E-03   504   0.160E-01    0.851E-02
DAV:   3    -0.309938172398E+02    0.22991E-03   -0.87624E-04   504   0.111E-01    0.277E-02
DAV:   4    -0.309938112929E+02    0.59470E-05   -0.29377E-05   240   0.271E-02
   4 F= -.93852522E+01 E0= -.93852522E+01  d E =-.448251E+00
 curvature:  -0.95 expect dE=-0.952E-06 dE for cont linesearch -0.952E-06
 trial: gam= 0.00000 g(F)=  0.482E-59 g(S)=  0.100E-05 ort =-0.663E-03 (trialstep = 0.119E+01)
 search vector abs. value=  0.100E-05
 reached required accuracy - stopping structural energy minimisation
 writing wavefunctions
