<?xml version="1.0" encoding="ISO-8859-1"?>
<modeling>
 <generator>
  <i name="program" type="string">vasp </i>
  <i name="version" type="string">6.4.3  </i>
  <i name="subversion" type="string">19Mar24 (build Aug 29 2024 15:27:20) complex                          parallel </i>
  <i name="platform" type="string">LinuxIFC </i>
  <i name="date" type="string">2025 03 19 </i>
  <i name="time" type="string">11:21:37 </i>
 </generator>
 <incar>
  <i type="string" name="SYSTEM">GaAs</i>
  <i type="string" name="PREC">Normal</i>
  <i type="int" name="IBRION">     2</i>
  <i type="int" name="NFREE">     2</i>
  <i type="int" name="NSW">   100</i>
  <i type="int" name="ISIF">     3</i>
  <i name="ENCUT">    400.00000000</i>
  <i name="POTIM">      0.10000000</i>
  <i type="int" name="ISMEAR">    -5</i>
  <i name="SIGMA">      0.10000000</i>
  <i name="PSTRESS">    225.00000000</i>
 </incar>
 <primitive_cell>
  <structure name="primitive_cell" >
   <crystal>
    <varray name="basis" >
     <v>       2.75132003      -2.75132003       0.00000000 </v>
     <v>       2.75132003       0.00000000       2.75132003 </v>
     <v>       0.00000000      -2.75132003       2.75132003 </v>
    </varray>
    <i name="volume">     41.65367512 </i>
    <varray name="rec_basis" >
     <v>       0.18173095      -0.18173095      -0.18173095 </v>
     <v>       0.18173095       0.18173095       0.18173095 </v>
     <v>      -0.18173095      -0.18173095       0.18173095 </v>
    </varray>
   </crystal>
   <varray name="positions" >
    <v>       0.00000000       0.00000000       0.00000000 </v>
    <v>       0.75000000       0.75000000       0.75000000 </v>
   </varray>
  </structure>
  <varray name="primitive_index" >
   <v type="int" >        1 </v>
   <v type="int" >        5 </v>
  </varray>
 </primitive_cell>
 <kpoints>
  <generation param="Gamma">
   <v type="int" name="divisions">       5        5        5 </v>
   <v name="usershift">      0.00000000       0.00000000       0.00000000 </v>
   <v name="genvec1">      0.20000000       0.00000000       0.00000000 </v>
   <v name="genvec2">      0.00000000       0.20000000       0.00000000 </v>
   <v name="genvec3">      0.00000000       0.00000000       0.20000000 </v>
   <v name="shift">      0.00000000       0.00000000       0.00000000 </v>
  </generation>
  <varray name="kpointlist" >
   <v>       0.00000000       0.00000000       0.00000000 </v>
   <v>       0.20000000       0.00000000       0.00000000 </v>
   <v>       0.40000000       0.00000000       0.00000000 </v>
   <v>       0.20000000       0.20000000       0.00000000 </v>
   <v>       0.40000000       0.20000000       0.00000000 </v>
   <v>       0.40000000       0.40000000       0.00000000 </v>
   <v>       0.20000000       0.20000000       0.20000000 </v>
   <v>       0.40000000       0.20000000       0.20000000 </v>
   <v>       0.40000000       0.40000000       0.20000000 </v>
   <v>       0.40000000       0.40000000       0.40000000 </v>
  </varray>
  <varray name="weights" >
   <v>       0.00800000 </v>
   <v>       0.04800000 </v>
   <v>       0.04800000 </v>
   <v>       0.09600000 </v>
   <v>       0.19200000 </v>
   <v>       0.09600000 </v>
   <v>       0.06400000 </v>
   <v>       0.19200000 </v>
   <v>       0.19200000 </v>
   <v>       0.06400000 </v>
  </varray>
  <varray name="tetrahedronlist"  type="int" >
   <v type="int" >       12        7        8        8        9 </v>
   <v type="int" >       18        8        8        9        9 </v>
   <v type="int" >       24        8        9        9       10 </v>
   <v type="int" >       12        8        9        9        9 </v>
   <v type="int" >       24        9        9        9       10 </v>
   <v type="int" >       18        9        9       10       10 </v>
   <v type="int" >       24        4        5        7        8 </v>
   <v type="int" >       12        5        7        8        8 </v>
   <v type="int" >       24        5        8        8        9 </v>
   <v type="int" >       24        4        5        5        8 </v>
   <v type="int" >       24        5        5        6        8 </v>
   <v type="int" >       12        5        6        8        9 </v>
   <v type="int" >       12        9       10       10       10 </v>
   <v type="int" >       12        8        8        9       10 </v>
   <v type="int" >       12        8        9       10       10 </v>
   <v type="int" >       12        5        5        8        9 </v>
   <v type="int" >       12        5        8        9        9 </v>
   <v type="int" >       12        5        5        6        9 </v>
   <v type="int" >       12        5        6        6        9 </v>
   <v type="int" >       12        5        6        9        9 </v>
   <v type="int" >       12        5        6        8        8 </v>
   <v type="int" >       12        5        6        6        8 </v>
   <v type="int" >       12        6        8        8        9 </v>
   <v type="int" >       12        6        8        9        9 </v>
   <v type="int" >       12        6        6        8        9 </v>
   <v type="int" >       12        7        8        9       10 </v>
   <v type="int" >       12        4        5        8        9 </v>
   <v type="int" >       12        4        7        8        9 </v>
   <v type="int" >       12        4        5        6        9 </v>
   <v type="int" >       12        5        6        7        8 </v>
   <v type="int" >       12        4        5        6        7 </v>
   <v type="int" >       12        6        7        8        9 </v>
   <v type="int" >       12        2        4        7        8 </v>
   <v type="int" >       12        2        4        5        8 </v>
   <v type="int" >       12        2        3        5        8 </v>
   <v type="int" >       12        4        4        5        7 </v>
   <v type="int" >       12        2        4        4        5 </v>
   <v type="int" >       12        2        3        4        5 </v>
   <v type="int" >       12        3        4        5        5 </v>
   <v type="int" >       12        2        3        4        7 </v>
   <v type="int" >       12        3        4        5        7 </v>
   <v type="int" >       12        3        5        7        8 </v>
   <v type="int" >        6       10       10       10       10 </v>
   <v type="int" >       12        6        6        9        9 </v>
   <v type="int" >       12        6        9        9        9 </v>
   <v type="int" >       12        6        6        6        9 </v>
   <v type="int" >       12        3        5        8        8 </v>
   <v type="int" >       12        3        5        5        8 </v>
   <v type="int" >       12        3        3        5        8 </v>
   <v type="int" >       12        5        5        5        8 </v>
   <v type="int" >       12        3        5        5        5 </v>
   <v type="int" >        6        3        3        5        5 </v>
   <v type="int" >        6        5        5        8        8 </v>
   <v type="int" >       12        2        4        4        7 </v>
   <v type="int" >       12        2        2        4        4 </v>
   <v type="int" >       12        1        2        2        4 </v>
   <v type="int" >       12        1        2        4        7 </v>
  </varray>
  <i name="volumeweight">      0.00133333 </i>
 </kpoints>
 <parameters>
  <separator name="general" >
   <i type="string" name="SYSTEM">GaAs</i>
   <i type="logical" name="LCOMPAT"> F  </i>
  </separator>
  <separator name="electronic" >
   <i type="string" name="PREC">normal</i>
   <i name="ENMAX">    400.00000000</i>
   <i name="ENAUG">    462.75800000</i>
   <i name="EDIFF">      0.00010000</i>
   <i type="int" name="IALGO">    38</i>
   <i type="int" name="IWAVPR">    11</i>
   <i type="int" name="NBANDS">    24</i>
   <i type="int" name="NBANDSLOW">    -1</i>
   <i type="int" name="NBANDSHIGH">    -1</i>
   <i name="NELECT">     32.00000000</i>
   <i type="int" name="TURBO">     0</i>
   <i type="int" name="IRESTART">     0</i>
   <i type="int" name="NREBOOT">     0</i>
   <i type="int" name="NMIN">     0</i>
   <i name="EREF">      0.00000000</i>
   <separator name="electronic smearing" >
    <i type="int" name="ISMEAR">    -5</i>
    <i name="SIGMA">      0.10000000</i>
    <i name="KSPACING">      0.50000000</i>
    <i type="logical" name="KGAMMA"> T  </i>
    <i type="logical" name="KBLOWUP"> T  </i>
   </separator>
   <separator name="electronic projectors" >
    <i type="logical" name="LREAL"> F  </i>
    <v name="ROPT">      0.00000000      0.00000000</v>
    <i type="int" name="LMAXPAW">  -100</i>
    <i type="int" name="LMAXMIX">     2</i>
    <i type="logical" name="NLSPLINE"> F  </i>
   </separator>
   <separator name="electronic startup" >
    <i type="int" name="ISTART">     1</i>
    <i type="int" name="ICHARG">     0</i>
    <i type="int" name="INIWAV">     1</i>
   </separator>
   <separator name="electronic spin" >
    <i type="int" name="ISPIN">     1</i>
    <i type="logical" name="LNONCOLLINEAR"> F  </i>
    <v name="MAGMOM">      1.00000000      1.00000000      1.00000000      1.00000000      1.00000000      1.00000000      1.00000000      1.00000000</v>
    <i name="NUPDOWN">     -1.00000000</i>
    <i type="logical" name="LSORBIT"> F  </i>
    <v name="SAXIS">      0.00000000      0.00000000      1.00000000</v>
    <i type="logical" name="LSPIRAL"> F  </i>
    <v name="QSPIRAL">      0.00000000      0.00000000      0.00000000</v>
    <i type="logical" name="LZEROZ"> F  </i>
   </separator>
   <separator name="electronic exchange-correlation" >
    <i type="logical" name="LASPH"> F  </i>
   </separator>
   <separator name="electronic convergence" >
    <i type="int" name="NELM">    60</i>
    <i type="int" name="NELMDL">     0</i>
    <i type="int" name="NELMIN">     2</i>
    <i name="ENINI">    400.00000000</i>
    <separator name="electronic convergence detail" >
     <i type="logical" name="LDIAG"> T  </i>
     <i type="logical" name="LSUBROT"> F  </i>
     <i name="WEIMIN">      0.00100000</i>
     <i name="EBREAK">      0.00000104</i>
     <i name="DEPER">      0.30000000</i>
     <i type="int" name="NRMM">     4</i>
     <i name="TIME">      0.40000000</i>
    </separator>
   </separator>
   <separator name="electronic mixer" >
    <i name="AMIX">      0.40000000</i>
    <i name="BMIX">      1.00000000</i>
    <i name="AMIN">      0.10000000</i>
    <i name="AMIX_MAG">      1.60000000</i>
    <i name="BMIX_MAG">      1.00000000</i>
    <separator name="electronic mixer details" >
     <i type="int" name="IMIX">     4</i>
     <i type="logical" name="MIXFIRST"> F  </i>
     <i type="int" name="MAXMIX">   -45</i>
     <i name="WC">    100.00000000</i>
     <i type="int" name="INIMIX">     1</i>
     <i type="int" name="MIXPRE">     1</i>
     <i type="int" name="MREMOVE">     5</i>
    </separator>
   </separator>
   <separator name="electronic dipolcorrection" >
    <i type="logical" name="LDIPOL"> F  </i>
    <i type="logical" name="LMONO"> F  </i>
    <i type="int" name="IDIPOL">     0</i>
    <i name="EPSILON">      1.00000000</i>
    <v name="DIPOL">   -100.00000000   -100.00000000   -100.00000000</v>
    <i name="EFIELD">      0.00000000</i>
    <i type="logical" name="LVACPOTAV"> F  </i>
   </separator>
  </separator>
  <separator name="grids" >
   <i type="int" name="NGX">    28</i>
   <i type="int" name="NGY">    28</i>
   <i type="int" name="NGZ">    28</i>
   <i type="int" name="NGXF">    56</i>
   <i type="int" name="NGYF">    56</i>
   <i type="int" name="NGZF">    56</i>
   <i type="logical" name="ADDGRID"> F  </i>
  </separator>
  <separator name="ionic" >
   <i type="int" name="NSW">   100</i>
   <i type="int" name="IBRION">     2</i>
   <i type="int" name="MDALGO">     0</i>
   <i type="int" name="ISIF">     3</i>
   <i name="PSTRESS">    225.00000000</i>
   <i name="EDIFFG">      0.00100000</i>
   <i type="int" name="NFREE">     2</i>
   <i name="POTIM">      0.10000000</i>
   <i name="SMASS">     -3.00000000</i>
   <i name="SCALEE">      1.00000000</i>
  </separator>
  <separator name="ionic md" >
   <i name="TEBEG">      0.00010000</i>
   <i name="TEEND">      0.00010000</i>
   <i type="int" name="NBLOCK">     1</i>
   <i type="int" name="KBLOCK">   100</i>
   <i type="int" name="NPACO">   256</i>
   <i name="APACO">     10.00000000</i>
  </separator>
  <separator name="symmetry" >
   <i type="int" name="ISYM">     2</i>
   <i name="SYMPREC">      0.00001000</i>
  </separator>
  <separator name="dos" >
   <i type="int" name="LORBIT">     0</i>
   <v name="RWIGS">     -1.00000000     -1.00000000</v>
   <i type="int" name="NEDOS">   301</i>
   <i name="EMIN">     10.00000000</i>
   <i name="EMAX">    -10.00000000</i>
   <i name="EFERMI">      0.00000000</i>
  </separator>
  <separator name="writing" >
   <i type="int" name="NWRITE">     2</i>
   <i type="logical" name="LWAVE"> T  </i>
   <i type="logical" name="LDOWNSAMPLE"> F  </i>
   <i type="logical" name="LCHARG"> T  </i>
   <i type="logical" name="LPARD"> F  </i>
   <i type="logical" name="LVTOT"> F  </i>
   <i type="logical" name="LVHAR"> F  </i>
   <i type="logical" name="LELF"> F  </i>
   <i type="logical" name="LOPTICS"> F  </i>
   <v name="STM">      0.00000000      0.00000000      0.00000000      0.00000000      0.00000000      0.00000000      0.00000000</v>
  </separator>
  <separator name="performance" >
   <i type="int" name="NPAR">     8</i>
   <i type="int" name="NSIM">     4</i>
   <i type="int" name="NBLK">    -1</i>
   <i type="logical" name="LPLANE"> T  </i>
   <i type="logical" name="LSCALAPACK"> T  </i>
   <i type="logical" name="LSCAAWARE"> F  </i>
   <i type="logical" name="LSCALU"> F  </i>
   <i type="logical" name="LASYNC"> F  </i>
   <i type="logical" name="LORBITALREAL"> F  </i>
  </separator>
  <separator name="miscellaneous" >
   <i type="int" name="IDIOT">     3</i>
   <i type="int" name="PHON_NSTRUCT">    -1</i>
   <i type="logical" name="LMUSIC"> F  </i>
   <v name="POMASS">     74.92200000     69.72300000</v>
   <v name="DARWINR">      0.00000000      0.00000000</v>
   <v name="DARWINV">      1.00000000      1.00000000</v>
   <i type="logical" name="LCORR"> T  </i>
  </separator>
  <i type="logical" name="GGA_COMPAT"> T  </i>
  <i type="logical" name="LBERRY"> F  </i>
  <i type="int" name="ICORELEVEL">     0</i>
  <i type="logical" name="LDAU"> F  </i>
  <i type="int" name="I_CONSTRAINED_M">     0</i>
  <separator name="electronic exchange-correlation" >
   <i type="string" name="GGA    ">PE</i>
   <i type="string" name="XC_C">1</i>
   <i type="int" name="VOSKOWN">     0</i>
   <i type="logical" name="LHFCALC"> F  </i>
   <i type="string" name="PRECFOCK"></i>
   <i type="logical" name="LSYMGRAD"> F  </i>
   <i type="logical" name="LHFONE"> F  </i>
   <i type="logical" name="LRHFCALC"> F  </i>
   <i type="logical" name="LTHOMAS"> F  </i>
   <i type="logical" name="LMODELHF"> F  </i>
   <i type="logical" name="LFOCKACE"> F  </i>
   <i name="ENCUT4O">     -1.00000000</i>
   <i type="int" name="EXXOEP">     0</i>
   <i type="int" name="FOURORBIT">     0</i>
   <i name="AEXX">      0.00000000</i>
   <i name="HFALPHA">      0.00000000</i>
   <i name="MCALPHA">      0.00000000</i>
   <i name="ALDAX">      1.00000000</i>
   <i name="AGGAX">      1.00000000</i>
   <i name="AMGGAX">      1.00000000</i>
   <i name="ALDAC">      1.00000000</i>
   <i name="AGGAC">      1.00000000</i>
   <i name="AMGGAC">      1.00000000</i>
   <i type="int" name="NKREDX">     1</i>
   <i type="int" name="NKREDY">     1</i>
   <i type="int" name="NKREDZ">     1</i>
   <i type="logical" name="SHIFTRED"> F  </i>
   <i type="logical" name="ODDONLY"> F  </i>
   <i type="logical" name="EVENONLY"> F  </i>
   <i type="int" name="LMAXFOCK">     0</i>
   <i type="int" name="NMAXFOCKAE">     0</i>
   <i type="logical" name="LFOCKAEDFT"> F  </i>
   <i name="HFSCREEN">      0.00000000</i>
   <i name="HFSCREENC">      0.00000000</i>
   <i type="int" name="NBANDSGWLOW">     0</i>
  </separator>
  <separator name="vdW DFT" >
   <i type="logical" name="LUSE_VDW"> F  </i>
   <i type="int" name="IVDW_NL">    -1</i>
   <i type="logical" name="LSPIN_VDW"> F  </i>
   <i name="ZAB_VDW">     -0.84910000</i>
   <i name="GAMMA_VDW">      1.39626340</i>
   <i name="ALPHA_VDW">      0.00000000</i>
   <i name="PARAM1">      0.12340000</i>
   <i name="PARAM2">      1.00000000</i>
   <i name="BPARAM">      6.30000000</i>
   <i name="CPARAM">      0.00930000</i>
  </separator>
  <separator name="model GW" >
   <i type="int" name="MODEL_GW">     0</i>
   <i name="MODEL_EPS0">     12.49610254</i>
   <i name="MODEL_ALPHA">      1.00000000</i>
  </separator>
  <separator name="linear response parameters" >
   <i type="logical" name="LEPSILON"> F  </i>
   <i type="logical" name="LRPA"> F  </i>
   <i type="logical" name="LNABLA"> F  </i>
   <i type="logical" name="LVEL"> F  </i>
   <i name="CSHIFT">      0.10000000</i>
   <i name="OMEGAMAX">     -1.00000000</i>
   <i name="DEG_THRESHOLD">      0.00200000</i>
   <i name="RTIME">     -0.10000000</i>
   <i name="WPLASMAI">      0.00000000</i>
   <v name="DFIELD">      0.00000000      0.00000000      0.00000000</v>
   <v name="WPLASMA">      0.00000000      0.00000000      0.00000000      0.00000000      0.00000000      0.00000000      0.00000000      0.00000000      0.00000000</v>
  </separator>
  <separator name="orbital magnetization" >
   <i type="logical" name="NUCIND"> F  </i>
   <v name="MAGPOS">      0.00000000      0.00000000      0.00000000</v>
   <i type="logical" name="LNICSALL"> T  </i>
   <i type="logical" name="ORBITALMAG"> F  </i>
   <i type="logical" name="LMAGBLOCH"> F  </i>
   <i type="logical" name="LCHIMAG"> F  </i>
   <i type="logical" name="LGAUGE"> T  </i>
   <i type="int" name="MAGATOM">     0</i>
   <v name="MAGDIPOL">      0.00000000      0.00000000      0.00000000</v>
   <v name="AVECCONST">      0.00000000      0.00000000      0.00000000</v>
  </separator>
  <separator name="response functions" >
   <i type="logical" name="LALL_IN_ONE"> F  </i>
   <i type="int" name="IALL_IN_ONE">    -1</i>
   <i type="int" name="NBANDS_WAVE">    -1</i>
   <i type="logical" name="LFINITE_TEMPERATURE"> F  </i>
   <i type="logical" name="LADDER"> F  </i>
   <i type="logical" name="LRPAFORCE"> F  </i>
   <i type="logical" name="LFXC"> F  </i>
   <i type="logical" name="LHARTREE"> T  </i>
   <i type="int" name="IBSE">     0</i>
   <v type="int" name="KPOINT">    -1     0     0     0</v>
   <i type="logical" name="LTCTC"> F  </i>
   <i type="logical" name="LTCTE"> F  </i>
   <i type="logical" name="LTETE"> F  </i>
   <i type="logical" name="LTRIPLET"> F  </i>
   <i type="logical" name="LFXCEPS"> F  </i>
   <i type="logical" name="LFXHEG"> F  </i>
   <i type="int" name="NATURALO">     2</i>
   <i type="logical" name="LHOLEGF"> F  </i>
   <i type="logical" name="L2ORDER"> F  </i>
   <i type="logical" name="LDMP1"> F  </i>
   <i type="logical" name="LMP2LT"> F  </i>
   <i type="logical" name="LSMP2LT"> F  </i>
   <i type="logical" name="LGWLF"> F  </i>
   <i name="ENCUTGW">     -1.60000002</i>
   <i name="ENCUTGWSOFT">     -1.60000002</i>
   <i name="ENCUTLF">     -1.00000000</i>
   <i type="logical" name="ESF_SPLINES"> F  </i>
   <i name="ESF_CONV">      0.01000000</i>
   <i type="int" name="ESF_NINTER">    15</i>
   <i type="int" name="LMAXMP2">    -1</i>
   <i name="SCISSOR">      0.00000000</i>
   <i type="int" name="NOMEGA">     0</i>
   <i type="int" name="NOMEGAR">     0</i>
   <i type="int" name="NBANDSGW">    -1</i>
   <i type="int" name="NBANDSO">    -1</i>
   <i type="int" name="NBANDSV">    -1</i>
   <i type="int" name="NELMGW">     1</i>
   <i type="int" name="NELMHF">     1</i>
   <i type="int" name="DIM">     3</i>
   <i type="int" name="IESPILON">     4</i>
   <i type="int" name="ANTIRES">     0</i>
   <i name="OMEGAMAX">    -30.00000000</i>
   <i name="OMEGAMIN">    -30.00000000</i>
   <i name="OMEGATL">   -200.00000000</i>
   <i type="int" name="OMEGAGRID">     0</i>
   <i name="CSHIFT">     -0.10000000</i>
   <i type="logical" name="LSELFENERGY"> F  </i>
   <i type="logical" name="LSPECTRAL"> F  </i>
   <i type="logical" name="LSPECTRALGW"> F  </i>
   <i type="logical" name="LSINGLES"> F  </i>
   <i type="logical" name="LFERMIGW"> F  </i>
   <i type="logical" name="ODDONLYGW"> F  </i>
   <i type="logical" name="EVENONLYGW"> F  </i>
   <i type="int" name="NKREDLFX">     1</i>
   <i type="int" name="NKREDLFY">     1</i>
   <i type="int" name="NKREDLFZ">     1</i>
   <i type="int" name="MAXMEM">  2800</i>
   <i type="int" name="TELESCOPE">     0</i>
   <i type="int" name="NTAUPAR">    -1</i>
   <i type="int" name="NOMEGAPAR">    -1</i>
   <i name="DAMP_NEWTON">      0.80000001</i>
   <i name="LAMBDA">      1.00000000</i>
  </separator>
  <separator name="External order field" >
   <i name="OFIELD_KAPPA">      0.00000000</i>
   <v name="OFIELD_K">      0.00000000      0.00000000      0.00000000</v>
   <i name="OFIELD_Q6_NEAR">      0.00000000</i>
   <i name="OFIELD_Q6_FAR">      0.00000000</i>
   <i name="OFIELD_A">      0.00000000</i>
  </separator>
  <separator name="optional k-points parameters" >
   <i type="int" name="KPOINTS_OPT_MODE">     1</i>
   <i type="logical" name="LKPOINTS_OPT"> F  </i>
  </separator>
 </parameters>
 <atominfo>
  <atoms>       8 </atoms>
  <types>       2 </types>
  <array name="atoms" >
   <dimension dim="1">ion</dimension>
   <field type="string">element</field>
   <field type="int">atomtype</field>
   <set>
    <rc><c>As</c><c>   1</c></rc>
    <rc><c>As</c><c>   1</c></rc>
    <rc><c>As</c><c>   1</c></rc>
    <rc><c>As</c><c>   1</c></rc>
    <rc><c>Ga</c><c>   2</c></rc>
    <rc><c>Ga</c><c>   2</c></rc>
    <rc><c>Ga</c><c>   2</c></rc>
    <rc><c>Ga</c><c>   2</c></rc>
   </set>
  </array>
  <array name="atomtypes" >
   <dimension dim="1">type</dimension>
   <field type="int">atomspertype</field>
   <field type="string">element</field>
   <field>mass</field>
   <field>valence</field>
   <field type="string">pseudopotential</field>
   <set>
    <rc><c>   4</c><c>As</c><c>     74.92200000</c><c>      5.00000000</c><c>  PAW_PBE As 22Sep2009                  </c></rc>
    <rc><c>   4</c><c>Ga</c><c>     69.72300000</c><c>      3.00000000</c><c>  PAW_PBE Ga 08Apr2002                  </c></rc>
   </set>
  </array>
 </atominfo>
 <structure name="initialpos" >
  <crystal>
   <varray name="basis" >
    <v>       5.50264006       0.00000000       0.00000000 </v>
    <v>       0.00000000       5.50264006       0.00000000 </v>
    <v>       0.00000000       0.00000000       5.50264006 </v>
   </varray>
   <i name="volume">    166.61470049 </i>
   <varray name="rec_basis" >
    <v>       0.18173095       0.00000000       0.00000000 </v>
    <v>       0.00000000       0.18173095       0.00000000 </v>
    <v>       0.00000000       0.00000000       0.18173095 </v>
   </varray>
  </crystal>
  <varray name="positions" >
   <v>       0.00000000       0.00000000       0.00000000 </v>
   <v>       0.50000000       0.50000000       0.00000000 </v>
   <v>       0.50000000       0.00000000       0.50000000 </v>
   <v>       0.00000000       0.50000000       0.50000000 </v>
   <v>       0.25000000       0.25000000       0.25000000 </v>
   <v>       0.75000000       0.25000000       0.75000000 </v>
   <v>       0.75000000       0.75000000       0.25000000 </v>
   <v>       0.25000000       0.75000000       0.75000000 </v>
  </varray>
 </structure>
 <calculation>
  <scstep>
   <time name="dav">    0.20    0.22</time>
   <time name="total">    0.23    0.24</time>
   <energy>
    <i name="alphaZ">     82.12872199 </i>
    <i name="ewald">   -941.78307081 </i>
    <i name="hartreedc">    -71.54195235 </i>
    <i name="XCdc">   -119.79238163 </i>
    <i name="pawpsdc">   2888.93764376 </i>
    <i name="pawaedc">  -2710.21976758 </i>
    <i name="eentropy">      0.00000000 </i>
    <i name="bandstr">    -76.53513492 </i>
    <i name="atom">    916.21663293 </i>
    <i name="e_fr_energy">    -32.58930860 </i>
    <i name="e_wo_entrp">    -32.58930860 </i>
    <i name="e_0_energy">    -32.58930860 </i>
   </energy>
  </scstep>
  <scstep>
   <time name="dav">    0.18    0.20</time>
   <time name="total">    0.21    0.22</time>
   <energy>
    <i name="e_fr_energy">    -32.39905543 </i>
    <i name="e_wo_entrp">    -32.39905543 </i>
    <i name="e_0_energy">    -32.39905543 </i>
   </energy>
  </scstep>
  <scstep>
   <time name="dav">    0.19    0.20</time>
   <time name="total">    0.21    0.22</time>
   <energy>
    <i name="e_fr_energy">    -32.34089031 </i>
    <i name="e_wo_entrp">    -32.34089031 </i>
    <i name="e_0_energy">    -32.34089031 </i>
   </energy>
  </scstep>
  <scstep>
   <time name="dav">    0.19    0.20</time>
   <time name="total">    0.21    0.22</time>
   <energy>
    <i name="e_fr_energy">    -32.33572446 </i>
    <i name="e_wo_entrp">    -32.33572446 </i>
    <i name="e_0_energy">    -32.33572446 </i>
   </energy>
  </scstep>
  <scstep>
   <time name="dav">    0.20    0.21</time>
   <time name="total">    0.23    0.24</time>
   <energy>
    <i name="e_fr_energy">    -32.33532833 </i>
    <i name="e_wo_entrp">    -32.33532833 </i>
    <i name="e_0_energy">    -32.33532833 </i>
   </energy>
  </scstep>
  <scstep>
   <time name="dav">    0.14    0.14</time>
   <time name="total">    0.15    0.16</time>
   <energy>
    <i name="alphaZ">     82.12872199 </i>
    <i name="ewald">   -941.78307081 </i>
    <i name="hartreedc">    -78.87910271 </i>
    <i name="XCdc">   -120.02893403 </i>
    <i name="pawpsdc">   2304.73592825 </i>
    <i name="pawaedc">  -2126.23692148 </i>
    <i name="eentropy">      0.00000000 </i>
    <i name="bandstr">    -68.48860613 </i>
    <i name="atom">    916.21663293 </i>
    <i name="e_fr_energy">    -32.33535200 </i>
    <i name="e_wo_entrp">    -32.33535200 </i>
    <i name="e_0_energy">    -32.33535200 </i>
   </energy>
  </scstep>
  <structure>
   <crystal>
    <varray name="basis" >
     <v>       5.50264006       0.00000000       0.00000000 </v>
     <v>       0.00000000       5.50264006       0.00000000 </v>
     <v>       0.00000000       0.00000000       5.50264006 </v>
    </varray>
    <i name="volume">    166.61470049 </i>
    <varray name="rec_basis" >
     <v>       0.18173095       0.00000000       0.00000000 </v>
     <v>       0.00000000       0.18173095       0.00000000 </v>
     <v>       0.00000000       0.00000000       0.18173095 </v>
    </varray>
   </crystal>
   <varray name="positions" >
    <v>       0.00000000       0.00000000       0.00000000 </v>
    <v>       0.50000000       0.50000000       0.00000000 </v>
    <v>       0.50000000       0.00000000       0.50000000 </v>
    <v>       0.00000000       0.50000000       0.50000000 </v>
    <v>       0.25000000       0.25000000       0.25000000 </v>
    <v>       0.75000000       0.25000000       0.75000000 </v>
    <v>       0.75000000       0.75000000       0.25000000 </v>
    <v>       0.25000000       0.75000000       0.75000000 </v>
   </varray>
  </structure>
  <varray name="forces" >
   <v>       0.00000000      -0.00000000      -0.00000000 </v>
   <v>      -0.00000000       0.00000000       0.00000000 </v>
   <v>      -0.00000000       0.00000000       0.00000000 </v>
   <v>      -0.00000000       0.00000000       0.00000000 </v>
   <v>       0.00000000      -0.00000000      -0.00000000 </v>
   <v>       0.00000000      -0.00000000       0.00000000 </v>
   <v>       0.00000000      -0.00000000      -0.00000000 </v>
   <v>       0.00000000      -0.00000000      -0.00000000 </v>
  </varray>
  <varray name="stress" >
   <v>     119.27026750      -0.00000000      -0.00000000 </v>
   <v>      -0.00000000     119.27026750      -0.00000000 </v>
   <v>       0.00000000       0.00000000     119.27026750 </v>
  </varray>
  <energy>
   <i name="e_fr_energy">     -8.93700095 </i>
   <i name="e_wo_entrp">     -8.93700095 </i>
   <i name="e_0_energy">     -8.93700095 </i>
  </energy>
  <time name="totalsc">    1.69    1.78</time>
 </calculation>
 <calculation>
  <scstep>
   <time name="dav">    0.20    0.21</time>
   <time name="total">    0.22    0.23</time>
   <energy>
    <i name="alphaZ">     85.48461773 </i>
    <i name="ewald">   -954.43974455 </i>
    <i name="hartreedc">    -79.97836712 </i>
    <i name="XCdc">   -119.71852441 </i>
    <i name="pawpsdc">   2306.43656668 </i>
    <i name="pawaedc">  -2127.93409276 </i>
    <i name="eentropy">      0.00000000 </i>
    <i name="bandstr">    -57.89025363 </i>
    <i name="atom">    916.21663293 </i>
    <i name="e_fr_energy">    -31.82316513 </i>
    <i name="e_wo_entrp">    -31.82316513 </i>
    <i name="e_0_energy">    -31.82316513 </i>
   </energy>
  </scstep>
  <scstep>
   <time name="dav">    0.19    0.20</time>
   <time name="total">    0.21    0.22</time>
   <energy>
    <i name="e_fr_energy">    -31.77137161 </i>
    <i name="e_wo_entrp">    -31.77137161 </i>
    <i name="e_0_energy">    -31.77137161 </i>
   </energy>
  </scstep>
  <scstep>
   <time name="dav">    0.19    0.20</time>
   <time name="total">    0.22    0.23</time>
   <energy>
    <i name="e_fr_energy">    -31.75316457 </i>
    <i name="e_wo_entrp">    -31.75316457 </i>
    <i name="e_0_energy">    -31.75316457 </i>
   </energy>
  </scstep>
  <scstep>
   <time name="dav">    0.19    0.20</time>
   <time name="total">    0.21    0.23</time>
   <energy>
    <i name="e_fr_energy">    -31.75264600 </i>
    <i name="e_wo_entrp">    -31.75264600 </i>
    <i name="e_0_energy">    -31.75264600 </i>
   </energy>
  </scstep>
  <scstep>
   <time name="dav">    0.20    0.22</time>
   <time name="total">    0.23    0.24</time>
   <energy>
    <i name="e_fr_energy">    -31.75220333 </i>
    <i name="e_wo_entrp">    -31.75220333 </i>
    <i name="e_0_energy">    -31.75220333 </i>
   </energy>
  </scstep>
  <scstep>
   <time name="dav">    0.13    0.14</time>
   <time name="total">    0.14    0.15</time>
   <energy>
    <i name="alphaZ">     85.48461773 </i>
    <i name="ewald">   -954.43974455 </i>
    <i name="hartreedc">    -76.13376224 </i>
    <i name="XCdc">   -119.53236014 </i>
    <i name="pawpsdc">   2478.94663137 </i>
    <i name="pawaedc">  -2300.63302078 </i>
    <i name="eentropy">      0.00000000 </i>
    <i name="bandstr">    -61.66119452 </i>
    <i name="atom">    916.21663293 </i>
    <i name="e_fr_energy">    -31.75220020 </i>
    <i name="e_wo_entrp">    -31.75220020 </i>
    <i name="e_0_energy">    -31.75220020 </i>
   </energy>
  </scstep>
  <structure>
   <crystal>
    <varray name="basis" >
     <v>       5.42967043      -0.00000000      -0.00000000 </v>
     <v>      -0.00000000       5.42967043      -0.00000000 </v>
     <v>       0.00000000       0.00000000       5.42967043 </v>
    </varray>
    <i name="volume">    160.07385632 </i>
    <varray name="rec_basis" >
     <v>       0.18417324       0.00000000      -0.00000000 </v>
     <v>       0.00000000       0.18417324      -0.00000000 </v>
     <v>       0.00000000       0.00000000       0.18417324 </v>
    </varray>
   </crystal>
   <varray name="positions" >
    <v>       0.00000000       1.00000000       1.00000000 </v>
    <v>       0.50000000       0.50000000       0.00000000 </v>
    <v>       0.50000000       0.00000000       0.50000000 </v>
    <v>       1.00000000       0.50000000       0.50000000 </v>
    <v>       0.25000000       0.25000000       0.25000000 </v>
    <v>       0.75000000       0.25000000       0.75000000 </v>
    <v>       0.75000000       0.75000000       0.25000000 </v>
    <v>       0.25000000       0.75000000       0.75000000 </v>
   </varray>
  </structure>
  <varray name="forces" >
   <v>      -0.00000000       0.00000000       0.00000000 </v>
   <v>       0.00000000      -0.00000000       0.00000000 </v>
   <v>       0.00000000       0.00000000       0.00000000 </v>
   <v>      -0.00000000      -0.00000000      -0.00000000 </v>
   <v>       0.00000000       0.00000000      -0.00000000 </v>
   <v>      -0.00000000      -0.00000000      -0.00000000 </v>
   <v>       0.00000000       0.00000000      -0.00000000 </v>
   <v>       0.00000000       0.00000000      -0.00000000 </v>
  </varray>
  <varray name="stress" >
   <v>     168.50235016      -0.00000000      -0.00000000 </v>
   <v>       0.00000000     168.50235016      -0.00000000 </v>
   <v>      -0.00000000      -0.00000000     168.50235016 </v>
  </varray>
  <energy>
   <i name="e_fr_energy">     -9.27240536 </i>
   <i name="e_wo_entrp">     -9.27240536 </i>
   <i name="e_0_energy">     -9.27240536 </i>
  </energy>
  <time name="totalsc">    1.56    1.65</time>
 </calculation>
 <calculation>
  <scstep>
   <time name="dav">    0.20    0.21</time>
   <time name="total">    0.22    0.23</time>
   <energy>
    <i name="alphaZ">     88.50715059 </i>
    <i name="ewald">   -965.55861757 </i>
    <i name="hartreedc">    -77.01613641 </i>
    <i name="XCdc">   -119.26221839 </i>
    <i name="pawpsdc">   2474.54469719 </i>
    <i name="pawaedc">  -2296.23529745 </i>
    <i name="eentropy">      0.00000000 </i>
    <i name="bandstr">    -52.34453793 </i>
    <i name="atom">    916.21663293 </i>
    <i name="e_fr_energy">    -31.14832704 </i>
    <i name="e_wo_entrp">    -31.14832704 </i>
    <i name="e_0_energy">    -31.14832704 </i>
   </energy>
  </scstep>
  <scstep>
   <time name="dav">    0.19    0.20</time>
   <time name="total">    0.21    0.22</time>
   <energy>
    <i name="e_fr_energy">    -31.11001675 </i>
    <i name="e_wo_entrp">    -31.11001675 </i>
    <i name="e_0_energy">    -31.11001675 </i>
   </energy>
  </scstep>
  <scstep>
   <time name="dav">    0.19    0.20</time>
   <time name="total">    0.22    0.23</time>
   <energy>
    <i name="e_fr_energy">    -31.09640973 </i>
    <i name="e_wo_entrp">    -31.09640973 </i>
    <i name="e_0_energy">    -31.09640973 </i>
   </energy>
  </scstep>
  <scstep>
   <time name="dav">    0.19    0.20</time>
   <time name="total">    0.21    0.23</time>
   <energy>
    <i name="e_fr_energy">    -31.09605587 </i>
    <i name="e_wo_entrp">    -31.09605587 </i>
    <i name="e_0_energy">    -31.09605587 </i>
   </energy>
  </scstep>
  <scstep>
   <time name="dav">    0.20    0.21</time>
   <time name="total">    0.22    0.23</time>
   <energy>
    <i name="e_fr_energy">    -31.09573369 </i>
    <i name="e_wo_entrp">    -31.09573369 </i>
    <i name="e_0_energy">    -31.09573369 </i>
   </energy>
  </scstep>
  <scstep>
   <time name="dav">    0.13    0.14</time>
   <time name="total">    0.15    0.15</time>
   <energy>
    <i name="alphaZ">     88.50715059 </i>
    <i name="ewald">   -965.55861757 </i>
    <i name="hartreedc">    -73.75284333 </i>
    <i name="XCdc">   -119.10285634 </i>
    <i name="pawpsdc">   2635.61378186 </i>
    <i name="pawaedc">  -2457.48030298 </i>
    <i name="eentropy">      0.00000000 </i>
    <i name="bandstr">    -55.53867626 </i>
    <i name="atom">    916.21663293 </i>
    <i name="e_fr_energy">    -31.09573110 </i>
    <i name="e_wo_entrp">    -31.09573110 </i>
    <i name="e_0_energy">    -31.09573110 </i>
   </energy>
  </scstep>
  <structure>
   <crystal>
    <varray name="basis" >
     <v>       5.36714515      -0.00000000      -0.00000000 </v>
     <v>      -0.00000000       5.36714515      -0.00000000 </v>
     <v>       0.00000000       0.00000000       5.36714515 </v>
    </varray>
    <i name="volume">    154.60730940 </i>
    <varray name="rec_basis" >
     <v>       0.18631879       0.00000000      -0.00000000 </v>
     <v>       0.00000000       0.18631879      -0.00000000 </v>
     <v>       0.00000000       0.00000000       0.18631879 </v>
    </varray>
   </crystal>
   <varray name="positions" >
    <v>       0.00000000       0.00000000       0.00000000 </v>
    <v>       0.50000000       0.50000000       0.00000000 </v>
    <v>       0.50000000       0.00000000       0.50000000 </v>
    <v>       0.00000000       0.50000000       0.50000000 </v>
    <v>       0.25000000       0.25000000       0.25000000 </v>
    <v>       0.75000000       0.25000000       0.75000000 </v>
    <v>       0.75000000       0.75000000       0.25000000 </v>
    <v>       0.25000000       0.75000000       0.75000000 </v>
   </varray>
  </structure>
  <varray name="forces" >
   <v>      -0.00000000       0.00000000       0.00000000 </v>
   <v>       0.00000000      -0.00000000       0.00000000 </v>
   <v>      -0.00000000       0.00000000      -0.00000000 </v>
   <v>       0.00000000       0.00000000       0.00000000 </v>
   <v>       0.00000000      -0.00000000      -0.00000000 </v>
   <v>       0.00000000      -0.00000000      -0.00000000 </v>
   <v>       0.00000000      -0.00000000      -0.00000000 </v>
   <v>       0.00000000      -0.00000000      -0.00000000 </v>
  </varray>
  <varray name="stress" >
   <v>     217.96638623      -0.00000000       0.00000000 </v>
   <v>      -0.00000000     217.96638623      -0.00000000 </v>
   <v>       0.00000000      -0.00000000     217.96638623 </v>
  </varray>
  <energy>
   <i name="e_fr_energy">     -9.38362473 </i>
   <i name="e_wo_entrp">     -9.38362473 </i>
   <i name="e_0_energy">     -9.38362473 </i>
  </energy>
  <time name="totalsc">    1.56    1.64</time>
 </calculation>
 <calculation>
  <scstep>
   <time name="dav">    0.20    0.21</time>
   <time name="total">    0.22    0.23</time>
   <energy>
    <i name="alphaZ">     88.93127286 </i>
    <i name="ewald">   -967.09846497 </i>
    <i name="hartreedc">    -73.86732139 </i>
    <i name="XCdc">   -119.06405994 </i>
    <i name="pawpsdc">   2631.88877173 </i>
    <i name="pawaedc">  -2453.75913381 </i>
    <i name="eentropy">      0.00000000 </i>
    <i name="bandstr">    -54.24244005 </i>
    <i name="atom">    916.21663293 </i>
    <i name="e_fr_energy">    -30.99474264 </i>
    <i name="e_wo_entrp">    -30.99474264 </i>
    <i name="e_0_energy">    -30.99474264 </i>
   </energy>
  </scstep>
  <scstep>
   <time name="dav">    0.19    0.20</time>
   <time name="total">    0.21    0.22</time>
   <energy>
    <i name="e_fr_energy">    -30.99404715 </i>
    <i name="e_wo_entrp">    -30.99404715 </i>
    <i name="e_0_energy">    -30.99404715 </i>
   </energy>
  </scstep>
  <scstep>
   <time name="dav">    0.19    0.20</time>
   <time name="total">    0.21    0.22</time>
   <energy>
    <i name="e_fr_energy">    -30.99381724 </i>
    <i name="e_wo_entrp">    -30.99381724 </i>
    <i name="e_0_energy">    -30.99381724 </i>
   </energy>
  </scstep>
  <scstep>
   <time name="dav">    0.13    0.14</time>
   <time name="total">    0.15    0.15</time>
   <energy>
    <i name="alphaZ">     88.93127286 </i>
    <i name="ewald">   -967.09846497 </i>
    <i name="hartreedc">    -73.44132297 </i>
    <i name="XCdc">   -119.04715095 </i>
    <i name="pawpsdc">   2653.97538393 </i>
    <i name="pawaedc">  -2475.86588768 </i>
    <i name="eentropy">      0.00000000 </i>
    <i name="bandstr">    -54.66427444 </i>
    <i name="atom">    916.21663293 </i>
    <i name="e_fr_energy">    -30.99381129 </i>
    <i name="e_wo_entrp">    -30.99381129 </i>
    <i name="e_0_energy">    -30.99381129 </i>
   </energy>
  </scstep>
  <structure>
   <crystal>
    <varray name="basis" >
     <v>       5.35859940      -0.00000000      -0.00000000 </v>
     <v>      -0.00000000       5.35859940      -0.00000000 </v>
     <v>       0.00000000       0.00000000       5.35859940 </v>
    </varray>
    <i name="volume">    153.86997145 </i>
    <varray name="rec_basis" >
     <v>       0.18661593       0.00000000      -0.00000000 </v>
     <v>       0.00000000       0.18661593      -0.00000000 </v>
     <v>       0.00000000       0.00000000       0.18661593 </v>
    </varray>
   </crystal>
   <varray name="positions" >
    <v>       0.00000000       1.00000000       1.00000000 </v>
    <v>       0.50000000       0.50000000       0.00000000 </v>
    <v>       0.50000000       0.00000000       0.50000000 </v>
    <v>       1.00000000       0.50000000       0.50000000 </v>
    <v>       0.25000000       0.25000000       0.25000000 </v>
    <v>       0.75000000       0.25000000       0.75000000 </v>
    <v>       0.75000000       0.75000000       0.25000000 </v>
    <v>       0.25000000       0.75000000       0.75000000 </v>
   </varray>
  </structure>
  <varray name="forces" >
   <v>       0.00000000       0.00000000       0.00000000 </v>
   <v>       0.00000000      -0.00000000       0.00000000 </v>
   <v>       0.00000000       0.00000000       0.00000000 </v>
   <v>       0.00000000       0.00000000       0.00000000 </v>
   <v>      -0.00000000      -0.00000000      -0.00000000 </v>
   <v>      -0.00000000      -0.00000000      -0.00000000 </v>
   <v>      -0.00000000      -0.00000000      -0.00000000 </v>
   <v>      -0.00000000      -0.00000000      -0.00000000 </v>
  </varray>
  <varray name="stress" >
   <v>     225.17344593       0.00000000       0.00000000 </v>
   <v>      -0.00000000     225.17344593      -0.00000000 </v>
   <v>      -0.00000000      -0.00000000     225.17344593 </v>
  </varray>
  <energy>
   <i name="e_fr_energy">     -9.38525216 </i>
   <i name="e_wo_entrp">     -9.38525216 </i>
   <i name="e_0_energy">     -9.38525216 </i>
  </energy>
  <time name="totalsc">    1.12    1.19</time>
  <eigenvalues>
   <array>
    <dimension dim="1">band</dimension>
    <dimension dim="2">kpoint</dimension>
    <dimension dim="3">spin</dimension>
    <field>eigene</field>
    <field>occ</field>
    <set>
     <set comment="spin 1">
      <set comment="kpoint 1">
       <r>   -9.7815    1.0000 </r>
       <r>   -6.7284    1.0000 </r>
       <r>   -6.7284    1.0000 </r>
       <r>   -6.7284    1.0000 </r>
       <r>   -3.4027    1.0000 </r>
       <r>   -3.4027    1.0000 </r>
       <r>   -3.4027    1.0000 </r>
       <r>    0.9187    1.0000 </r>
       <r>    0.9187    1.0000 </r>
       <r>    0.9187    1.0000 </r>
       <r>    0.9187    1.0000 </r>
       <r>    0.9187    1.0000 </r>
       <r>    0.9187    1.0000 </r>
       <r>    4.2126    1.0000 </r>
       <r>    4.2126    1.0000 </r>
       <r>    4.2126    1.0000 </r>
       <r>    5.3223    0.0000 </r>
       <r>    5.3223    0.0000 </r>
       <r>    5.3223    0.0000 </r>
       <r>    5.7459    0.0000 </r>
       <r>    5.7459    0.0000 </r>
       <r>    5.7459    0.0000 </r>
       <r>    6.0776    0.0000 </r>
       <r>    7.9990    0.0000 </r>
      </set>
      <set comment="kpoint 2">
       <r>   -9.6071    1.0000 </r>
       <r>   -7.3079    1.0000 </r>
       <r>   -6.7012    1.0000 </r>
       <r>   -6.7012    1.0000 </r>
       <r>   -3.3143    1.0000 </r>
       <r>   -3.3143    1.0000 </r>
       <r>   -2.5905    1.0000 </r>
       <r>    0.4944    1.0000 </r>
       <r>    0.4944    1.0000 </r>
       <r>    0.5641    1.0000 </r>
       <r>    0.5641    1.0000 </r>
       <r>    1.1133    1.0000 </r>
       <r>    1.1133    1.0000 </r>
       <r>    2.8691    1.0000 </r>
       <r>    3.6137    1.0000 </r>
       <r>    3.6137    1.0000 </r>
       <r>    5.3645    0.0000 </r>
       <r>    6.1941    0.0000 </r>
       <r>    6.2007    0.0000 </r>
       <r>    6.2007    0.0000 </r>
       <r>    6.6356    0.0000 </r>
       <r>    6.6356    0.0000 </r>
       <r>    7.2565    0.0000 </r>
       <r>    7.5312    0.0000 </r>
      </set>
      <set comment="kpoint 3">
       <r>   -9.0935    1.0000 </r>
       <r>   -8.2814    1.0000 </r>
       <r>   -6.6559    1.0000 </r>
       <r>   -6.6559    1.0000 </r>
       <r>   -3.1472    1.0000 </r>
       <r>   -3.1472    1.0000 </r>
       <r>   -0.9401    1.0000 </r>
       <r>   -0.0932    1.0000 </r>
       <r>   -0.0932    1.0000 </r>
       <r>    0.1104    1.0000 </r>
       <r>    0.1104    1.0000 </r>
       <r>    0.9459    1.0000 </r>
       <r>    1.6828    1.0000 </r>
       <r>    1.6828    1.0000 </r>
       <r>    2.5719    1.0000 </r>
       <r>    2.5719    1.0000 </r>
       <r>    5.7318    0.0000 </r>
       <r>    6.4650    0.0000 </r>
       <r>    7.2349    0.0000 </r>
       <r>    8.1907    0.0000 </r>
       <r>    8.1907    0.0000 </r>
       <r>    8.2416    0.0000 </r>
       <r>    8.6699    0.0000 </r>
       <r>    8.6699    0.0000 </r>
      </set>
      <set comment="kpoint 4">
       <r>   -9.4359    1.0000 </r>
       <r>   -7.2270    1.0000 </r>
       <r>   -7.2270    1.0000 </r>
       <r>   -6.7256    1.0000 </r>
       <r>   -3.2312    1.0000 </r>
       <r>   -2.6389    1.0000 </r>
       <r>   -2.6389    1.0000 </r>
       <r>   -0.3188    1.0000 </r>
       <r>    0.5914    1.0000 </r>
       <r>    0.5914    1.0000 </r>
       <r>    0.9534    1.0000 </r>
       <r>    0.9534    1.0000 </r>
       <r>    1.2464    1.0000 </r>
       <r>    1.6962    1.0000 </r>
       <r>    2.9951    1.0000 </r>
       <r>    4.0061    1.0000 </r>
       <r>    5.8422    0.0000 </r>
       <r>    6.2967    0.0000 </r>
       <r>    6.2967    0.0000 </r>
       <r>    6.9930    0.0000 </r>
       <r>    6.9930    0.0000 </r>
       <r>    7.1806    0.0000 </r>
       <r>    8.1484    0.0000 </r>
       <r>    8.3232    0.0000 </r>
      </set>
      <set comment="kpoint 5">
       <r>   -8.9341    1.0000 </r>
       <r>   -8.1481    1.0000 </r>
       <r>   -7.0295    1.0000 </r>
       <r>   -6.8309    1.0000 </r>
       <r>   -3.0308    1.0000 </r>
       <r>   -2.8020    1.0000 </r>
       <r>   -1.2958    1.0000 </r>
       <r>   -0.6183    1.0000 </r>
       <r>   -0.2227    1.0000 </r>
       <r>    0.1807    1.0000 </r>
       <r>    0.8899    1.0000 </r>
       <r>    1.0920    1.0000 </r>
       <r>    1.1636    1.0000 </r>
       <r>    1.8685    1.0000 </r>
       <r>    1.9497    1.0000 </r>
       <r>    3.1115    1.0000 </r>
       <r>    6.7005    0.0000 </r>
       <r>    7.0376    0.0000 </r>
       <r>    7.4049    0.0000 </r>
       <r>    7.8618    0.0000 </r>
       <r>    8.1179    0.0000 </r>
       <r>    8.2985    0.0000 </r>
       <r>    8.8921    0.0000 </r>
       <r>    9.5334    0.0000 </r>
      </set>
      <set comment="kpoint 6">
       <r>   -8.4732    1.0000 </r>
       <r>   -7.7780    1.0000 </r>
       <r>   -7.7780    1.0000 </r>
       <r>   -7.2745    1.0000 </r>
       <r>   -2.6499    1.0000 </r>
       <r>   -2.0107    1.0000 </r>
       <r>   -2.0107    1.0000 </r>
       <r>   -0.9803    1.0000 </r>
       <r>   -0.5263    1.0000 </r>
       <r>    0.1341    1.0000 </r>
       <r>    0.1341    1.0000 </r>
       <r>    0.9250    1.0000 </r>
       <r>    2.1355    1.0000 </r>
       <r>    2.2055    1.0000 </r>
       <r>    2.2055    1.0000 </r>
       <r>    3.2455    1.0000 </r>
       <r>    6.7541    0.0000 </r>
       <r>    7.5608    0.0000 </r>
       <r>    8.0076    0.0000 </r>
       <r>    8.0076    0.0000 </r>
       <r>    8.8937    0.0000 </r>
       <r>    8.8937    0.0000 </r>
       <r>    9.4140    0.0000 </r>
       <r>    9.5694    0.0000 </r>
      </set>
      <set comment="kpoint 7">
       <r>   -9.2690    1.0000 </r>
       <r>   -7.1812    1.0000 </r>
       <r>   -7.1812    1.0000 </r>
       <r>   -7.1812    1.0000 </r>
       <r>   -2.7620    1.0000 </r>
       <r>   -2.7620    1.0000 </r>
       <r>   -2.7620    1.0000 </r>
       <r>    0.1092    1.0000 </r>
       <r>    0.1092    1.0000 </r>
       <r>    0.1092    1.0000 </r>
       <r>    0.6731    1.0000 </r>
       <r>    1.4256    1.0000 </r>
       <r>    1.4256    1.0000 </r>
       <r>    1.4256    1.0000 </r>
       <r>    3.5761    1.0000 </r>
       <r>    3.5761    1.0000 </r>
       <r>    6.0617    0.0000 </r>
       <r>    6.0617    0.0000 </r>
       <r>    6.0617    0.0000 </r>
       <r>    6.4562    0.0000 </r>
       <r>    8.3622    0.0000 </r>
       <r>    8.3622    0.0000 </r>
       <r>    8.3622    0.0000 </r>
       <r>    8.8274    0.0000 </r>
      </set>
      <set comment="kpoint 8">
       <r>   -8.7822    1.0000 </r>
       <r>   -8.0308    1.0000 </r>
       <r>   -7.1023    1.0000 </r>
       <r>   -7.1023    1.0000 </r>
       <r>   -2.9851    1.0000 </r>
       <r>   -2.9851    1.0000 </r>
       <r>   -1.8091    1.0000 </r>
       <r>   -0.6571    1.0000 </r>
       <r>   -0.0729    1.0000 </r>
       <r>   -0.0729    1.0000 </r>
       <r>    1.2738    1.0000 </r>
       <r>    1.4395    1.0000 </r>
       <r>    1.4395    1.0000 </r>
       <r>    1.9435    1.0000 </r>
       <r>    2.7263    1.0000 </r>
       <r>    2.7587    1.0000 </r>
       <r>    6.6493    0.0000 </r>
       <r>    6.9646    0.0000 </r>
       <r>    7.2258    0.0000 </r>
       <r>    7.2258    0.0000 </r>
       <r>    8.4223    0.0000 </r>
       <r>    8.8488    0.0000 </r>
       <r>    9.4167    0.0000 </r>
       <r>    9.4167    0.0000 </r>
      </set>
      <set comment="kpoint 9">
       <r>   -8.3491    1.0000 </r>
       <r>   -7.7206    1.0000 </r>
       <r>   -7.7206    1.0000 </r>
       <r>   -7.3512    1.0000 </r>
       <r>   -3.0444    1.0000 </r>
       <r>   -2.6003    1.0000 </r>
       <r>   -2.6003    1.0000 </r>
       <r>   -1.7822    1.0000 </r>
       <r>    0.3623    1.0000 </r>
       <r>    0.9459    1.0000 </r>
       <r>    0.9459    1.0000 </r>
       <r>    1.9085    1.0000 </r>
       <r>    2.2479    1.0000 </r>
       <r>    2.2929    1.0000 </r>
       <r>    2.2929    1.0000 </r>
       <r>    3.1589    1.0000 </r>
       <r>    6.7881    0.0000 </r>
       <r>    6.8707    0.0000 </r>
       <r>    7.4352    0.0000 </r>
       <r>    7.4352    0.0000 </r>
       <r>    8.4347    0.0000 </r>
       <r>    8.4347    0.0000 </r>
       <r>    9.0660    0.0000 </r>
       <r>    9.1108    0.0000 </r>
      </set>
      <set comment="kpoint 10">
       <r>   -8.0181    1.0000 </r>
       <r>   -7.6195    1.0000 </r>
       <r>   -7.6195    1.0000 </r>
       <r>   -7.6195    1.0000 </r>
       <r>   -3.2344    1.0000 </r>
       <r>   -3.2344    1.0000 </r>
       <r>   -3.2344    1.0000 </r>
       <r>   -2.7578    1.0000 </r>
       <r>    1.9456    1.0000 </r>
       <r>    1.9456    1.0000 </r>
       <r>    1.9456    1.0000 </r>
       <r>    2.5436    1.0000 </r>
       <r>    2.5436    1.0000 </r>
       <r>    2.5436    1.0000 </r>
       <r>    2.8996    1.0000 </r>
       <r>    2.8996    1.0000 </r>
       <r>    5.8334    0.0000 </r>
       <r>    6.5654    0.0000 </r>
       <r>    6.5654    0.0000 </r>
       <r>    6.5654    0.0000 </r>
       <r>    8.5883    0.0000 </r>
       <r>    8.5883    0.0000 </r>
       <r>    8.5883    0.0000 </r>
       <r>    8.9600    0.0000 </r>
      </set>
     </set>
    </set>
   </array>
  </eigenvalues>
  <separator name="orbital magnetization" >
   <v name="MAGDIPOLOUT">      0.00000000      0.00000000      0.00000000</v>
  </separator>
  <dos>
   <i name="efermi">      4.23750971 </i>
   <total>
    <array>
     <dimension dim="1">gridpoints</dimension>
     <dimension dim="2">spin</dimension>
     <field>energy</field>
     <field>total</field>
     <field>integrated</field>
     <set>
      <set comment="spin 1">
       <r>   -10.7815     0.0000     0.0000 </r>
       <r>   -10.7104     0.0000     0.0000 </r>
       <r>   -10.6392     0.0000     0.0000 </r>
       <r>   -10.5680     0.0000     0.0000 </r>
       <r>   -10.4969     0.0000     0.0000 </r>
       <r>   -10.4257     0.0000     0.0000 </r>
       <r>   -10.3545     0.0000     0.0000 </r>
       <r>   -10.2834     0.0000     0.0000 </r>
       <r>   -10.2122     0.0000     0.0000 </r>
       <r>   -10.1410     0.0000     0.0000 </r>
       <r>   -10.0698     0.0000     0.0000 </r>
       <r>    -9.9987     0.0000     0.0000 </r>
       <r>    -9.9275     0.0000     0.0000 </r>
       <r>    -9.8563     0.0000     0.0000 </r>
       <r>    -9.7852     0.0000     0.0000 </r>
       <r>    -9.7140     0.0558     0.0013 </r>
       <r>    -9.6428     0.2354     0.0109 </r>
       <r>    -9.5717     0.5124     0.0374 </r>
       <r>    -9.5005     0.6992     0.0813 </r>
       <r>    -9.4293     0.7600     0.1339 </r>
       <r>    -9.3581     0.7905     0.1888 </r>
       <r>    -9.2870     0.8696     0.2476 </r>
       <r>    -9.2158     0.9856     0.3136 </r>
       <r>    -9.1446     1.1097     0.3881 </r>
       <r>    -9.0735     1.3875     0.4732 </r>
       <r>    -9.0023     1.9465     0.5927 </r>
       <r>    -8.9311     2.3556     0.7467 </r>
       <r>    -8.8600     2.0067     0.9016 </r>
       <r>    -8.7888     1.7189     1.0338 </r>
       <r>    -8.7176     1.6879     1.1544 </r>
       <r>    -8.6464     1.6638     1.2737 </r>
       <r>    -8.5753     1.6232     1.3908 </r>
       <r>    -8.5041     1.5658     1.5044 </r>
       <r>    -8.4329     1.9952     1.6389 </r>
       <r>    -8.3618     1.4889     1.7625 </r>
       <r>    -8.2906     0.8434     1.8345 </r>
       <r>    -8.2194     1.4155     1.9109 </r>
       <r>    -8.1483     2.2263     2.0397 </r>
       <r>    -8.0771     2.5227     2.2129 </r>
       <r>    -8.0059     2.6165     2.4093 </r>
       <r>    -7.9347     2.6894     2.5904 </r>
       <r>    -7.8636     2.9388     2.7909 </r>
       <r>    -7.7924     3.1400     3.0075 </r>
       <r>    -7.7212     6.0735     3.4103 </r>
       <r>    -7.6501     4.9102     3.8118 </r>
       <r>    -7.5789     3.5123     4.1137 </r>
       <r>    -7.5077     3.0307     4.3223 </r>
       <r>    -7.4366     3.2611     4.5460 </r>
       <r>    -7.3654     3.5290     4.7874 </r>
       <r>    -7.2942     5.9037     5.1246 </r>
       <r>    -7.2230     5.5058     5.5375 </r>
       <r>    -7.1519     6.0656     5.9421 </r>
       <r>    -7.0807     6.2063     6.3888 </r>
       <r>    -7.0095     4.4437     6.7814 </r>
       <r>    -6.9384     4.1357     7.0866 </r>
       <r>    -6.8672     3.8412     7.3704 </r>
       <r>    -6.7960     3.5675     7.6370 </r>
       <r>    -6.7249     3.7581     7.8729 </r>
       <r>    -6.6537     0.0000     8.0000 </r>
       <r>    -6.5825     0.0000     8.0000 </r>
       <r>    -6.5114     0.0000     8.0000 </r>
       <r>    -6.4402     0.0000     8.0000 </r>
       <r>    -6.3690     0.0000     8.0000 </r>
       <r>    -6.2978     0.0000     8.0000 </r>
       <r>    -6.2267     0.0000     8.0000 </r>
       <r>    -6.1555     0.0000     8.0000 </r>
       <r>    -6.0843     0.0000     8.0000 </r>
       <r>    -6.0132     0.0000     8.0000 </r>
       <r>    -5.9420     0.0000     8.0000 </r>
       <r>    -5.8708     0.0000     8.0000 </r>
       <r>    -5.7997     0.0000     8.0000 </r>
       <r>    -5.7285     0.0000     8.0000 </r>
       <r>    -5.6573     0.0000     8.0000 </r>
       <r>    -5.5861     0.0000     8.0000 </r>
       <r>    -5.5150     0.0000     8.0000 </r>
       <r>    -5.4438     0.0000     8.0000 </r>
       <r>    -5.3726     0.0000     8.0000 </r>
       <r>    -5.3015     0.0000     8.0000 </r>
       <r>    -5.2303     0.0000     8.0000 </r>
       <r>    -5.1591     0.0000     8.0000 </r>
       <r>    -5.0880     0.0000     8.0000 </r>
       <r>    -5.0168     0.0000     8.0000 </r>
       <r>    -4.9456     0.0000     8.0000 </r>
       <r>    -4.8744     0.0000     8.0000 </r>
       <r>    -4.8033     0.0000     8.0000 </r>
       <r>    -4.7321     0.0000     8.0000 </r>
       <r>    -4.6609     0.0000     8.0000 </r>
       <r>    -4.5898     0.0000     8.0000 </r>
       <r>    -4.5186     0.0000     8.0000 </r>
       <r>    -4.4474     0.0000     8.0000 </r>
       <r>    -4.3763     0.0000     8.0000 </r>
       <r>    -4.3051     0.0000     8.0000 </r>
       <r>    -4.2339     0.0000     8.0000 </r>
       <r>    -4.1627     0.0000     8.0000 </r>
       <r>    -4.0916     0.0000     8.0000 </r>
       <r>    -4.0204     0.0000     8.0000 </r>
       <r>    -3.9492     0.0000     8.0000 </r>
       <r>    -3.8781     0.0000     8.0000 </r>
       <r>    -3.8069     0.0000     8.0000 </r>
       <r>    -3.7357     0.0000     8.0000 </r>
       <r>    -3.6646     0.0000     8.0000 </r>
       <r>    -3.5934     0.0000     8.0000 </r>
       <r>    -3.5222     0.0000     8.0000 </r>
       <r>    -3.4511     0.0000     8.0000 </r>
       <r>    -3.3799     0.0523     8.0004 </r>
       <r>    -3.3087     0.8724     8.0277 </r>
       <r>    -3.2375     1.3331     8.1136 </r>
       <r>    -3.1664     4.2132     8.3548 </r>
       <r>    -3.0952     6.4880     8.7009 </r>
       <r>    -3.0240    14.6324     9.3540 </r>
       <r>    -2.9529     6.9823    10.0165 </r>
       <r>    -2.8817     7.0544    10.5155 </r>
       <r>    -2.8105     7.2062    11.0225 </r>
       <r>    -2.7394     5.5101    11.4649 </r>
       <r>    -2.6682     4.1272    11.7981 </r>
       <r>    -2.5970     2.8696    12.0703 </r>
       <r>    -2.5258     2.3070    12.2384 </r>
       <r>    -2.4547     2.2480    12.4005 </r>
       <r>    -2.3835     2.1922    12.5585 </r>
       <r>    -2.3123     2.1397    12.7126 </r>
       <r>    -2.2412     2.0905    12.8631 </r>
       <r>    -2.1700     2.0445    13.0102 </r>
       <r>    -2.0988     2.0018    13.1542 </r>
       <r>    -2.0277     1.9624    13.2952 </r>
       <r>    -1.9565     1.6124    13.4163 </r>
       <r>    -1.8853     1.5887    13.5302 </r>
       <r>    -1.8141     1.5612    13.6423 </r>
       <r>    -1.7430     1.5249    13.7521 </r>
       <r>    -1.6718     1.4817    13.8591 </r>
       <r>    -1.6006     1.4357    13.9630 </r>
       <r>    -1.5295     1.3869    14.0634 </r>
       <r>    -1.4583     1.3352    14.1603 </r>
       <r>    -1.3871     1.2807    14.2534 </r>
       <r>    -1.3160     1.2233    14.3425 </r>
       <r>    -1.2448     1.2254    14.4311 </r>
       <r>    -1.1736     1.1475    14.5155 </r>
       <r>    -1.1024     1.0825    14.5948 </r>
       <r>    -1.0313     1.0305    14.6699 </r>
       <r>    -0.9601     0.8773    14.7394 </r>
       <r>    -0.8889     0.9483    14.8035 </r>
       <r>    -0.8178     1.0656    14.8751 </r>
       <r>    -0.7466     1.2012    14.9557 </r>
       <r>    -0.6754     1.3550    15.0465 </r>
       <r>    -0.6043     2.2619    15.1954 </r>
       <r>    -0.5331     1.4645    15.3039 </r>
       <r>    -0.4619     1.6560    15.4171 </r>
       <r>    -0.3908     1.8286    15.5406 </r>
       <r>    -0.3196     2.0731    15.6790 </r>
       <r>    -0.2484     2.2750    15.8335 </r>
       <r>    -0.1772     3.8494    16.0651 </r>
       <r>    -0.1061     4.2946    16.3530 </r>
       <r>    -0.0349     3.6926    16.6164 </r>
       <r>     0.0363     4.8915    16.9201 </r>
       <r>     0.1074     6.3834    17.3196 </r>
       <r>     0.1786     6.8065    17.8067 </r>
       <r>     0.2498     4.6867    18.1567 </r>
       <r>     0.3209     4.3274    18.4774 </r>
       <r>     0.3921     3.8143    18.7673 </r>
       <r>     0.4633     3.6148    19.0313 </r>
       <r>     0.5345     4.0205    19.2970 </r>
       <r>     0.6056     3.5677    19.5894 </r>
       <r>     0.6768     3.2518    19.8153 </r>
       <r>     0.7480     3.4353    20.0534 </r>
       <r>     0.8191     3.5889    20.3035 </r>
       <r>     0.8903     3.8454    20.5636 </r>
       <r>     0.9615     4.9576    20.8599 </r>
       <r>     1.0326     7.3845    21.3148 </r>
       <r>     1.1038     6.6478    21.8426 </r>
       <r>     1.1750     7.0529    22.2978 </r>
       <r>     1.2462     6.8536    22.8122 </r>
       <r>     1.3173     5.8448    23.2593 </r>
       <r>     1.3885     4.9927    23.6455 </r>
       <r>     1.4597     3.9073    23.9626 </r>
       <r>     1.5308     3.4956    24.2244 </r>
       <r>     1.6020     3.3598    24.4667 </r>
       <r>     1.6732     3.5001    24.7092 </r>
       <r>     1.7443     4.2574    24.9843 </r>
       <r>     1.8155     4.9355    25.3121 </r>
       <r>     1.8867     5.6512    25.6922 </r>
       <r>     1.9579     5.2419    26.0912 </r>
       <r>     2.0290     4.7721    26.4236 </r>
       <r>     2.1002     4.9620    26.7701 </r>
       <r>     2.1714     5.8549    27.1577 </r>
       <r>     2.2425     7.2941    27.6401 </r>
       <r>     2.3137     4.7814    28.0717 </r>
       <r>     2.3849     4.2689    28.3937 </r>
       <r>     2.4560     3.7640    28.6795 </r>
       <r>     2.5272     3.2667    28.9297 </r>
       <r>     2.5984     2.8657    29.1531 </r>
       <r>     2.6696     2.0434    29.3040 </r>
       <r>     2.7407     1.8968    29.4434 </r>
       <r>     2.8119     2.3846    29.5911 </r>
       <r>     2.8831     3.0765    29.7852 </r>
       <r>     2.9542     4.3318    30.0702 </r>
       <r>     3.0254     4.3567    30.3637 </r>
       <r>     3.0966     4.7363    30.6880 </r>
       <r>     3.1677     4.8079    31.0230 </r>
       <r>     3.2389     2.8655    31.2956 </r>
       <r>     3.3101     1.4240    31.4109 </r>
       <r>     3.3812     1.2554    31.5062 </r>
       <r>     3.4524     1.0924    31.5897 </r>
       <r>     3.5236     0.9351    31.6618 </r>
       <r>     3.5948     0.7899    31.7230 </r>
       <r>     3.6659     0.8214    31.7795 </r>
       <r>     3.7371     0.8233    31.8385 </r>
       <r>     3.8083     0.7474    31.8949 </r>
       <r>     3.8794     0.5935    31.9430 </r>
       <r>     3.9506     0.3618    31.9775 </r>
       <r>     4.0218     0.1083    31.9931 </r>
       <r>     4.0929     0.0426    31.9983 </r>
       <r>     4.1641     0.0070    31.9999 </r>
       <r>     4.2353     0.0000    32.0000 </r>
       <r>     4.3065     0.0000    32.0000 </r>
       <r>     4.3776     0.0000    32.0000 </r>
       <r>     4.4488     0.0000    32.0000 </r>
       <r>     4.5200     0.0000    32.0000 </r>
       <r>     4.5911     0.0000    32.0000 </r>
       <r>     4.6623     0.0000    32.0000 </r>
       <r>     4.7335     0.0000    32.0000 </r>
       <r>     4.8046     0.0000    32.0000 </r>
       <r>     4.8758     0.0000    32.0000 </r>
       <r>     4.9470     0.0000    32.0000 </r>
       <r>     5.0182     0.0000    32.0000 </r>
       <r>     5.0893     0.0000    32.0000 </r>
       <r>     5.1605     0.0000    32.0000 </r>
       <r>     5.2317     0.0000    32.0000 </r>
       <r>     5.3028     0.0000    32.0000 </r>
       <r>     5.3740     0.2022    32.0047 </r>
       <r>     5.4452     0.2543    32.0208 </r>
       <r>     5.5163     0.3197    32.0412 </r>
       <r>     5.5875     0.3982    32.0666 </r>
       <r>     5.6587     0.4900    32.0982 </r>
       <r>     5.7299     0.5949    32.1367 </r>
       <r>     5.8010     0.7092    32.1833 </r>
       <r>     5.8722     1.1198    32.2568 </r>
       <r>     5.9434     1.0089    32.3242 </r>
       <r>     6.0145     1.1725    32.4016 </r>
       <r>     6.0857     1.4078    32.4925 </r>
       <r>     6.1569     1.9936    32.6109 </r>
       <r>     6.2280     3.5693    32.7976 </r>
       <r>     6.2992     2.6711    33.0442 </r>
       <r>     6.3704     2.9048    33.2425 </r>
       <r>     6.4415     3.1627    33.4583 </r>
       <r>     6.5127     3.4873    33.6943 </r>
       <r>     6.5839     5.1155    34.0135 </r>
       <r>     6.6551     5.8737    34.3537 </r>
       <r>     6.7262    10.1437    35.0407 </r>
       <r>     6.7974     5.7575    35.7050 </r>
       <r>     6.8686     4.9361    36.0377 </r>
       <r>     6.9397     6.1557    36.4587 </r>
       <r>     7.0109     5.6206    36.8784 </r>
       <r>     7.0821     4.1011    37.2106 </r>
       <r>     7.1532     4.0823    37.5018 </r>
       <r>     7.2244     4.0863    37.7922 </r>
       <r>     7.2956     6.4688    38.2038 </r>
       <r>     7.3668     7.0667    38.6897 </r>
       <r>     7.4379     4.1379    39.1408 </r>
       <r>     7.5091     3.8705    39.4256 </r>
       <r>     7.5803     3.5566    39.6908 </r>
       <r>     7.6514     3.4878    39.9415 </r>
       <r>     7.7226     3.4184    40.1872 </r>
       <r>     7.7938     3.3485    40.4280 </r>
       <r>     7.8649     3.3917    40.6643 </r>
       <r>     7.9361     2.7786    40.8831 </r>
       <r>     8.0073     2.2857    41.0626 </r>
       <r>     8.0785     1.9397    41.2010 </r>
       <r>     8.1496     3.3139    41.3866 </r>
       <r>     8.2208     3.1968    41.6120 </r>
       <r>     8.2920     5.1599    41.8922 </r>
       <r>     8.3631     4.3662    42.1938 </r>
       <r>     8.4343    14.2580    42.6435 </r>
       <r>     8.5055     8.0217    43.2696 </r>
       <r>     8.5766     6.6200    43.7899 </r>
       <r>     8.6478     5.6022    44.2199 </r>
       <r>     8.7190     4.5469    44.5555 </r>
       <r>     8.7902     4.1724    44.8662 </r>
       <r>     8.8613     3.6051    45.1469 </r>
       <r>     8.9325     2.7453    45.3561 </r>
       <r>     9.0037     4.4795    45.6219 </r>
       <r>     9.0748     5.4498    45.9649 </r>
       <r>     9.1460     5.0258    46.3435 </r>
       <r>     9.2172     4.9341    46.6988 </r>
       <r>     9.2883     4.6901    47.0422 </r>
       <r>     9.3595     4.2937    47.3628 </r>
       <r>     9.4307     2.7310    47.6324 </r>
       <r>     9.5018     3.2642    47.8432 </r>
       <r>     9.5730     0.0000    48.0000 </r>
       <r>     9.6442     0.0000    48.0000 </r>
       <r>     9.7154     0.0000    48.0000 </r>
       <r>     9.7865     0.0000    48.0000 </r>
       <r>     9.8577     0.0000    48.0000 </r>
       <r>     9.9289     0.0000    48.0000 </r>
       <r>    10.0000     0.0000    48.0000 </r>
       <r>    10.0712     0.0000    48.0000 </r>
       <r>    10.1424     0.0000    48.0000 </r>
       <r>    10.2135     0.0000    48.0000 </r>
       <r>    10.2847     0.0000    48.0000 </r>
       <r>    10.3559     0.0000    48.0000 </r>
       <r>    10.4271     0.0000    48.0000 </r>
       <r>    10.4982     0.0000    48.0000 </r>
       <r>    10.5694     0.0000    48.0000 </r>
      </set>
     </set>
    </array>
   </total>
  </dos>
 </calculation>
 <structure name="finalpos" >
  <crystal>
   <varray name="basis" >
    <v>       5.35859940      -0.00000000      -0.00000000 </v>
    <v>      -0.00000000       5.35859940      -0.00000000 </v>
    <v>       0.00000000       0.00000000       5.35859940 </v>
   </varray>
   <i name="volume">    153.86997145 </i>
   <varray name="rec_basis" >
    <v>       0.18661593       0.00000000      -0.00000000 </v>
    <v>       0.00000000       0.18661593      -0.00000000 </v>
    <v>       0.00000000       0.00000000       0.18661593 </v>
   </varray>
  </crystal>
  <varray name="positions" >
   <v>       0.00000000       1.00000000       1.00000000 </v>
   <v>       0.50000000       0.50000000       0.00000000 </v>
   <v>       0.50000000       0.00000000       0.50000000 </v>
   <v>       1.00000000       0.50000000       0.50000000 </v>
   <v>       0.25000000       0.25000000       0.25000000 </v>
   <v>       0.75000000       0.25000000       0.75000000 </v>
   <v>       0.75000000       0.75000000       0.25000000 </v>
   <v>       0.25000000       0.75000000       0.75000000 </v>
  </varray>
 </structure>
</modeling>
