 vasp.6.4.3 19Mar24 (build Aug 29 2024 15:27:20) complex                        
  
 executed on             LinuxIFC date 2025.03.19  11:11:05
 running    8 mpi-ranks, on    1 nodes
 distrk:  each k-point on    8 cores,    1 groups
 distr:  one band on NCORE=   1 cores,    8 groups


--------------------------------------------------------------------------------------------------------


 INCAR:
   SYSTEM = GaAs
   PREC = Normal
   ENCUT = 500
   ISMEAR = -5
   SIGMA = 0.1
   IBRION = 2
   LOPTICS = .TRUE.

 POTCAR:    PAW_PBE As 22Sep2009                  
 POTCAR:    PAW_PBE Ga 08Apr2002                  
 -----------------------------------------------------------------------------
|                                                                             |
|           W    W    AA    RRRRR   N    N  II  N    N   GGGG   !!!           |
|           W    W   A  A   R    R  NN   N  II  NN   N  G    G  !!!           |
|           W    W  A    A  R    R  N N  N  II  N N  N  G       !!!           |
|           W WW W  AAAAAA  RRRRR   N  N N  II  N  N N  G  GGG   !            |
|           WW  WW  A    A  R   R   N   NN  II  N   NN  G    G                |
|           W    W  A    A  R    R  N    N  II  N    N   GGGG   !!!           |
|                                                                             |
|     For optimal performance we recommend to set                             |
|       NCORE = 2 up to number-of-cores-per-socket                            |
|     NCORE specifies how many cores store one orbital (NPAR=cpu/NCORE).      |
|     This setting can greatly improve the performance of VASP for DFT.       |
|     The default, NCORE=1 might be grossly inefficient on modern             |
|     multi-core architectures or massively parallel machines. Do your        |
|     own testing! More info at https://www.vasp.at/wiki/index.php/NCORE      |
|     Unfortunately you need to use the default for GW and RPA                |
|     calculations (for HF NCORE is supported but not extensively tested      |
|     yet).                                                                   |
|                                                                             |
 -----------------------------------------------------------------------------

 POTCAR:    PAW_PBE As 22Sep2009                  
   VRHFIN =As: s2p3                                                                                 
   LEXCH  = PE                                                                                      
   EATOM  =   170.1867 eV,   12.5084 Ry                                                             
                                                                                                    
   TITEL  = PAW_PBE As 22Sep2009                                                                    
   LULTRA =        F    use ultrasoft PP ?                                                          
   IUNSCR =        1    unscreen: 0-lin 1-nonlin 2-no                                               
   RPACOR =    1.900    partial core radius                                                         
   POMASS =   74.922; ZVAL   =    5.000    mass and valenz                                          
   RCORE  =    2.100    outmost cutoff radius                                                       
   RWIGS  =    2.300; RWIGS  =    1.217    wigner-seitz radius (au A)                               
   ENMAX  =  208.702; ENMIN  =  156.526 eV                                                          
   ICORE  =        3    local potential                                                             
   LCOR   =        T    correct aug charges                                                         
   LPAW   =        T    paw PP                                                                      
   EAUG   =  462.758                                                                                
   DEXC   =    0.000                                                                                
   RMAX   =    2.144    core radius for proj-oper                                                   
   RAUG   =    1.300    factor for augmentation sphere                                              
   RDEP   =    2.140    radius for radial grids                                                     
   RDEPT  =    1.956    core radius for aug-charge                                                  
                                                                                                    
   Atomic configuration                                                                             
   10 entries                                                                                       
     n  l   j            E        occ.                                                              
     1  0  0.50    -11718.0418   2.0000                                                             
     2  0  0.50     -1486.5454   2.0000                                                             
     2  1  1.50     -1303.3889   6.0000                                                             
     3  0  0.50      -190.2849   2.0000                                                             
     3  1  1.50      -133.6555   6.0000                                                             
     3  2  2.50       -40.6443  10.0000                                                             
     4  0  0.50       -14.4936   2.0000                                                             
     4  1  0.50        -5.1947   3.0000                                                             
     4  2  1.50        -5.4423   0.0000                                                             
     4  3  2.50        -5.4423   0.0000                                                             
   Description                                                                                      
     l       E           TYP  RCUT    TYP  RCUT                                                     
     0    -14.4935570     23  2.100                                                                 
     0    -11.9212055     23  2.100                                                                 
     1     -5.1947127     23  2.100                                                                 
     1     27.2116520     23  2.100                                                                 
     2     -5.4423304     23  2.100                                                                 
     3     -1.3605826      7  2.100                                                                 
  local pseudopotential read in
  partial core-charges read in
  partial kinetic energy density read in
  atomic valenz-charges read in
  non local Contribution for L=           0  read in
    real space projection operators read in
  non local Contribution for L=           0  read in
    real space projection operators read in
  non local Contribution for L=           1  read in
    real space projection operators read in
  non local Contribution for L=           1  read in
    real space projection operators read in
  non local Contribution for L=           2  read in
    real space projection operators read in
    PAW grid and wavefunctions read in
 
   number of l-projection  operators is LMAX  =           5
   number of lm-projection operators is LMMAX =          13
 
 POTCAR:    PAW_PBE Ga 08Apr2002                  
   VRHFIN =Ga: s2p1                                                                                 
   LEXCH  = PE                                                                                      
   EATOM  =    58.8688 eV,    4.3267 Ry                                                             
                                                                                                    
   TITEL  = PAW_PBE Ga 08Apr2002                                                                    
   LULTRA =        F    use ultrasoft PP ?                                                          
   IUNSCR =        1    unscreen: 0-lin 1-nonlin 2-no                                               
   RPACOR =    2.170    partial core radius                                                         
   POMASS =   69.723; ZVAL   =    3.000    mass and valenz                                          
   RCORE  =    2.600    outmost cutoff radius                                                       
   RWIGS  =    2.650; RWIGS  =    1.402    wigner-seitz radius (au A)                               
   ENMAX  =  134.678; ENMIN  =  101.009 eV                                                          
   ICORE  =        3    local potential                                                             
   LCOR   =        T    correct aug charges                                                         
   LPAW   =        T    paw PP                                                                      
   EAUG   =  320.264                                                                                
   DEXC   =    0.000                                                                                
   RMAX   =    2.658    core radius for proj-oper                                                   
   RAUG   =    1.300    factor for augmentation sphere                                              
   RDEP   =    2.684    radius for radial grids                                                     
   RDEPT  =    2.308    core radius for aug-charge                                                  
                                                                                                    
   Atomic configuration                                                                             
   10 entries                                                                                       
     n  l   j            E        occ.                                                              
     1  0  0.50    -10228.7830   2.0000                                                             
     2  0  0.50     -1262.1604   2.0000                                                             
     2  1  1.50     -1098.6333   6.0000                                                             
     3  0  0.50      -148.1110   2.0000                                                             
     3  1  1.50       -98.8436   6.0000                                                             
     3  2  2.50       -19.1549  10.0000                                                             
     4  0  0.50        -8.9483   2.0000                                                             
     4  1  0.50        -2.5791   1.0000                                                             
     4  2  1.50         5.4423   0.0000                                                             
     4  3  2.50        -2.7416   0.0000                                                             
   Description                                                                                      
     l       E           TYP  RCUT    TYP  RCUT                                                     
     0     -8.9483097     23  2.600                                                                 
     0     -5.8232215     23  2.600                                                                 
     1     -2.5790793     23  2.600                                                                 
     1      5.2230115     23  2.600                                                                 
     2      1.3605826     23  2.600                                                                 
     3     -1.3605826      7  2.600                                                                 
  local pseudopotential read in
  partial core-charges read in
  partial kinetic energy density read in
  atomic valenz-charges read in
  non local Contribution for L=           0  read in
    real space projection operators read in
  non local Contribution for L=           0  read in
    real space projection operators read in
  non local Contribution for L=           1  read in
    real space projection operators read in
  non local Contribution for L=           1  read in
    real space projection operators read in
  non local Contribution for L=           2  read in
    real space projection operators read in
    PAW grid and wavefunctions read in
 
   number of l-projection  operators is LMAX  =           5
   number of lm-projection operators is LMMAX =          13
 
  PAW_PBE As 22Sep2009                  :
 energy of atom  1       EATOM= -170.1867
 kinetic energy error for atom=    0.0005 (will be added to EATOM!!)
  PAW_PBE Ga 08Apr2002                  :
 energy of atom  2       EATOM=  -58.8688
 kinetic energy error for atom=    0.0000 (will be added to EATOM!!)
 
 
 POSCAR: cubic gallium arsenide
  positions in direct lattice
  velocities in cartesian coordinates


 exchange-correlation table for PE
   RHO(1)=    0.500       N(1)  =     2000
   RHO(2)=  100.500       N(2)  =     4000
 


--------------------------------------------------------------------------------------------------------


 ion  position               nearest neighbor table
   1  0.000  0.000  0.000-   5 2.31   6 2.31   7 2.31   8 2.31
   2  0.500  0.500  0.000-   5 2.31   6 2.31   7 2.31   8 2.31
   3  0.500  0.000  0.500-   5 2.31   6 2.31   7 2.31   8 2.31
   4  0.000  0.500  0.500-   5 2.31   6 2.31   7 2.31   8 2.31
   5  0.250  0.250  0.250-   1 2.31   2 2.31   3 2.31   4 2.31
   6  0.750  0.250  0.750-   1 2.31   2 2.31   3 2.31   4 2.31
   7  0.750  0.750  0.250-   1 2.31   2 2.31   3 2.31   4 2.31
   8  0.250  0.750  0.750-   1 2.31   2 2.31   3 2.31   4 2.31
 
  LATTYP: Found a simple cubic cell.
 ALAT       =     5.3305422919
  
  Lattice vectors:
  
 A1 = (   5.3305422919,   0.0000000000,   0.0000000000)
 A2 = (   0.0000000000,   5.3305422919,   0.0000000000)
 A3 = (   0.0000000000,   0.0000000000,   5.3305422919)


Analysis of symmetry for initial positions (statically):
=====================================================================
 Subroutine PRICEL returns following result:
 
  LATTYP: Found a face centered cubic cell.
 ALAT       =     5.3305422919
  
  Lattice vectors:
  
 A1 = (   2.6652711460,  -2.6652711460,   0.0000000000)
 A2 = (   2.6652711460,   0.0000000000,   2.6652711460)
 A3 = (   0.0000000000,  -2.6652711460,   2.6652711460)
 
   4 primitive cells build up your supercell.
 

 Routine SETGRP: Setting up the symmetry group for a 
 simple cubic supercell.


 Subroutine GETGRP returns: Found 24 space group operations
 (whereof 24 operations were pure point group operations)
 out of a pool of 48 trial point group operations.


The static configuration has the point symmetry T_d .


Analysis of symmetry for dynamics (positions and initial velocities):
=====================================================================
 Subroutine PRICEL returns following result:
 
  LATTYP: Found a face centered cubic cell.
 ALAT       =     5.3305422919
  
  Lattice vectors:
  
 A1 = (   2.6652711460,  -2.6652711460,   0.0000000000)
 A2 = (   2.6652711460,   0.0000000000,   2.6652711460)
 A3 = (   0.0000000000,  -2.6652711460,   2.6652711460)
 
   4 primitive cells build up your supercell.
 

 Routine SETGRP: Setting up the symmetry group for a 
 simple cubic supercell.


 Subroutine GETGRP returns: Found 24 space group operations
 (whereof 24 operations were pure point group operations)
 out of a pool of 48 trial point group operations.


The dynamic configuration has the point symmetry T_d .


 Subroutine INISYM returns: Found 24 space group operations
 (whereof 24 operations are pure point group operations),
 and found     4 'primitive' translations


----------------------------------------------------------------------------------------

                                     Primitive cell                                     

  volume of cell :      37.8664

  direct lattice vectors                    reciprocal lattice vectors
     2.665271146 -2.665271146  0.000000000     0.187598174 -0.187598174 -0.187598174
     2.665271146  0.000000000  2.665271146     0.187598174  0.187598174  0.187598174
     0.000000000 -2.665271146  2.665271146    -0.187598174 -0.187598174  0.187598174

  length of vectors
     3.769262602  3.769262602  3.769262602     0.324929569  0.324929569  0.324929569

  position of ions in fractional coordinates (direct lattice)
     0.000000000  0.000000000  0.000000000
     0.750000000  0.750000000  0.750000000

  ion indices of the primitive-cell ions
   primitive index   ion index
                 1           1
                 2           5

----------------------------------------------------------------------------------------

 
 
 KPOINTS: Automatic mesh                          

Automatic generation of k-mesh.
 Grid dimensions read from file:
 generate k-points for:    5    5    5

 Generating k-lattice:

  Cartesian coordinates                     Fractional coordinates (reciprocal lattice)
     0.037519635  0.000000000  0.000000000     0.200000000  0.000000000  0.000000000
     0.000000000  0.037519635  0.000000000     0.000000000  0.200000000  0.000000000
     0.000000000  0.000000000  0.037519635     0.000000000  0.000000000  0.200000000

  Length of vectors
     0.037519635  0.037519635  0.037519635

  Shift w.r.t. Gamma in fractional coordinates (k-lattice)
     0.000000000  0.000000000  0.000000000

 TETIRR: Found     57 inequivalent tetrahedra from      750
 
 Subroutine IBZKPT returns following result:
 ===========================================
 
 Found     10 irreducible k-points:
 
 Following reciprocal coordinates:
            Coordinates               Weight
  0.000000  0.000000  0.000000      1.000000
  0.200000  0.000000  0.000000      6.000000
  0.400000  0.000000  0.000000      6.000000
  0.200000  0.200000  0.000000     12.000000
  0.400000  0.200000  0.000000     24.000000
  0.400000  0.400000  0.000000     12.000000
  0.200000  0.200000  0.200000      8.000000
  0.400000  0.200000  0.200000     24.000000
  0.400000  0.400000  0.200000     24.000000
  0.400000  0.400000  0.400000      8.000000
 
 Following cartesian coordinates:
            Coordinates               Weight
  0.000000  0.000000  0.000000      1.000000
  0.168838  0.000000  0.000000      6.000000
  0.337677  0.000000  0.000000      6.000000
  0.168838  0.168838  0.000000     12.000000
  0.337677  0.168838  0.000000     24.000000
  0.337677  0.337677  0.000000     12.000000
  0.168838  0.168838  0.168838      8.000000
  0.337677  0.168838  0.168838     24.000000
  0.337677  0.337677  0.168838     24.000000
  0.337677  0.337677  0.337677      8.000000
 


--------------------------------------------------------------------------------------------------------




 Dimension of arrays:
   k-points           NKPTS =     10   k-points in BZ     NKDIM =     10   number of bands    NBANDS=     24
   number of dos      NEDOS =    301   number of ions     NIONS =      8
   non local maximal  LDIM  =      5   non local SUM 2l+1 LMDIM =     13
   total plane-waves  NPLWV =  27000
   max r-space proj   IRMAX =      1   max aug-charges    IRDMAX=  13010
   dimension x,y,z NGX =    30 NGY =   30 NGZ =   30
   dimension x,y,z NGXF=    60 NGYF=   60 NGZF=   60
   support grid    NGXF=    60 NGYF=   60 NGZF=   60
   ions per type =               4   4
   NGX,Y,Z   is equivalent  to a cutoff of   9.36,  9.36,  9.36 a.u.
   NGXF,Y,Z  is equivalent  to a cutoff of  18.71, 18.71, 18.71 a.u.

 SYSTEM =  GaAs                                    
 POSCAR =  cubic gallium arsenide                  

 Startparameter for this run:
   NWRITE =      2    write-flag & timer
   PREC   = normal    normal or accurate (medium, high low for compatibility)
   ISTART =      1    job   : 0-new  1-cont  2-samecut
   ICHARG =      0    charge: 1-file 2-atom 10-const
   ISPIN  =      1    spin polarized calculation?
   LNONCOLLINEAR =      F non collinear calculations
   LSORBIT =      F    spin-orbit coupling
   INIWAV =      1    electr: 0-lowe 1-rand  2-diag
   LASPH  =      F    aspherical Exc in radial PAW
 Electronic Relaxation 1
   ENCUT  =  500.0 eV  36.75 Ry    6.06 a.u.   9.72  9.72  9.72*2*pi/ulx,y,z
   ENINI  =  500.0     initial cutoff
   ENAUG  =  462.8 eV  augmentation charge cutoff
   NELM   =     60;   NELMIN=  2; NELMDL=  0     # of ELM steps 
   EDIFF  = 0.1E-03   stopping-criterion for ELM
   LREAL  =      F    real-space projection
   NLSPLINE    = F    spline interpolate recip. space projectors
   LCOMPAT=      F    compatible to vasp.4.4
   GGA_COMPAT  = T    GGA compatible to vasp.4.4-vasp.4.6
   LMAXPAW     = -100 max onsite density
   LMAXMIX     =    2 max onsite mixed and CHGCAR
   VOSKOWN=      0    Vosko Wilk Nusair interpolation
   ROPT   =    0.00000   0.00000
 Ionic relaxation
   EDIFFG = 0.1E-02   stopping-criterion for IOM
   NSW    =      0    number of steps for IOM
   NBLOCK =      1;   KBLOCK =      1    inner block; outer block 
   IBRION =     -1    ionic relax: 0-MD 1-quasi-New 2-CG
   NFREE  =      1    steps in history (QN), initial steepest desc. (CG)
   ISIF   =      2    stress and relaxation
   IWAVPR =     10    prediction:  0-non 1-charg 2-wave 3-comb
   ISYM   =      2    0-nonsym 1-usesym 2-fastsym
   LCORR  =      T    Harris-Foulkes like correction to forces

   POTIM  = 0.5000    time-step for ionic-motion
   TEIN   =    0.0    initial temperature
   TEBEG  =    0.0;   TEEND  =   0.0 temperature during run
   SMASS  =  -3.00    Nose mass-parameter (am)
   estimated Nose-frequenzy (Omega)   =  0.10E-29 period in steps = 0.13E+47 mass=  -0.649E-27a.u.
   SCALEE = 1.0000    scale energy and forces
   NPACO  =    256;   APACO  = 10.0  distance and # of slots for P.C.
   PSTRESS=    0.0 pullay stress

  Mass of Ions in am
   POMASS =  74.92 69.72
  Ionic Valenz
   ZVAL   =   5.00  3.00
  Atomic Wigner-Seitz radii
   RWIGS  =  -1.00 -1.00
  virtual crystal weights 
   VCA    =   1.00  1.00
   NELECT =      32.0000    total number of electrons
   NUPDOWN=      -1.0000    fix difference up-down

 DOS related values:
   EMIN   =  10.00;   EMAX   =-10.00  energy-range for DOS
   EFERMI =   0.00;   METHOD = LEGACY      
   ISMEAR =    -5;   SIGMA  =   0.10  broadening in eV -4-tet -1-fermi 0-gaus

 Electronic relaxation 2 (details)
   IALGO  =     38    algorithm
   LDIAG  =      T    sub-space diagonalisation (order eigenvalues)
   LSUBROT=      F    optimize rotation matrix (better conditioning)
   TURBO    =      0    0=normal 1=particle mesh
   IRESTART =      0    0=no restart 2=restart with 2 vectors
   NREBOOT  =      0    no. of reboots
   NMIN     =      0    reboot dimension
   EREF     =   0.00    reference energy to select bands
   IMIX   =      4    mixing-type and parameters
     AMIX     =   0.40;   BMIX     =  1.00
     AMIX_MAG =   1.60;   BMIX_MAG =  1.00
     AMIN     =   0.10
     WC   =   100.;   INIMIX=   1;  MIXPRE=   1;  MAXMIX= -45

 Intra band minimization:
   WEIMIN = 0.0000     energy-eigenvalue tresh-hold
   EBREAK =  0.10E-05  absolut break condition
   DEPER  =   0.30     relativ break condition  

   TIME   =   0.40     timestep for ELM

  volume/ion in A,a.u.               =      18.93       127.77
  Fermi-wavevector in a.u.,A,eV,Ry     =   0.975035  1.842549 12.934960  0.950693
  Thomas-Fermi vector in A             =   2.105542
 
 Write flags
   LWAVE        =      T    write WAVECAR
   LDOWNSAMPLE  =      F    k-point downsampling of WAVECAR
   LCHARG       =      T    write CHGCAR
   LVTOT        =      F    write LOCPOT, total local potential
   LVHAR        =      F    write LOCPOT, Hartree potential only
   WRT_POTENTIAL= false  ! write potential to hdf5 file
   LELF         =      F    write electronic localiz. function (ELF)
   LORBIT       =      0    0 simple, 1 ext, 2 COOP (PROOUT), +10 PAW based schemes


 Dipole corrections
   LMONO      =      F    monopole corrections only (constant potential shift)
   LDIPOL     =      F    correct potential (dipole corrections)
   IDIPOL     =      0    1-x, 2-y, 3-z, 4-all directions 
   EPSILON    =  1.0000000 bulk dielectric constant
   LVACPOTAV  =      F  vacuum potentials using an averaging scheme for the charge density
   VACPOTFLAT =  0.1000000 required flatness to determine vacuum potential
 Exchange correlation treatment:
   GGA     = PE    functional components
   XC_C    = 1    coefficients multiplying the functional components
   LIBXC   =     F    Libxc                    
   VOSKOWN =     0    Vosko Wilk Nusair interpolation
   LHFCALC =     F    Hartree Fock is set to
   LHFONE  =     F    Hartree Fock one center treatment
   AEXX    =    0.0000 exact exchange contribution

 Parameters of functionals:
   PE:
     No parameter
 
 Van der Waals corrections
   IVDW    =     0    specifies the selected vdW correction

 Linear response parameters
   LEPSILON=     F    determine dielectric tensor
   LRPA    =     F    only Hartree local field effects (RPA)
   LNABLA  =     F    use nabla operator in PAW spheres
   LVEL    =     F    velocity operator in full k-point grid
   CSHIFT  =0.1000    complex shift for real part using Kramers Kronig
   OMEGAMAX=  -1.0    maximum frequency
   DEG_THRESHOLD= 0.2000000E-02 threshold for treating states as degnerate
   RTIME   =   -0.100 relaxation time in fs
  (WPLASMAI=    0.000 imaginary part of plasma frequency in eV, 0.658/RTIME)
   DFIELD  = 0.0000000 0.0000000 0.0000000 field for delta impulse in time
 
  Optional k-point grid parameters
   LKPOINTS_OPT  =     F    use optional k-point grid
   KPOINTS_OPT_MODE=     1    mode for optional k-point grid
 
 Orbital magnetization related:
   ORBITALMAG=     F  switch on orbital magnetization
   LCHIMAG   =     F  perturbation theory with respect to B field
   DQ        =  0.001000  dq finite difference perturbation B field
   LLRAUG    =     F  two centre corrections for induced B field
   LBONE     =     F  B-component reconstruction in AE one-centre
   LVGVCALC  =     T  calculate vGv susceptibility
   LVGVAPPL  =     F  apply vGv susceptibility instead of pGv for G=0

 Random number generation:
   RANDOM_GENERATOR = DEFAULT
   PCG_SEED         = not used


--------------------------------------------------------------------------------------------------------


 Static calculation
 charge density and potential will be updated during run
 non-spin polarized calculation
 Variant of blocked Davidson
 Davidson routine will perform the subspace rotation
 perform sub-space diagonalisation
    after iterative eigenvector-optimisation
 modified Broyden-mixing scheme, WC =      100.0
 initial mixing is a Kerker type mixing with AMIX =  0.4000 and BMIX =      1.0000
 Hartree-type preconditioning will be used
 using additional bands            8
 reciprocal scheme for non local part
 use partial core corrections
 calculate Harris-corrections to forces 
   (improved forces if not selfconsistent)
 use gradient corrections 
 use of overlap-Matrix (Vanderbilt PP)
 Fermi weights with tetrahedron method with Bloechl corrections


--------------------------------------------------------------------------------------------------------


  energy-cutoff  :      500.00
  volume of cell :      151.47
      direct lattice vectors                 reciprocal lattice vectors
     5.330542292  0.000000000  0.000000000     0.187598174  0.000000000  0.000000000
     0.000000000  5.330542292  0.000000000     0.000000000  0.187598174  0.000000000
     0.000000000  0.000000000  5.330542292     0.000000000  0.000000000  0.187598174

  length of vectors
     5.330542292  5.330542292  5.330542292     0.187598174  0.187598174  0.187598174


 
 old parameters found on file WAVECAR:
  energy-cutoff  :      500.00
  volume of cell :      151.47
      direct lattice vectors                 reciprocal lattice vectors
     5.330542292  0.000000000  0.000000000     0.187598174  0.000000000  0.000000000
     0.000000000  5.330542292  0.000000000     0.000000000  0.187598174  0.000000000
     0.000000000  0.000000000  5.330542292     0.000000000  0.000000000  0.187598174

  length of vectors

 
 k-points in units of 2pi/SCALE and weight: Automatic mesh                          
   0.00000000  0.00000000  0.00000000       0.008
   0.16883836  0.00000000  0.00000000       0.048
   0.33767671  0.00000000  0.00000000       0.048
   0.16883836  0.16883836  0.00000000       0.096
   0.33767671  0.16883836  0.00000000       0.192
   0.33767671  0.33767671  0.00000000       0.096
   0.16883836  0.16883836  0.16883836       0.064
   0.33767671  0.16883836  0.16883836       0.192
   0.33767671  0.33767671  0.16883836       0.192
   0.33767671  0.33767671  0.33767671       0.064
 
 k-points in reciprocal lattice and weights: Automatic mesh                          
   0.00000000  0.00000000  0.00000000       0.008
   0.20000000  0.00000000  0.00000000       0.048
   0.40000000  0.00000000  0.00000000       0.048
   0.20000000  0.20000000  0.00000000       0.096
   0.40000000  0.20000000  0.00000000       0.192
   0.40000000  0.40000000  0.00000000       0.096
   0.20000000  0.20000000  0.20000000       0.064
   0.40000000  0.20000000  0.20000000       0.192
   0.40000000  0.40000000  0.20000000       0.192
   0.40000000  0.40000000  0.40000000       0.064
 
 position of ions in fractional coordinates (direct lattice) 
   0.00000000  0.00000000  0.00000000
   0.50000000  0.50000000  0.00000000
   0.50000000  0.00000000  0.50000000
   0.00000000  0.50000000  0.50000000
   0.25000000  0.25000000  0.25000000
   0.75000000  0.25000000  0.75000000
   0.75000000  0.75000000  0.25000000
   0.25000000  0.75000000  0.75000000
 
 position of ions in cartesian coordinates  (Angst):
   0.00000000  0.00000000  0.00000000
   2.66527115  2.66527115  0.00000000
   2.66527115  0.00000000  2.66527115
   0.00000000  2.66527115  2.66527115
   1.33263557  1.33263557  1.33263557
   3.99790672  1.33263557  3.99790672
   3.99790672  3.99790672  1.33263557
   1.33263557  3.99790672  3.99790672
 


--------------------------------------------------------------------------------------------------------


 k-point     1 :   0.0000 0.0000 0.0000  plane waves:    3887
 k-point     2 :   0.2000 0.0000 0.0000  plane waves:    3839
 k-point     3 :   0.4000 0.0000 0.0000  plane waves:    3860
 k-point     4 :   0.2000 0.2000 0.0000  plane waves:    3846
 k-point     5 :   0.4000 0.2000 0.0000  plane waves:    3857
 k-point     6 :   0.4000 0.4000 0.0000  plane waves:    3840
 k-point     7 :   0.2000 0.2000 0.2000  plane waves:    3836
 k-point     8 :   0.4000 0.2000 0.2000  plane waves:    3842
 k-point     9 :   0.4000 0.4000 0.2000  plane waves:    3845
 k-point    10 :   0.4000 0.4000 0.4000  plane waves:    3843

 maximum and minimum number of plane-waves per node :      3887     3836

 maximum number of plane-waves:      3887
 maximum index in each direction: 
   IXMAX=    9   IYMAX=    9   IZMAX=    9
   IXMIN=  -10   IYMIN=  -10   IZMIN=  -10


 serial   3D FFT for wavefunctions
 parallel 3D FFT for charge:
    minimum data exchange during FFTs selected (reduces bandwidth)


 total amount of memory used by VASP MPI-rank0    44405. kBytes
=======================================================================

   base      :      30000. kBytes
   nonl-proj :       8584. kBytes
   fftplans  :       1096. kBytes
   grid      :       2745. kBytes
   one-center:         64. kBytes
   wavefun   :       1916. kBytes
 
     INWAV:  cpu time      0.0500: real time      0.0582
 Broyden mixing: mesh for mixing (old mesh)
   NGX = 19   NGY = 19   NGZ = 19
  (NGX  = 60   NGY  = 60   NGZ  = 60)
  gives a total of   6859 points

 charge density for first step will be calculated from the start-wavefunctions


--------------------------------------------------------------------------------------------------------


 Maximum index for augmentation-charges         1596 (set IRDMAX)


--------------------------------------------------------------------------------------------------------


 initial charge from wavefunction
 First call to EWALD:  gamma=   0.333
 Maximum number of real-space cells 3x 3x 3
 Maximum number of reciprocal cells 3x 3x 3

    FEWALD:  cpu time      0.0009: real time      0.0009


--------------------------------------- Ionic step        1  -------------------------------------------




--------------------------------------- Iteration      1(   1)  ---------------------------------------


    POTLOK:  cpu time      0.0134: real time      0.0162
    SETDIJ:  cpu time      0.0020: real time      0.0020
     EDDAV:  cpu time      0.1579: real time      0.1664
 BZINTS: Fermi energy:    4.381018;   32.000000 electrons
         Band energy:-0.518170E+02;  BLOECHL correction:    0.000000
       DOS:  cpu time      0.0004: real time      0.0004
    CHARGE:  cpu time      0.0119: real time      0.0122
    MIXING:  cpu time      0.0004: real time      0.0004
    --------------------------------------------
      LOOP:  cpu time      0.1861: real time      0.1977

 eigenvalue-minimisations  :   240
 total energy-change (2. order) :-0.3063685E+02  (-0.2957000E-05)
 number of electron      32.0000012 magnetization 
 augmentation part       -5.2590593 magnetization 

 Broyden mixing:
  rms(total) = 0.80139E-03    rms(broyden)= 0.80139E-03
  rms(prec ) = 0.88371E-03
  weight for this iteration     100.00

 Free energy of the ion-electron system (eV)
  ---------------------------------------------------
  alpha Z        PSCENC =        90.34293625
  Ewald energy   TEWEN  =      -972.18875111
  -Hartree energ DENC   =       -72.36223774
  -exchange      EXHF   =         0.00000000
  -V(xc)+E(xc)   XCENC  =      -118.84832563
  PAW double counting   =      2729.69897515    -2551.68209741
  entropy T*S    EENTRO =         0.00000000
  eigenvalues    EBANDS =       -51.81698348
  atomic energy  EATOM  =       916.21963040
  Solvation  Ediel_sol  =         0.00000000
  ---------------------------------------------------
  free energy    TOTEN  =       -30.63685356 eV

  energy without entropy =      -30.63685356  energy(sigma->0) =      -30.63685356


--------------------------------------------------------------------------------------------------------




--------------------------------------- Iteration      1(   2)  ---------------------------------------


    POTLOK:  cpu time      0.0133: real time      0.0142
    SETDIJ:  cpu time      0.0018: real time      0.0018
     EDDAV:  cpu time      0.1512: real time      0.1592
 BZINTS: Fermi energy:    4.381036;   32.000000 electrons
         Band energy:-0.518155E+02;  BLOECHL correction:    0.000000
       DOS:  cpu time      0.0004: real time      0.0003
    --------------------------------------------
      LOOP:  cpu time      0.1667: real time      0.1755

 eigenvalue-minimisations  :   240
 total energy-change (2. order) : 0.1207477E-06  (-0.1702986E-06)
 number of electron      32.0000012 magnetization 
 augmentation part       -5.2590593 magnetization 

 Free energy of the ion-electron system (eV)
  ---------------------------------------------------
  alpha Z        PSCENC =        90.34293625
  Ewald energy   TEWEN  =      -972.18875111
  -Hartree energ DENC   =       -72.36330978
  -exchange      EXHF   =         0.00000000
  -V(xc)+E(xc)   XCENC  =      -118.84875136
  PAW double counting   =      2729.20878748    -2551.19193801
  entropy T*S    EENTRO =         0.00000000
  eigenvalues    EBANDS =       -51.81545730
  atomic energy  EATOM  =       916.21963040
  Solvation  Ediel_sol  =         0.00000000
  ---------------------------------------------------
  free energy    TOTEN  =       -30.63685344 eV

  energy without entropy =      -30.63685344  energy(sigma->0) =      -30.63685344


--------------------------------------------------------------------------------------------------------




 average (electrostatic) potential at core
  the test charge radii are     1.0621  1.2767
  (the norm of the test charge is              1.0000)
       1 -50.0925       2 -50.0925       3 -50.0925       4 -50.0925       5 -13.1840
       6 -13.1840       7 -13.1840       8 -13.1840
 
 
 
 E-fermi :   4.3810     XC(G=0):  -9.9268     alpha+bet :-10.2126

 val. band max:        4.3717576467   @ k =   0.0000   0.0000   0.0000
 cond. band min:       5.4400595249   @ k =   0.0000   0.0000   0.0000
 fundamental gap:      1.0683018782
 Fermi energy:         4.3810360205

 k-point     1 :       0.0000    0.0000    0.0000
  band No.  band energies     occupation 
      1      -9.7646      2.00000
      2      -6.6374      2.00000
      3      -6.6374      2.00000
      4      -6.6374      2.00000
      5      -3.3361      2.00000
      6      -3.3361      2.00000
      7      -3.3361      2.00000
      8       1.0083      2.00000
      9       1.0083      2.00000
     10       1.0083      2.00000
     11       1.0083      2.00000
     12       1.0083      2.00000
     13       1.0083      2.00000
     14       4.3718      2.00000
     15       4.3718      2.00000
     16       4.3718      2.00000
     17       5.4401      0.00000
     18       5.4401      0.00000
     19       5.4401      0.00000
     20       5.8830      0.00000
     21       5.8830      0.00000
     22       5.8830      0.00000
     23       6.3656      0.00000
     24       8.1555      0.00000

 k-point     2 :       0.2000    0.0000    0.0000
  band No.  band energies     occupation 
      1      -9.5870      2.00000
      2      -7.2374      2.00000
      3      -6.6086      2.00000
      4      -6.6086      2.00000
      5      -3.2450      2.00000
      6      -3.2450      2.00000
      7      -2.4995      2.00000
      8       0.5750      2.00000
      9       0.5750      2.00000
     10       0.6436      2.00000
     11       0.6436      2.00000
     12       1.2064      2.00000
     13       1.2064      2.00000
     14       3.0411      2.00000
     15       3.7562      2.00000
     16       3.7562      2.00000
     17       5.4885      0.00000
     18       6.3311      0.00000
     19       6.3336      0.00000
     20       6.3336      0.00000
     21       6.7872      0.00000
     22       6.7872      0.00000
     23       7.4793      0.00000
     24       7.7300      0.00000

 k-point     3 :       0.4000    0.0000    0.0000
  band No.  band energies     occupation 
      1      -9.0640      2.00000
      2      -8.2354      2.00000
      3      -6.5606      2.00000
      4      -6.5606      2.00000
      5      -3.0720      2.00000
      6      -3.0720      2.00000
      7      -0.8145      2.00000
      8      -0.0258      2.00000
      9      -0.0258      2.00000
     10       0.1780      2.00000
     11       0.1780      2.00000
     12       1.1003      2.00000
     13       1.7861      2.00000
     14       1.7861      2.00000
     15       2.6919      2.00000
     16       2.6919      2.00000
     17       5.8637      0.00000
     18       6.6073      0.00000
     19       7.3885      0.00000
     20       8.3499      0.00000
     21       8.3499      0.00000
     22       8.4585      0.00000
     23       8.8567      0.00000
     24       8.8567      0.00000

 k-point     4 :       0.2000    0.2000    0.0000
  band No.  band energies     occupation 
      1      -9.4127      2.00000
      2      -7.1534      2.00000
      3      -7.1534      2.00000
      4      -6.6331      2.00000
      5      -3.1598      2.00000
      6      -2.5494      2.00000
      7      -2.5494      2.00000
      8      -0.2572      2.00000
      9       0.6739      2.00000
     10       0.6739      2.00000
     11       1.0406      2.00000
     12       1.0406      2.00000
     13       1.3423      2.00000
     14       1.8448      2.00000
     15       3.1227      2.00000
     16       4.1612      2.00000
     17       5.9737      0.00000
     18       6.4352      0.00000
     19       6.4352      0.00000
     20       7.1455      0.00000
     21       7.1455      0.00000
     22       7.4217      0.00000
     23       8.3174      0.00000
     24       8.4980      0.00000

 k-point     5 :       0.4000    0.2000    0.0000
  band No.  band energies     occupation 
      1      -8.9012      2.00000
      2      -8.0986      2.00000
      3      -6.9480      2.00000
      4      -6.7415      2.00000
      5      -2.9542      2.00000
      6      -2.7182      2.00000
      7      -1.1808      2.00000
      8      -0.5621      2.00000
      9      -0.1567      2.00000
     10       0.3131      2.00000
     11       0.9745      2.00000
     12       1.1837      2.00000
     13       1.2557      2.00000
     14       1.9761      2.00000
     15       2.0569      2.00000
     16       3.2480      2.00000
     17       6.8483      0.00000
     18       7.1904      0.00000
     19       7.5691      0.00000
     20       8.0338      0.00000
     21       8.3478      0.00000
     22       8.4638      0.00000
     23       9.0864      0.00000
     24       9.7156      0.00000

 k-point     6 :       0.4000    0.4000    0.0000
  band No.  band energies     occupation 
      1      -8.4304      2.00000
      2      -7.7184      2.00000
      3      -7.7184      2.00000
      4      -7.1997      2.00000
      5      -2.5666      2.00000
      6      -1.9137      2.00000
      7      -1.9137      2.00000
      8      -0.8681      2.00000
      9      -0.4654      2.00000
     10       0.2086      2.00000
     11       0.2086      2.00000
     12       1.0138      2.00000
     13       2.2490      2.00000
     14       2.3198      2.00000
     15       2.3198      2.00000
     16       3.3832      2.00000
     17       6.9078      0.00000
     18       7.7688      0.00000
     19       8.2005      0.00000
     20       8.2005      0.00000
     21       9.0707      0.00000
     22       9.0707      0.00000
     23       9.5905      0.00000
     24       9.7663      0.00000

 k-point     7 :       0.2000    0.2000    0.2000
  band No.  band energies     occupation 
      1      -9.2426      2.00000
      2      -7.1051      2.00000
      3      -7.1051      2.00000
      4      -7.1051      2.00000
      5      -2.6790      2.00000
      6      -2.6790      2.00000
      7      -2.6790      2.00000
      8       0.1829      2.00000
      9       0.1829      2.00000
     10       0.1829      2.00000
     11       0.7986      2.00000
     12       1.5247      2.00000
     13       1.5247      2.00000
     14       1.5247      2.00000
     15       3.7196      2.00000
     16       3.7196      2.00000
     17       6.1973      0.00000
     18       6.1973      0.00000
     19       6.1973      0.00000
     20       6.6725      0.00000
     21       8.5348      0.00000
     22       8.5348      0.00000
     23       8.5348      0.00000
     24       8.9985      0.00000

 k-point     8 :       0.4000    0.2000    0.2000
  band No.  band energies     occupation 
      1      -8.7460      2.00000
      2      -7.9779      2.00000
      3      -7.0216      2.00000
      4      -7.0216      2.00000
      5      -2.9144      2.00000
      6      -2.9144      2.00000
      7      -1.7135      2.00000
      8      -0.5494      2.00000
      9       0.0032      2.00000
     10       0.0032      2.00000
     11       1.3779      2.00000
     12       1.5365      2.00000
     13       1.5365      2.00000
     14       2.0523      2.00000
     15       2.8506      2.00000
     16       2.8931      2.00000
     17       6.8010      0.00000
     18       7.1673      0.00000
     19       7.3851      0.00000
     20       7.3851      0.00000
     21       8.6017      0.00000
     22       9.0480      0.00000
     23       9.6117      0.00000
     24       9.6117      0.00000

 k-point     9 :       0.4000    0.4000    0.2000
  band No.  band energies     occupation 
      1      -8.3029      2.00000
      2      -7.6582      2.00000
      3      -7.6582      2.00000
      4      -7.2770      2.00000
      5      -2.9821      2.00000
      6      -2.5275      2.00000
      7      -2.5275      2.00000
      8      -1.6962      2.00000
      9       0.4511      2.00000
     10       1.0462      2.00000
     11       1.0462      2.00000
     12       2.0236      2.00000
     13       2.3638      2.00000
     14       2.4093      2.00000
     15       2.4093      2.00000
     16       3.2950      2.00000
     17       7.0018      0.00000
     18       7.0365      0.00000
     19       7.6376      0.00000
     20       7.6376      0.00000
     21       8.5888      0.00000
     22       8.5888      0.00000
     23       9.2287      0.00000
     24       9.2759      0.00000

 k-point    10 :       0.4000    0.4000    0.4000
  band No.  band energies     occupation 
      1      -7.9623      2.00000
      2      -7.5518      2.00000
      3      -7.5518      2.00000
      4      -7.5518      2.00000
      5      -3.1819      2.00000
      6      -3.1819      2.00000
      7      -3.1819      2.00000
      8      -2.6947      2.00000
      9       2.0657      2.00000
     10       2.0657      2.00000
     11       2.0657      2.00000
     12       2.6662      2.00000
     13       2.6662      2.00000
     14       2.6662      2.00000
     15       3.0302      2.00000
     16       3.0302      2.00000
     17       6.0428      0.00000
     18       6.7727      0.00000
     19       6.7727      0.00000
     20       6.7727      0.00000
     21       8.7414      0.00000
     22       8.7414      0.00000
     23       8.7414      0.00000
     24       9.1185      0.00000


--------------------------------------------------------------------------------------------------------


 soft charge-density along one line, spin component           1
         0         1         2         3         4         5         6         7         8         9
 total charge-density along one line
 
 pseudopotential strength for first ion, spin component:           1
 23.281  27.825  -0.000  -0.000   0.000   0.000   0.000  -0.000
 27.825  33.263  -0.000  -0.000   0.000   0.000   0.000  -0.000
 -0.000  -0.000   5.494   0.000   0.000 -10.866  -0.000  -0.000
 -0.000  -0.000   0.000   5.494   0.000  -0.000 -10.866  -0.000
  0.000   0.000   0.000   0.000   5.494  -0.000  -0.000 -10.866
  0.000   0.000 -10.866  -0.000  -0.000  22.051   0.000   0.000
  0.000   0.000  -0.000 -10.866  -0.000   0.000  22.051   0.000
 -0.000  -0.000  -0.000  -0.000 -10.866   0.000   0.000  22.051
  0.000   0.000   0.000   0.004  -0.000  -0.000  -0.006   0.000
  0.000   0.000  -0.000  -0.000   0.004   0.000   0.000  -0.006
  0.000   0.000   0.000  -0.000  -0.000  -0.000   0.000   0.000
  0.000   0.000   0.004   0.000  -0.000  -0.006  -0.000   0.000
 -0.000  -0.000   0.000  -0.000   0.000  -0.000   0.000  -0.000
 total augmentation occupancy for first ion, spin component:           1
  6.523  -3.073   0.000  -0.000   0.000  -0.000   0.000   0.000  -0.000   0.000  -0.000   0.000   0.000
 -3.073   1.799  -0.000  -0.000  -0.000  -0.000   0.000  -0.000   0.000   0.000   0.000  -0.000  -0.000
  0.000  -0.000   1.632  -0.000  -0.000   0.071  -0.000  -0.000   0.000  -0.000   0.000   0.119   0.000
 -0.000  -0.000   0.000   1.632   0.000   0.000   0.071  -0.000   0.119  -0.000   0.000  -0.000   0.000
  0.000  -0.000   0.000   0.000   1.632   0.000  -0.000   0.071   0.000   0.119   0.000   0.000   0.000
  0.000  -0.000   0.071   0.000  -0.000   0.004   0.000  -0.000  -0.000   0.000  -0.000   0.006   0.000
 -0.000   0.000   0.000   0.071   0.000   0.000   0.004  -0.000   0.006   0.000   0.000   0.000   0.000
 -0.000  -0.000  -0.000   0.000   0.071  -0.000   0.000   0.004  -0.000   0.006  -0.000  -0.000   0.000
 -0.000   0.000   0.000   0.119  -0.000  -0.000   0.006  -0.000   0.019  -0.000  -0.000  -0.000   0.000
  0.000  -0.000  -0.000  -0.000   0.119   0.000   0.000   0.006  -0.000   0.019  -0.000  -0.000  -0.000
 -0.000   0.000   0.000   0.000   0.000  -0.000  -0.000  -0.000  -0.000  -0.000   0.007  -0.000   0.000
 -0.000  -0.000   0.119   0.000  -0.000   0.006   0.000  -0.000   0.000   0.000   0.000   0.019   0.000
  0.000  -0.000   0.000   0.000  -0.000   0.000   0.000  -0.000   0.000  -0.000   0.000  -0.000   0.007


------------------------ aborting loop because EDIFF is reached ----------------------------------------


    CHARGE:  cpu time      0.0118: real time      0.0120
    FORLOC:  cpu time      0.0009: real time      0.0009
    FORNL :  cpu time      0.0464: real time      0.0467
    STRESS:  cpu time      0.2686: real time      0.2704
    FORCOR:  cpu time      0.0128: real time      0.0131
    FORHAR:  cpu time      0.0033: real time      0.0034
    MIXING:  cpu time      0.0004: real time      0.0004
    OFIELD:  cpu time      0.0000: real time      0.0000

  FORCE on cell =-STRESS in cart. coord.  units (eV):
  Direction    XX          YY          ZZ          XY          YZ          ZX
  --------------------------------------------------------------------------------------
  Alpha Z    90.34294    90.34294    90.34294
  Ewald    -324.06343  -324.06343  -324.06343    -0.00000    -0.00000    -0.00000
  Hartree    24.12137    24.12137    24.12137    -0.00000    -0.00000    -0.00000
  E(xc)    -125.99438  -125.99438  -125.99438    -0.00000    -0.00000    -0.00000
  Local    -117.46501  -117.46501  -117.46501    -0.00000     0.00000     0.00000
  n-local   192.51168   194.35786   191.39858    -2.06122    -1.16642    -0.96788
  augment     8.74976     8.74976     8.74976     0.00000     0.00000     0.00000
  Kinetic   268.12147   279.64679   277.92000    -4.79422    -4.72360    -3.06332
  Fock        0.00000     0.00000     0.00000     0.00000     0.00000     0.00000
  -------------------------------------------------------------------------------------
  Total      23.67671    23.67671    23.67671     0.00000     0.00000     0.00000
  in kB     250.44812   250.44812   250.44812     0.00000     0.00000     0.00000
  external pressure =      250.45 kB  Pullay stress =        0.00 kB


 VOLUME and BASIS-vectors are now :
 -----------------------------------------------------------------------------
  energy-cutoff  :      500.00
  volume of cell :      151.47
      direct lattice vectors                 reciprocal lattice vectors
     5.330542292  0.000000000  0.000000000     0.187598174  0.000000000  0.000000000
     0.000000000  5.330542292  0.000000000     0.000000000  0.187598174  0.000000000
     0.000000000  0.000000000  5.330542292     0.000000000  0.000000000  0.187598174

  length of vectors
     5.330542292  5.330542292  5.330542292     0.187598174  0.187598174  0.187598174


 FORCES acting on ions
    electron-ion (+dipol)            ewald-force                    non-local-force                 convergence-correction
 -----------------------------------------------------------------------------------------------
   0.489E-14 -.184E-15 0.128E-14   0.213E-13 0.711E-14 0.355E-14   0.996E-17 -.237E-16 0.393E-16   0.199E-14 -.444E-15 0.785E-16
   0.256E-13 0.292E-12 -.234E-12   0.213E-13 0.711E-14 0.355E-14   0.220E-16 0.164E-16 0.254E-16   0.275E-15 0.107E-14 0.140E-15
   0.207E-13 0.299E-14 -.647E-14   0.213E-13 0.711E-14 0.355E-14   0.377E-16 -.965E-17 -.220E-17   0.331E-15 -.230E-15 -.368E-14
   0.209E-14 0.176E-13 0.245E-13   0.213E-13 0.711E-14 0.355E-14   0.199E-16 0.264E-17 0.253E-16   0.200E-14 0.149E-14 -.375E-14
   -.195E-15 -.405E-13 0.297E-13   -.203E-13 -.659E-14 -.438E-15   0.931E-18 0.790E-18 0.447E-17   -.395E-15 -.174E-14 -.675E-14
   0.187E-13 0.133E-12 0.144E-12   -.211E-13 -.660E-14 -.337E-14   0.813E-18 -.266E-17 -.295E-17   -.190E-16 -.178E-14 0.486E-14
   0.219E-13 0.149E-13 0.245E-12   -.212E-13 -.765E-14 -.213E-15   0.197E-18 0.523E-17 0.598E-17   0.133E-15 0.291E-14 -.672E-14
   0.870E-14 -.787E-14 0.466E-14   -.227E-13 -.766E-14 -.315E-14   0.192E-18 -.766E-20 0.568E-18   -.533E-15 0.295E-14 0.483E-14
 -----------------------------------------------------------------------------------------------
   0.102E-12 0.412E-12 0.208E-12   -.115E-17 -.783E-16 0.704E-14   0.917E-16 -.110E-16 0.959E-16   0.378E-14 0.422E-14 -.110E-13
 
 
 POSITION                                       TOTAL-FORCE (eV/Angst)
 -----------------------------------------------------------------------------------
      0.00000      0.00000      0.00000         0.000000      0.000000      0.000000
      2.66527      2.66527      0.00000         0.000000      0.000000      0.000000
      2.66527      0.00000      2.66527         0.000000      0.000000      0.000000
      0.00000      2.66527      2.66527        -0.000000     -0.000000      0.000000
      1.33264      1.33264      1.33264         0.000000     -0.000000     -0.000000
      3.99791      1.33264      3.99791        -0.000000      0.000000     -0.000000
      3.99791      3.99791      1.33264        -0.000000     -0.000000     -0.000000
      1.33264      3.99791      3.99791        -0.000000     -0.000000     -0.000000
 -----------------------------------------------------------------------------------
    total drift:                                0.000000      0.000000      0.000000


--------------------------------------------------------------------------------------------------------



  FREE ENERGIE OF THE ION-ELECTRON SYSTEM (eV)
  ---------------------------------------------------
  free  energy   TOTEN  =       -30.63685344 eV

  energy  without entropy=      -30.63685344  energy(sigma->0) =      -30.63685344
 


--------------------------------------------------------------------------------------------------------


    POTLOK:  cpu time      0.0145: real time      0.0149


--------------------------------------------------------------------------------------------------------


 writing wavefunctions
     LOOP+:  cpu time      0.9186: real time      0.9753


--------------------------------------------------------------------------------------------------------



 plasma frequency squared (from intraband transitions) (eV^2)
  --------------------------------------------------------------------------------------
       0.000       0.000       0.000
       0.000       0.000       0.000
       0.000       0.000       0.000

 electrical conductivity sigma (Mega S m-1) (frequency dependency in vasprun.xml)
  --------------------------------------------------------------------------------------
       0.000       0.000       0.000
       0.000       0.000       0.000
       0.000       0.000       0.000

 plasma frequency squared (from interband transitions, int dw w eps(2)(w)) (eV^2)
  --------------------------------------------------------------------------------------
     228.348       0.000      -0.000       0.000       0.000       0.000
      -0.000       0.000     228.348       0.000      -0.000       0.000
       0.000       0.000      -0.000       0.000     228.348       0.000
  --------------------------------------------------------------------------------------
 sumrule: sum of plasma frequencies squared should yield (valence only):     291.312

 Anomalous Hall contribution (eV) 2/pi Imag((f_n-f_m)<u_m| d/dk_a u_n> <u_m| d/dk_b u_n>^*) 
  --------------------------------------------------------------------------------------
       0.000       0.000       0.000
       0.000       0.000       0.000
       0.000       0.000       0.000

  frequency dependent IMAGINARY DIELECTRIC FUNCTION (independent particle, no local field effects) density-density
     E(ev)      X         Y         Z        XY        YZ        ZX
  --------------------------------------------------------------------------------------------------------------
    0.000000    0.000000    0.000000    0.000000    0.000000    0.000000    0.000000
    0.023460    0.002207    0.002207    0.002207   -0.000000   -0.000000    0.000000
    0.046921    0.004415    0.004415    0.004415   -0.000000   -0.000000    0.000000
    0.070381    0.006624    0.006624    0.006624   -0.000000   -0.000000    0.000000
    0.093842    0.008837    0.008837    0.008837   -0.000000   -0.000000    0.000000
    0.117302    0.011053    0.011053    0.011053   -0.000000   -0.000000    0.000000
    0.140763    0.013274    0.013274    0.013274   -0.000000   -0.000000    0.000000
    0.164223    0.015501    0.015501    0.015501   -0.000000   -0.000000    0.000000
    0.187684    0.017735    0.017735    0.017735   -0.000000   -0.000000    0.000000
    0.211144    0.019976    0.019976    0.019976   -0.000000   -0.000000    0.000000
    0.234605    0.022226    0.022226    0.022226   -0.000000   -0.000000    0.000000
    0.258065    0.024486    0.024486    0.024486   -0.000000   -0.000000    0.000000
    0.281526    0.026757    0.026757    0.026757   -0.000000   -0.000000    0.000000
    0.304986    0.029039    0.029039    0.029039   -0.000000   -0.000000    0.000000
    0.328447    0.031334    0.031334    0.031334   -0.000000   -0.000000    0.000000
    0.351907    0.033644    0.033644    0.033644   -0.000000   -0.000000    0.000000
    0.375368    0.035968    0.035968    0.035968   -0.000000   -0.000000    0.000000
    0.398828    0.038308    0.038308    0.038308   -0.000000   -0.000000    0.000000
    0.422289    0.040666    0.040666    0.040666   -0.000000   -0.000000    0.000000
    0.445749    0.043042    0.043042    0.043042   -0.000000   -0.000000    0.000000
    0.469210    0.045437    0.045437    0.045437   -0.000000   -0.000000    0.000000
    0.492670    0.047854    0.047854    0.047854   -0.000000   -0.000000    0.000000
    0.516130    0.050293    0.050293    0.050293   -0.000000   -0.000000    0.000000
    0.539591    0.052755    0.052755    0.052755   -0.000000   -0.000000    0.000000
    0.563051    0.055242    0.055242    0.055242   -0.000000   -0.000000    0.000000
    0.586512    0.057755    0.057755    0.057755   -0.000000   -0.000000    0.000000
    0.609972    0.060296    0.060296    0.060296   -0.000000   -0.000000    0.000000
    0.633433    0.062866    0.062866    0.062866   -0.000000   -0.000000    0.000000
    0.656893    0.065467    0.065467    0.065467   -0.000000   -0.000000    0.000000
    0.680354    0.068100    0.068100    0.068100   -0.000000   -0.000000    0.000000
    0.703814    0.070766    0.070766    0.070766   -0.000000   -0.000000    0.000000
    0.727275    0.073469    0.073469    0.073469   -0.000000   -0.000000    0.000000
    0.750735    0.076208    0.076208    0.076208   -0.000000   -0.000000    0.000000
    0.774196    0.078987    0.078987    0.078987   -0.000000   -0.000000   -0.000000
    0.797656    0.081807    0.081807    0.081807   -0.000000   -0.000000   -0.000000
    0.821117    0.084670    0.084670    0.084670   -0.000000   -0.000000   -0.000000
    0.844577    0.087579    0.087579    0.087579   -0.000000   -0.000000   -0.000000
    0.868038    0.090535    0.090535    0.090535   -0.000000   -0.000000   -0.000000
    0.891498    0.093541    0.093541    0.093541   -0.000000   -0.000000   -0.000000
    0.914959    0.096600    0.096600    0.096600   -0.000000   -0.000000   -0.000000
    0.938419    0.099714    0.099714    0.099714   -0.000000   -0.000000   -0.000000
    0.961880    0.102886    0.102886    0.102886   -0.000000   -0.000000   -0.000000
    0.985340    0.106119    0.106119    0.106119   -0.000000   -0.000000   -0.000000
    1.008800    0.109417    0.109417    0.109417   -0.000000   -0.000000   -0.000000
    1.032261    0.112783    0.112783    0.112783   -0.000000   -0.000000   -0.000000
    1.055721    0.116221    0.116221    0.116221   -0.000000   -0.000000   -0.000000
    1.079182    0.119735    0.119735    0.119735   -0.000000   -0.000000   -0.000000
    1.102642    0.123330    0.123330    0.123330   -0.000000   -0.000000   -0.000000
    1.126103    0.127010    0.127010    0.127010   -0.000000   -0.000000   -0.000000
    1.149563    0.130781    0.130781    0.130781   -0.000000   -0.000000   -0.000000
    1.173024    0.134647    0.134647    0.134647   -0.000000    0.000000   -0.000000
    1.196484    0.138615    0.138615    0.138615   -0.000000    0.000000   -0.000000
    1.219945    0.142689    0.142689    0.142689   -0.000000    0.000000   -0.000000
    1.243405    0.146876    0.146876    0.146876   -0.000000    0.000000   -0.000000
    1.266866    0.151184    0.151184    0.151184   -0.000000    0.000000   -0.000000
    1.290326    0.155618    0.155618    0.155618   -0.000000    0.000000   -0.000000
    1.313787    0.160189    0.160189    0.160189   -0.000000    0.000000   -0.000000
    1.337247    0.164904    0.164904    0.164904   -0.000000    0.000000   -0.000000
    1.360708    0.169776    0.169776    0.169776   -0.000000    0.000000   -0.000000
    1.384168    0.174816    0.174816    0.174816   -0.000000    0.000000   -0.000000
    1.407629    0.180039    0.180039    0.180039   -0.000000    0.000000   -0.000000
    1.431089    0.185462    0.185462    0.185462   -0.000000    0.000000   -0.000000
    1.454549    0.191107    0.191107    0.191107   -0.000000    0.000000   -0.000000
    1.478010    0.196997    0.196997    0.196997   -0.000000    0.000000   -0.000000
    1.501470    0.203164    0.203164    0.203164   -0.000000    0.000000   -0.000000
    1.524931    0.209639    0.209639    0.209639   -0.000000    0.000000   -0.000000
    1.548391    0.216457    0.216457    0.216457   -0.000000    0.000000   -0.000000
    1.571852    0.223654    0.223654    0.223654   -0.000000    0.000000   -0.000000
    1.595312    0.231260    0.231260    0.231260   -0.000000    0.000000   -0.000000
    1.618773    0.239305    0.239305    0.239305   -0.000000    0.000000   -0.000000
    1.642233    0.247813    0.247813    0.247813   -0.000000    0.000000   -0.000000
    1.665694    0.256811    0.256811    0.256811   -0.000000    0.000000   -0.000000
    1.689154    0.266320    0.266320    0.266320   -0.000000    0.000000   -0.000000
    1.712615    0.276367    0.276367    0.276367   -0.000000    0.000000   -0.000000
    1.736075    0.286975    0.286975    0.286975   -0.000000    0.000000   -0.000000
    1.759536    0.298172    0.298172    0.298172   -0.000000    0.000000   -0.000000
    1.782996    0.309988    0.309988    0.309988   -0.000000    0.000000   -0.000000
    1.806457    0.322456    0.322456    0.322456   -0.000000    0.000000   -0.000000
    1.829917    0.335611    0.335611    0.335611   -0.000000    0.000000   -0.000000
    1.853378    0.349494    0.349494    0.349494   -0.000000    0.000000   -0.000000
    1.876838    0.364145    0.364145    0.364145   -0.000000    0.000000   -0.000000
    1.900299    0.379609    0.379609    0.379609   -0.000000    0.000000   -0.000000
    1.923759    0.395933    0.395933    0.395933   -0.000000    0.000000   -0.000000
    1.947219    0.413170    0.413170    0.413170   -0.000000    0.000000   -0.000000
    1.970680    0.431378    0.431378    0.431378   -0.000000    0.000000   -0.000000
    1.994140    0.450624    0.450624    0.450624   -0.000000    0.000000    0.000000
    2.017601    0.470981    0.470981    0.470981   -0.000000    0.000000    0.000000
    2.041061    0.492531    0.492531    0.492531   -0.000000    0.000000    0.000000
    2.064522    0.515358    0.515358    0.515358   -0.000000    0.000000    0.000000
    2.087982    0.539557    0.539557    0.539557    0.000000    0.000000    0.000000
    2.111443    0.565231    0.565231    0.565231    0.000000    0.000000    0.000000
    2.134903    0.592503    0.592503    0.592503    0.000000    0.000000   -0.000000
    2.158364    0.621514    0.621514    0.621514    0.000000    0.000000   -0.000000
    2.181824    0.652442    0.652442    0.652442    0.000000    0.000000   -0.000000
    2.205285    0.685503    0.685503    0.685503    0.000000    0.000000   -0.000000
    2.228745    0.720957    0.720957    0.720957    0.000000    0.000000   -0.000000
    2.252206    0.759099    0.759099    0.759099    0.000000    0.000000   -0.000000
    2.275666    0.800213    0.800213    0.800213    0.000000    0.000000   -0.000000
    2.299127    0.844514    0.844514    0.844514    0.000000    0.000000   -0.000000
    2.322587    0.892114    0.892114    0.892114    0.000000    0.000000   -0.000000
    2.346048    0.943038    0.943038    0.943038   -0.000000    0.000000   -0.000000
    2.369508    0.997285    0.997285    0.997285   -0.000000    0.000000   -0.000000
    2.392969    1.054858    1.054858    1.054858   -0.000000    0.000000   -0.000000
    2.416429    1.115785    1.115785    1.115785   -0.000000    0.000000   -0.000000
    2.439889    1.180126    1.180126    1.180126   -0.000000    0.000000   -0.000000
    2.463350    1.247972    1.247972    1.247972   -0.000000    0.000000   -0.000000
    2.486810    1.319462    1.319462    1.319462   -0.000000   -0.000000   -0.000000
    2.510271    1.394804    1.394804    1.394804   -0.000000   -0.000000   -0.000000
    2.533731    1.474307    1.474307    1.474307    0.000000   -0.000000   -0.000000
    2.557192    1.558410    1.558410    1.558410    0.000000   -0.000000   -0.000000
    2.580652    1.647684    1.647684    1.647684    0.000000    0.000000   -0.000000
    2.604113    1.742814    1.742814    1.742814    0.000000    0.000000   -0.000000
    2.627573    1.844560    1.844560    1.844560    0.000000    0.000000   -0.000000
    2.651034    1.953724    1.953724    1.953724    0.000000    0.000000   -0.000000
    2.674494    2.071154    2.071154    2.071154    0.000000    0.000000   -0.000000
    2.697955    2.197777    2.197777    2.197777    0.000000    0.000000   -0.000000
    2.721415    2.334661    2.334661    2.334661    0.000000    0.000000   -0.000000
    2.744876    2.483105    2.483105    2.483105    0.000000    0.000000   -0.000000
    2.768336    2.644747    2.644747    2.644747    0.000000    0.000000   -0.000000
    2.791797    2.821734    2.821734    2.821734   -0.000000    0.000000   -0.000000
    2.815257    3.016940    3.016940    3.016940   -0.000000    0.000000   -0.000000
    2.838718    3.234276    3.234276    3.234276    0.000000    0.000000   -0.000000
    2.862178    3.479110    3.479110    3.479110    0.000000    0.000000   -0.000000
    2.885639    3.758726    3.758726    3.758726    0.000000    0.000000   -0.000000
    2.909099    4.082604    4.082604    4.082604    0.000000    0.000000   -0.000000
    2.932559    4.461557    4.461557    4.461557   -0.000000    0.000000   -0.000000
    2.956020    4.903197    4.903197    4.903197   -0.000000    0.000000   -0.000000
    2.979480    5.399302    5.399302    5.399302   -0.000000    0.000000   -0.000000
    3.002941    5.906884    5.906884    5.906884   -0.000000    0.000000   -0.000000
    3.026401    6.350565    6.350565    6.350565   -0.000000    0.000000   -0.000000
    3.049862    6.676807    6.676807    6.676807   -0.000000    0.000000   -0.000000
    3.073322    6.901997    6.901997    6.901997   -0.000000    0.000000   -0.000000
    3.096783    7.079865    7.079865    7.079865   -0.000000    0.000000   -0.000000
    3.120243    7.248640    7.248640    7.248640   -0.000000    0.000000   -0.000000
    3.143704    7.420752    7.420752    7.420752    0.000000    0.000000   -0.000000
    3.167164    7.595596    7.595596    7.595596    0.000000   -0.000000   -0.000000
    3.190625    7.770393    7.770393    7.770393    0.000000   -0.000000   -0.000000
    3.214085    7.944934    7.944934    7.944934    0.000000   -0.000000   -0.000000
    3.237546    8.122504    8.122504    8.122504    0.000000   -0.000000   -0.000000
    3.261006    8.308648    8.308648    8.308648    0.000000   -0.000000   -0.000000
    3.284467    8.508769    8.508769    8.508769    0.000000   -0.000000   -0.000000
    3.307927    8.726311    8.726311    8.726311    0.000000   -0.000000   -0.000000
    3.331388    8.962870    8.962870    8.962870    0.000000   -0.000000   -0.000000
    3.354848    9.219527    9.219527    9.219527    0.000000   -0.000000   -0.000000
    3.378308    9.498071    9.498071    9.498071    0.000000   -0.000000   -0.000000
    3.401769    9.801788    9.801788    9.801788    0.000000   -0.000000    0.000000
    3.425229   10.135988   10.135988   10.135988    0.000000   -0.000000    0.000000
    3.448690   10.508237   10.508237   10.508237    0.000000   -0.000000    0.000000
    3.472150   10.927775   10.927775   10.927775    0.000000   -0.000000    0.000000
    3.495611   11.402875   11.402875   11.402875    0.000000   -0.000000    0.000000
    3.519071   11.934875   11.934875   11.934875    0.000000   -0.000000    0.000000
    3.542532   12.510691   12.510691   12.510691    0.000000   -0.000000    0.000000
    3.565992   13.100680   13.100680   13.100680    0.000000   -0.000000    0.000000
    3.589453   13.665267   13.665267   13.665267    0.000000   -0.000000   -0.000000
    3.612913   14.164322   14.164322   14.164322    0.000000   -0.000000   -0.000000
    3.636374   14.563465   14.563465   14.563465    0.000000    0.000000   -0.000000
    3.659834   14.836777   14.836777   14.836777    0.000000    0.000000   -0.000000
    3.683295   14.968988   14.968988   14.968988    0.000000    0.000000   -0.000000
    3.706755   14.961142   14.961142   14.961142    0.000000    0.000000   -0.000000
    3.730216   14.836513   14.836513   14.836513    0.000000    0.000000   -0.000000
    3.753676   14.635174   14.635174   14.635174   -0.000000    0.000000    0.000000
    3.777137   14.398136   14.398136   14.398136   -0.000000    0.000000    0.000000
    3.800597   14.158459   14.158459   14.158459   -0.000000    0.000000    0.000000
    3.824058   13.943388   13.943388   13.943388   -0.000000    0.000000    0.000000
    3.847518   13.778167   13.778167   13.778167   -0.000000    0.000000    0.000000
    3.870978   13.685508   13.685508   13.685508   -0.000000    0.000000    0.000000
    3.894439   13.678845   13.678845   13.678845   -0.000000    0.000000    0.000000
    3.917899   13.752413   13.752413   13.752413   -0.000000    0.000000    0.000000
    3.941360   13.881782   13.881782   13.881782   -0.000000    0.000000    0.000000
    3.964820   14.045616   14.045616   14.045616   -0.000000    0.000000    0.000000
    3.988281   14.246092   14.246092   14.246092   -0.000000    0.000000    0.000000
    4.011741   14.501797   14.501797   14.501797   -0.000000    0.000000    0.000000
    4.035202   14.830820   14.830820   14.830820   -0.000000    0.000000   -0.000000
    4.058662   15.241650   15.241650   15.241650   -0.000000    0.000000   -0.000000
    4.082123   15.723420   15.723420   15.723420   -0.000000    0.000000   -0.000000
    4.105583   16.231500   16.231500   16.231500   -0.000000    0.000000   -0.000000
    4.129044   16.693088   16.693088   16.693088   -0.000000   -0.000000   -0.000000
    4.152504   17.059616   17.059616   17.059616   -0.000000   -0.000000   -0.000000
    4.175965   17.351601   17.351601   17.351601   -0.000000   -0.000000   -0.000000
    4.199425   17.627678   17.627678   17.627678   -0.000000   -0.000000   -0.000000
    4.222886   17.934017   17.934017   17.934017   -0.000000   -0.000000   -0.000000
    4.246346   18.292582   18.292582   18.292582   -0.000000   -0.000000   -0.000000
    4.269807   18.710174   18.710174   18.710174   -0.000000   -0.000000   -0.000000
    4.293267   19.183857   19.183857   19.183857   -0.000000   -0.000000    0.000000
    4.316728   19.698633   19.698633   19.698633   -0.000000   -0.000000    0.000000
    4.340188   20.225727   20.225727   20.225727   -0.000000   -0.000000    0.000000
    4.363648   20.733361   20.733361   20.733361   -0.000000   -0.000000    0.000000
    4.387109   21.204956   21.204956   21.204956   -0.000000   -0.000000    0.000000
    4.410569   21.643932   21.643932   21.643932   -0.000000   -0.000000    0.000000
    4.434030   22.064185   22.064185   22.064185   -0.000000   -0.000000    0.000000
    4.457490   22.482588   22.482588   22.482588   -0.000000   -0.000000    0.000000
    4.480951   22.918306   22.918306   22.918306   -0.000000   -0.000000    0.000000
    4.504411   23.393628   23.393628   23.393628   -0.000000   -0.000000    0.000000
    4.527872   23.932573   23.932573   23.932573   -0.000000   -0.000000    0.000000
    4.551332   24.555091   24.555091   24.555091   -0.000000   -0.000000    0.000000
    4.574793   25.263564   25.263564   25.263564   -0.000000   -0.000000    0.000000
    4.598253   26.022118   26.022118   26.022118   -0.000000   -0.000000    0.000000
    4.621714   26.742891   26.742891   26.742891   -0.000000   -0.000000    0.000000
    4.645174   27.305475   27.305475   27.305475   -0.000000   -0.000000    0.000000
    4.668635   27.618613   27.618613   27.618613   -0.000000   -0.000000    0.000000
    4.692095   27.665538   27.665538   27.665538   -0.000000   -0.000000    0.000000
    4.715556   27.476796   27.476796   27.476796   -0.000000   -0.000000    0.000000
    4.739016   27.089104   27.089104   27.089104   -0.000000   -0.000000    0.000000
    4.762477   26.540489   26.540489   26.540489   -0.000000   -0.000000    0.000000
    4.785937   25.875799   25.875799   25.875799   -0.000000   -0.000000    0.000000
    4.809398   25.144026   25.144026   25.144026   -0.000000   -0.000000    0.000000
    4.832858   24.393571   24.393571   24.393571   -0.000000   -0.000000    0.000000
    4.856318   23.671341   23.671341   23.671341   -0.000000   -0.000000    0.000000
    4.879779   23.022223   23.022223   23.022223   -0.000000   -0.000000    0.000000
    4.903239   22.480954   22.480954   22.480954   -0.000000   -0.000000    0.000000
    4.926700   22.060973   22.060973   22.060973   -0.000000   -0.000000    0.000000
    4.950160   21.754663   21.754663   21.754663    0.000000   -0.000000    0.000000
    4.973621   21.543643   21.543643   21.543643    0.000000   -0.000000    0.000000
    4.997081   21.408082   21.408082   21.408082    0.000000   -0.000000    0.000000
    5.020542   21.331352   21.331352   21.331352    0.000000   -0.000000    0.000000
    5.044002   21.300845   21.300845   21.300845    0.000000   -0.000000    0.000000
    5.067463   21.305554   21.305554   21.305554    0.000000   -0.000000    0.000000
    5.090923   21.332527   21.332527   21.332527   -0.000000   -0.000000    0.000000
    5.114384   21.367131   21.367131   21.367131   -0.000000   -0.000000   -0.000000
    5.137844   21.400455   21.400455   21.400455   -0.000000   -0.000000   -0.000000
    5.161305   21.434263   21.434263   21.434263   -0.000000   -0.000000   -0.000000
    5.184765   21.472696   21.472696   21.472696   -0.000000   -0.000000   -0.000000
    5.208226   21.510359   21.510359   21.510359   -0.000000   -0.000000   -0.000000
    5.231686   21.529058   21.529058   21.529058   -0.000000   -0.000000   -0.000000
    5.255147   21.505719   21.505719   21.505719   -0.000000   -0.000000   -0.000000
    5.278607   21.425629   21.425629   21.425629   -0.000000   -0.000000   -0.000000
    5.302067   21.289240   21.289240   21.289240   -0.000000   -0.000000   -0.000000
    5.325528   21.109220   21.109220   21.109220   -0.000000   -0.000000   -0.000000
    5.348988   20.902813   20.902813   20.902813   -0.000000   -0.000000   -0.000000
    5.372449   20.684171   20.684171   20.684171   -0.000000   -0.000000   -0.000000
    5.395909   20.459966   20.459966   20.459966   -0.000000    0.000000   -0.000000
    5.419370   20.229393   20.229393   20.229393   -0.000000    0.000000   -0.000000
    5.442830   19.987259   19.987259   19.987259   -0.000000   -0.000000   -0.000000
    5.466291   19.727643   19.727643   19.727643   -0.000000   -0.000000   -0.000000
    5.489751   19.446274   19.446274   19.446274   -0.000000   -0.000000   -0.000000
    5.513212   19.141501   19.141501   19.141501   -0.000000   -0.000000   -0.000000
    5.536672   18.813869   18.813869   18.813869   -0.000000   -0.000000   -0.000000
    5.560133   18.464196   18.464196   18.464196   -0.000000   -0.000000   -0.000000
    5.583593   18.091742   18.091742   18.091742   -0.000000   -0.000000   -0.000000
    5.607054   17.695218   17.695218   17.695218   -0.000000   -0.000000   -0.000000
    5.630514   17.277096   17.277096   17.277096   -0.000000   -0.000000   -0.000000
    5.653975   16.846498   16.846498   16.846498    0.000000   -0.000000   -0.000000
    5.677435   16.416965   16.416965   16.416965    0.000000    0.000000   -0.000000
    5.700896   16.001915   16.001915   16.001915    0.000000    0.000000   -0.000000
    5.724356   15.609927   15.609927   15.609927    0.000000    0.000000   -0.000000
    5.747817   15.241251   15.241251   15.241251    0.000000    0.000000   -0.000000
    5.771277   14.889332   14.889332   14.889332    0.000000    0.000000   -0.000000
    5.794737   14.548606   14.548606   14.548606    0.000000    0.000000   -0.000000
    5.818198   14.220832   14.220832   14.220832    0.000000    0.000000   -0.000000
    5.841658   13.913029   13.913029   13.913029    0.000000    0.000000   -0.000000
    5.865119   13.633915   13.633915   13.633915    0.000000    0.000000   -0.000000
    5.888579   13.394706   13.394706   13.394706    0.000000    0.000000   -0.000000
    5.912040   13.210030   13.210030   13.210030    0.000000    0.000000   -0.000000
    5.935500   13.093799   13.093799   13.093799    0.000000    0.000000   -0.000000
    5.958961   13.049184   13.049184   13.049184    0.000000    0.000000   -0.000000
    5.982421   13.059583   13.059583   13.059583    0.000000    0.000000   -0.000000
    6.005882   13.094393   13.094393   13.094393   -0.000000    0.000000   -0.000000
    6.029342   13.125124   13.125124   13.125124   -0.000000    0.000000   -0.000000
    6.052803   13.129567   13.129567   13.129567   -0.000000    0.000000   -0.000000
    6.076263   13.085121   13.085121   13.085121   -0.000000    0.000000   -0.000000
    6.099724   12.972222   12.972222   12.972222   -0.000000    0.000000   -0.000000
    6.123184   12.786196   12.786196   12.786196   -0.000000    0.000000   -0.000000
    6.146645   12.536297   12.536297   12.536297   -0.000000    0.000000   -0.000000
    6.170105   12.234760   12.234760   12.234760   -0.000000    0.000000   -0.000000
    6.193566   11.894032   11.894032   11.894032   -0.000000    0.000000   -0.000000
    6.217026   11.530953   11.530953   11.530953   -0.000000    0.000000   -0.000000
    6.240487   11.164410   11.164410   11.164410    0.000000    0.000000   -0.000000
    6.263947   10.807050   10.807050   10.807050    0.000000    0.000000   -0.000000
    6.287407   10.462173   10.462173   10.462173    0.000000    0.000000   -0.000000
    6.310868   10.127596   10.127596   10.127596    0.000000    0.000000   -0.000000
    6.334328    9.800200    9.800200    9.800200    0.000000    0.000000   -0.000000
    6.357789    9.477840    9.477840    9.477840    0.000000    0.000000   -0.000000
    6.381249    9.159788    9.159788    9.159788    0.000000    0.000000   -0.000000
    6.404710    8.846998    8.846998    8.846998    0.000000    0.000000   -0.000000
    6.428170    8.541738    8.541738    8.541738    0.000000    0.000000   -0.000000
    6.451631    8.246405    8.246405    8.246405    0.000000    0.000000   -0.000000
    6.475091    7.962701    7.962701    7.962701    0.000000    0.000000   -0.000000
    6.498552    7.691689    7.691689    7.691689    0.000000    0.000000   -0.000000
    6.522012    7.434216    7.434216    7.434216    0.000000   -0.000000   -0.000000
    6.545473    7.191365    7.191365    7.191365    0.000000   -0.000000   -0.000000
    6.568933    6.964760    6.964760    6.964760    0.000000   -0.000000   -0.000000
    6.592394    6.756316    6.756316    6.756316    0.000000    0.000000   -0.000000
    6.615854    6.566940    6.566940    6.566940    0.000000    0.000000   -0.000000
    6.639315    6.393823    6.393823    6.393823    0.000000    0.000000   -0.000000
[...]
   18.346092    0.272327    0.272327    0.272327    0.000000    0.000000   -0.000000
   18.369552    0.274550    0.274550    0.274550    0.000000    0.000000   -0.000000
   18.393013    0.276808    0.276808    0.276808    0.000000    0.000000   -0.000000
   18.416473    0.279098    0.279098    0.279098    0.000000    0.000000   -0.000000
   18.439934    0.281414    0.281414    0.281414    0.000000    0.000000   -0.000000
   18.463394    0.283752    0.283752    0.283752    0.000000    0.000000   -0.000000
   18.486855    0.286108    0.286108    0.286108    0.000000    0.000000   -0.000000
   18.510315    0.288478    0.288478    0.288478    0.000000    0.000000   -0.000000
   18.533776    0.290857    0.290857    0.290857    0.000000    0.000000   -0.000000
   18.557236    0.293240    0.293240    0.293240    0.000000    0.000000   -0.000000
   18.580697    0.295623    0.295623    0.295623    0.000000    0.000000   -0.000000
   18.604157    0.297999    0.297999    0.297999    0.000000    0.000000   -0.000000
   18.627618    0.300361    0.300361    0.300361    0.000000    0.000000   -0.000000
   18.651078    0.302704    0.302704    0.302704    0.000000    0.000000   -0.000000
   18.674539    0.305021    0.305021    0.305021    0.000000    0.000000   -0.000000
   18.697999    0.307312    0.307312    0.307312    0.000000    0.000000   -0.000000
   18.721460    0.309575    0.309575    0.309575    0.000000    0.000000   -0.000000
   18.744920    0.311811    0.311811    0.311811    0.000000    0.000000   -0.000000
   18.768380    0.314020    0.314020    0.314020    0.000000    0.000000   -0.000000
   18.791841    0.316204    0.316204    0.316204    0.000000    0.000000   -0.000000
   18.815301    0.318365    0.318365    0.318365    0.000000    0.000000   -0.000000
   18.838762    0.320504    0.320504    0.320504    0.000000    0.000000   -0.000000
   18.862222    0.322621    0.322621    0.322621    0.000000    0.000000   -0.000000
   18.885683    0.324718    0.324718    0.324718    0.000000    0.000000   -0.000000
   18.909143    0.326797    0.326797    0.326797    0.000000    0.000000   -0.000000
   18.932604    0.328857    0.328857    0.328857    0.000000    0.000000   -0.000000
   18.956064    0.330900    0.330900    0.330900    0.000000    0.000000   -0.000000
   18.979525    0.332927    0.332927    0.332927    0.000000    0.000000   -0.000000
   19.002985    0.334937    0.334937    0.334937    0.000000    0.000000   -0.000000
   19.026446    0.336932    0.336932    0.336932    0.000000    0.000000   -0.000000
   19.049906    0.338913    0.338913    0.338913    0.000000    0.000000   -0.000000
   19.073367    0.340878    0.340878    0.340878    0.000000    0.000000   -0.000000
   19.096827    0.342830    0.342830    0.342830    0.000000    0.000000   -0.000000
   19.120288    0.344769    0.344769    0.344769    0.000000    0.000000   -0.000000
   19.143748    0.346694    0.346694    0.346694    0.000000    0.000000   -0.000000
   19.167209    0.348607    0.348607    0.348607    0.000000    0.000000   -0.000000
   19.190669    0.350507    0.350507    0.350507    0.000000    0.000000   -0.000000
   19.214130    0.352395    0.352395    0.352395    0.000000    0.000000   -0.000000
   19.237590    0.354271    0.354271    0.354271    0.000000    0.000000   -0.000000
   19.261050    0.356136    0.356136    0.356136    0.000000    0.000000   -0.000000
   19.284511    0.357989    0.357989    0.357989    0.000000    0.000000   -0.000000
   19.307971    0.359832    0.359832    0.359832    0.000000    0.000000   -0.000000
   19.331432    0.361663    0.361663    0.361663    0.000000    0.000000   -0.000000
   19.354892    0.363484    0.363484    0.363484    0.000000    0.000000   -0.000000
   19.378353    0.365294    0.365294    0.365294    0.000000    0.000000   -0.000000
   19.401813    0.367094    0.367094    0.367094    0.000000    0.000000   -0.000000
   19.425274    0.368883    0.368883    0.368883    0.000000    0.000000   -0.000000
   19.448734    0.370663    0.370663    0.370663    0.000000    0.000000   -0.000000
   19.472195    0.372433    0.372433    0.372433    0.000000    0.000000   -0.000000
   19.495655    0.374194    0.374194    0.374194    0.000000    0.000000   -0.000000
   19.519116    0.375945    0.375945    0.375945    0.000000    0.000000   -0.000000
   19.542576    0.377686    0.377686    0.377686    0.000000    0.000000   -0.000000
   19.566037    0.379419    0.379419    0.379419    0.000000    0.000000   -0.000000
   19.589497    0.381142    0.381142    0.381142    0.000000    0.000000   -0.000000
   19.612958    0.382856    0.382856    0.382856    0.000000    0.000000   -0.000000
   19.636418    0.384562    0.384562    0.384562    0.000000    0.000000   -0.000000
   19.659879    0.386258    0.386258    0.386258    0.000000    0.000000   -0.000000
   19.683339    0.387946    0.387946    0.387946    0.000000    0.000000   -0.000000
   19.706800    0.389626    0.389626    0.389626    0.000000    0.000000   -0.000000
   19.730260    0.391297    0.391297    0.391297    0.000000    0.000000   -0.000000
   19.753720    0.392960    0.392960    0.392960    0.000000    0.000000   -0.000000
   19.777181    0.394615    0.394615    0.394615    0.000000    0.000000   -0.000000
   19.800641    0.396261    0.396261    0.396261    0.000000    0.000000   -0.000000
   19.824102    0.397900    0.397900    0.397900    0.000000    0.000000   -0.000000
   19.847562    0.399530    0.399530    0.399530    0.000000    0.000000   -0.000000
   19.871023    0.401153    0.401153    0.401153    0.000000    0.000000   -0.000000
   19.894483    0.402768    0.402768    0.402768    0.000000    0.000000   -0.000000
   19.917944    0.404375    0.404375    0.404375    0.000000    0.000000   -0.000000
   19.941404    0.405975    0.405975    0.405975    0.000000    0.000000   -0.000000
   19.964865    0.407567    0.407567    0.407567    0.000000    0.000000   -0.000000
   19.988325    0.409152    0.409152    0.409152    0.000000    0.000000   -0.000000
   20.011786    0.410729    0.410729    0.410729    0.000000    0.000000   -0.000000
   20.035246    0.412299    0.412299    0.412299    0.000000    0.000000   -0.000000
   20.058707    0.413861    0.413861    0.413861    0.000000    0.000000   -0.000000
   20.082167    0.415417    0.415417    0.415417    0.000000    0.000000   -0.000000
   20.105628    0.416965    0.416965    0.416965    0.000000    0.000000   -0.000000
   20.129088    0.418506    0.418506    0.418506    0.000000    0.000000   -0.000000
   20.152549    0.420041    0.420041    0.420041    0.000000    0.000000   -0.000000
   20.176009    0.421568    0.421568    0.421568    0.000000    0.000000   -0.000000
   20.199470    0.423088    0.423088    0.423088    0.000000    0.000000   -0.000000
   20.222930    0.424602    0.424602    0.424602    0.000000    0.000000   -0.000000
   20.246390    0.426109    0.426109    0.426109    0.000000    0.000000   -0.000000
   20.269851    0.427609    0.427609    0.427609    0.000000    0.000000   -0.000000
   20.293311    0.429103    0.429103    0.429103    0.000000    0.000000   -0.000000
   20.316772    0.430589    0.430589    0.430589    0.000000    0.000000   -0.000000
   20.340232    0.432070    0.432070    0.432070    0.000000    0.000000   -0.000000
   20.363693    0.433544    0.433544    0.433544    0.000000    0.000000   -0.000000
   20.387153    0.435011    0.435011    0.435011    0.000000    0.000000   -0.000000
   20.410614    0.436472    0.436472    0.436472    0.000000    0.000000   -0.000000
   20.434074    0.437927    0.437927    0.437927    0.000000    0.000000   -0.000000
   20.457535    0.439375    0.439375    0.439375    0.000000    0.000000   -0.000000
   20.480995    0.440818    0.440818    0.440818    0.000000    0.000000   -0.000000
   20.504456    0.442254    0.442254    0.442254    0.000000    0.000000   -0.000000
   20.527916    0.443684    0.443684    0.443684    0.000000    0.000000   -0.000000
   20.551377    0.445107    0.445107    0.445107    0.000000    0.000000   -0.000000
   20.574837    0.446525    0.446525    0.446525    0.000000    0.000000   -0.000000
   20.598298    0.447937    0.447937    0.447937    0.000000    0.000000   -0.000000
   20.621758    0.449343    0.449343    0.449343    0.000000    0.000000   -0.000000
   20.645219    0.450743    0.450743    0.450743    0.000000    0.000000   -0.000000
   20.668679    0.452136    0.452136    0.452136    0.000000    0.000000   -0.000000
   20.692139    0.453525    0.453525    0.453525    0.000000    0.000000   -0.000000
   20.715600    0.454907    0.454907    0.454907    0.000000    0.000000   -0.000000
   20.739060    0.456284    0.456284    0.456284    0.000000    0.000000   -0.000000
   20.762521    0.457654    0.457654    0.457654    0.000000    0.000000   -0.000000
   20.785981    0.459020    0.459020    0.459020    0.000000    0.000000   -0.000000
   20.809442    0.460379    0.460379    0.460379    0.000000    0.000000   -0.000000
   20.832902    0.461733    0.461733    0.461733    0.000000    0.000000   -0.000000
   20.856363    0.463081    0.463081    0.463081    0.000000    0.000000   -0.000000
   20.879823    0.464424    0.464424    0.464424    0.000000    0.000000   -0.000000
   20.903284    0.465762    0.465762    0.465762    0.000000    0.000000   -0.000000
   20.926744    0.467094    0.467094    0.467094    0.000000    0.000000   -0.000000
   20.950205    0.468420    0.468420    0.468420    0.000000    0.000000   -0.000000
   20.973665    0.469741    0.469741    0.469741    0.000000    0.000000   -0.000000
   20.997126    0.471057    0.471057    0.471057    0.000000    0.000000   -0.000000
   21.020586    0.472368    0.472368    0.472368    0.000000    0.000000   -0.000000
   21.044047    0.473673    0.473673    0.473673    0.000000    0.000000   -0.000000
   21.067507    0.474973    0.474973    0.474973    0.000000    0.000000   -0.000000
   21.090968    0.476268    0.476268    0.476268    0.000000    0.000000   -0.000000
   21.114428    0.477557    0.477557    0.477557    0.000000    0.000000   -0.000000
   21.137889    0.478842    0.478842    0.478842    0.000000    0.000000   -0.000000
   21.161349    0.480121    0.480121    0.480121    0.000000    0.000000   -0.000000
   21.184809    0.481395    0.481395    0.481395    0.000000    0.000000   -0.000000
   21.208270    0.482665    0.482665    0.482665    0.000000    0.000000   -0.000000
   21.231730    0.483929    0.483929    0.483929    0.000000    0.000000   -0.000000
   21.255191    0.485188    0.485188    0.485188    0.000000    0.000000   -0.000000
   21.278651    0.486442    0.486442    0.486442    0.000000    0.000000   -0.000000
   21.302112    0.487692    0.487692    0.487692    0.000000    0.000000   -0.000000
   21.325572    0.488936    0.488936    0.488936    0.000000    0.000000   -0.000000
   21.349033    0.490176    0.490176    0.490176    0.000000    0.000000   -0.000000
   21.372493    0.491411    0.491411    0.491411    0.000000    0.000000   -0.000000
   21.395954    0.492641    0.492641    0.492641    0.000000    0.000000   -0.000000
   21.419414    0.493866    0.493866    0.493866    0.000000    0.000000   -0.000000
   21.442875    0.495086    0.495086    0.495086    0.000000    0.000000   -0.000000
   21.466335    0.496302    0.496302    0.496302    0.000000    0.000000   -0.000000
   21.489796    0.497513    0.497513    0.497513    0.000000    0.000000   -0.000000
   21.513256    0.498720    0.498720    0.498720    0.000000    0.000000   -0.000000
   21.536717    0.499921    0.499921    0.499921    0.000000    0.000000   -0.000000
   21.560177    0.501119    0.501119    0.501119    0.000000    0.000000   -0.000000
   21.583638    0.502311    0.502311    0.502311    0.000000    0.000000   -0.000000
   21.607098    0.503499    0.503499    0.503499    0.000000    0.000000   -0.000000
   21.630559    0.504683    0.504683    0.504683    0.000000    0.000000   -0.000000
   21.654019    0.505862    0.505862    0.505862    0.000000    0.000000   -0.000000
   21.677479    0.507036    0.507036    0.507036    0.000000    0.000000   -0.000000
   21.700940    0.508206    0.508206    0.508206    0.000000    0.000000   -0.000000
   21.724400    0.509372    0.509372    0.509372    0.000000    0.000000   -0.000000
   21.747861    0.510533    0.510533    0.510533    0.000000    0.000000   -0.000000
   21.771321    0.511690    0.511690    0.511690    0.000000    0.000000   -0.000000
   21.794782    0.512843    0.512843    0.512843    0.000000    0.000000   -0.000000
   21.818242    0.513991    0.513991    0.513991    0.000000    0.000000   -0.000000
   21.841703    0.515135    0.515135    0.515135    0.000000    0.000000   -0.000000
   21.865163    0.516274    0.516274    0.516274    0.000000    0.000000   -0.000000
   21.888624    0.517410    0.517410    0.517410    0.000000    0.000000   -0.000000
   21.912084    0.518541    0.518541    0.518541    0.000000    0.000000   -0.000000
   21.935545    0.519668    0.519668    0.519668    0.000000    0.000000   -0.000000
   21.959005    0.520791    0.520791    0.520791    0.000000    0.000000   -0.000000
   21.982466    0.521909    0.521909    0.521909    0.000000    0.000000   -0.000000
   22.005926    0.523024    0.523024    0.523024    0.000000    0.000000   -0.000000
   22.029387    0.524134    0.524134    0.524134    0.000000    0.000000   -0.000000
   22.052847    0.525241    0.525241    0.525241    0.000000    0.000000   -0.000000
   22.076308    0.526343    0.526343    0.526343    0.000000    0.000000   -0.000000
   22.099768    0.527441    0.527441    0.527441    0.000000    0.000000   -0.000000
   22.123229    0.528535    0.528535    0.528535    0.000000    0.000000   -0.000000
   22.146689    0.529625    0.529625    0.529625    0.000000    0.000000   -0.000000
   22.170149    0.530711    0.530711    0.530711    0.000000    0.000000   -0.000000
   22.193610    0.531793    0.531793    0.531793    0.000000    0.000000   -0.000000
   22.217070    0.532872    0.532872    0.532872    0.000000    0.000000   -0.000000
   22.240531    0.533946    0.533946    0.533946    0.000000    0.000000   -0.000000
   22.263991    0.535017    0.535017    0.535017    0.000000    0.000000   -0.000000
   22.287452    0.536083    0.536083    0.536083    0.000000    0.000000   -0.000000
   22.310912    0.537146    0.537146    0.537146    0.000000    0.000000   -0.000000
   22.334373    0.538205    0.538205    0.538205    0.000000    0.000000   -0.000000
   22.357833    0.539260    0.539260    0.539260    0.000000    0.000000   -0.000000
   22.381294    0.540311    0.540311    0.540311    0.000000    0.000000   -0.000000
   22.404754    0.541358    0.541358    0.541358    0.000000    0.000000   -0.000000
   22.428215    0.542402    0.542402    0.542402    0.000000    0.000000   -0.000000
   22.451675    0.543442    0.543442    0.543442    0.000000    0.000000   -0.000000
   22.475136    0.544478    0.544478    0.544478    0.000000    0.000000   -0.000000
   22.498596    0.545511    0.545511    0.545511    0.000000    0.000000   -0.000000
   22.522057    0.546540    0.546540    0.546540    0.000000    0.000000   -0.000000
   22.545517    0.547565    0.547565    0.547565    0.000000    0.000000   -0.000000
   22.568978    0.548587    0.548587    0.548587    0.000000    0.000000   -0.000000
   22.592438    0.549605    0.549605    0.549605    0.000000    0.000000   -0.000000
   22.615898    0.550619    0.550619    0.550619    0.000000    0.000000   -0.000000
   22.639359    0.551630    0.551630    0.551630    0.000000    0.000000   -0.000000
   22.662819    0.552637    0.552637    0.552637    0.000000    0.000000   -0.000000
   22.686280    0.553641    0.553641    0.553641    0.000000    0.000000   -0.000000
   22.709740    0.554641    0.554641    0.554641    0.000000    0.000000   -0.000000
   22.733201    0.555638    0.555638    0.555638    0.000000    0.000000   -0.000000
   22.756661    0.556631    0.556631    0.556631    0.000000    0.000000   -0.000000
   22.780122    0.557620    0.557620    0.557620    0.000000    0.000000   -0.000000
   22.803582    0.558607    0.558607    0.558607    0.000000    0.000000   -0.000000
   22.827043    0.559589    0.559589    0.559589    0.000000    0.000000   -0.000000
   22.850503    0.560569    0.560569    0.560569    0.000000    0.000000   -0.000000
   22.873964    0.561545    0.561545    0.561545    0.000000    0.000000   -0.000000
   22.897424    0.562517    0.562517    0.562517    0.000000    0.000000   -0.000000
   22.920885    0.563486    0.563486    0.563486    0.000000    0.000000   -0.000000
   22.944345    0.564452    0.564452    0.564452    0.000000    0.000000   -0.000000
   22.967806    0.565414    0.565414    0.565414    0.000000    0.000000   -0.000000
   22.991266    0.566374    0.566374    0.566374    0.000000    0.000000   -0.000000
   23.014727    0.567329    0.567329    0.567329    0.000000    0.000000   -0.000000
   23.038187    0.568282    0.568282    0.568282    0.000000    0.000000   -0.000000
   23.061648    0.569231    0.569231    0.569231    0.000000    0.000000   -0.000000
   23.085108    0.570177    0.570177    0.570177    0.000000    0.000000   -0.000000
   23.108568    0.571120    0.571120    0.571120    0.000000    0.000000   -0.000000
   23.132029    0.572060    0.572060    0.572060    0.000000    0.000000   -0.000000
   23.155489    0.572996    0.572996    0.572996    0.000000    0.000000   -0.000000
   23.178950    0.573929    0.573929    0.573929    0.000000    0.000000   -0.000000
   23.202410    0.574859    0.574859    0.574859    0.000000    0.000000   -0.000000
   23.225871    0.575786    0.575786    0.575786    0.000000    0.000000   -0.000000
   23.249331    0.576709    0.576709    0.576709    0.000000    0.000000   -0.000000
   23.272792    0.577630    0.577630    0.577630    0.000000    0.000000   -0.000000
   23.296252    0.578547    0.578547    0.578547    0.000000    0.000000   -0.000000
   23.319713    0.579461    0.579461    0.579461    0.000000    0.000000   -0.000000
   23.343173    0.580373    0.580373    0.580373    0.000000    0.000000   -0.000000
   23.366634    0.581281    0.581281    0.581281    0.000000    0.000000   -0.000000
   23.390094    0.582186    0.582186    0.582186    0.000000    0.000000   -0.000000
   23.413555    0.583088    0.583088    0.583088    0.000000    0.000000   -0.000000
   23.437015    0.583987    0.583987    0.583987    0.000000    0.000000   -0.000000
 
 The outermost node in the dielectric function lies at epsilon=  16.3


--------------------------------------------------------------------------------------------------------


    OPTICS:  cpu time      0.1704: real time      0.1833
    4ORBIT:  cpu time      0.0000: real time      0.0000
 BZINTS: Fermi energy:    4.381036;   32.000000 electrons
         Band energy:-0.518155E+02;  BLOECHL correction:    0.000000

 total amount of memory used by VASP MPI-rank0    44405. kBytes
=======================================================================

   base      :      30000. kBytes
   nonl-proj :       8584. kBytes
   fftplans  :       1096. kBytes
   grid      :       2745. kBytes
   one-center:         64. kBytes
   wavefun   :       1916. kBytes
 
  
  
 General timing and accounting informations for this job:
 ========================================================
  
                  Total CPU time used (sec):        2.872
                            User time (sec):        1.593
                          System time (sec):        1.279
                         Elapsed time (sec):        3.599
  
                   Maximum memory used (kb):      132088.
                   Average memory used (kb):          N/A
  
                          Minor page faults:        13585
                          Major page faults:           36
                 Voluntary context switches:         2024
