 vasp.6.4.3 19Mar24 (build Aug 29 2024 15:27:20) complex                        
  
 executed on             LinuxIFC date 2025.03.19  10:34:14
 running    8 mpi-ranks, on    1 nodes
 distrk:  each k-point on    8 cores,    1 groups
 distr:  one band on NCORE=   1 cores,    8 groups


--------------------------------------------------------------------------------------------------------


 INCAR:
   SYSTEM = GaAs
   PREC = Normal
   ENCUT = 500
   ISMEAR = -5
   SIGMA = 0.1
   IBRION = 2
   LOPTICS = .TRUE.

 POTCAR:    PAW_PBE As 22Sep2009                  
 POTCAR:    PAW_PBE Ga 08Apr2002                  
 -----------------------------------------------------------------------------
|                                                                             |
|           W    W    AA    RRRRR   N    N  II  N    N   GGGG   !!!           |
|           W    W   A  A   R    R  NN   N  II  NN   N  G    G  !!!           |
|           W    W  A    A  R    R  N N  N  II  N N  N  G       !!!           |
|           W WW W  AAAAAA  RRRRR   N  N N  II  N  N N  G  GGG   !            |
|           WW  WW  A    A  R   R   N   NN  II  N   NN  G    G                |
|           W    W  A    A  R    R  N    N  II  N    N   GGGG   !!!           |
|                                                                             |
|     For optimal performance we recommend to set                             |
|       NCORE = 2 up to number-of-cores-per-socket                            |
|     NCORE specifies how many cores store one orbital (NPAR=cpu/NCORE).      |
|     This setting can greatly improve the performance of VASP for DFT.       |
|     The default, NCORE=1 might be grossly inefficient on modern             |
|     multi-core architectures or massively parallel machines. Do your        |
|     own testing! More info at https://www.vasp.at/wiki/index.php/NCORE      |
|     Unfortunately you need to use the default for GW and RPA                |
|     calculations (for HF NCORE is supported but not extensively tested      |
|     yet).                                                                   |
|                                                                             |
 -----------------------------------------------------------------------------

 POTCAR:    PAW_PBE As 22Sep2009                  
   VRHFIN =As: s2p3                                                                                 
   LEXCH  = PE                                                                                      
   EATOM  =   170.1867 eV,   12.5084 Ry                                                             
                                                                                                    
   TITEL  = PAW_PBE As 22Sep2009                                                                    
   LULTRA =        F    use ultrasoft PP ?                                                          
   IUNSCR =        1    unscreen: 0-lin 1-nonlin 2-no                                               
   RPACOR =    1.900    partial core radius                                                         
   POMASS =   74.922; ZVAL   =    5.000    mass and valenz                                          
   RCORE  =    2.100    outmost cutoff radius                                                       
   RWIGS  =    2.300; RWIGS  =    1.217    wigner-seitz radius (au A)                               
   ENMAX  =  208.702; ENMIN  =  156.526 eV                                                          
   ICORE  =        3    local potential                                                             
   LCOR   =        T    correct aug charges                                                         
   LPAW   =        T    paw PP                                                                      
   EAUG   =  462.758                                                                                
   DEXC   =    0.000                                                                                
   RMAX   =    2.144    core radius for proj-oper                                                   
   RAUG   =    1.300    factor for augmentation sphere                                              
   RDEP   =    2.140    radius for radial grids                                                     
   RDEPT  =    1.956    core radius for aug-charge                                                  
                                                                                                    
   Atomic configuration                                                                             
   10 entries                                                                                       
     n  l   j            E        occ.                                                              
     1  0  0.50    -11718.0418   2.0000                                                             
     2  0  0.50     -1486.5454   2.0000                                                             
     2  1  1.50     -1303.3889   6.0000                                                             
     3  0  0.50      -190.2849   2.0000                                                             
     3  1  1.50      -133.6555   6.0000                                                             
     3  2  2.50       -40.6443  10.0000                                                             
     4  0  0.50       -14.4936   2.0000                                                             
     4  1  0.50        -5.1947   3.0000                                                             
     4  2  1.50        -5.4423   0.0000                                                             
     4  3  2.50        -5.4423   0.0000                                                             
   Description                                                                                      
     l       E           TYP  RCUT    TYP  RCUT                                                     
     0    -14.4935570     23  2.100                                                                 
     0    -11.9212055     23  2.100                                                                 
     1     -5.1947127     23  2.100                                                                 
     1     27.2116520     23  2.100                                                                 
     2     -5.4423304     23  2.100                                                                 
     3     -1.3605826      7  2.100                                                                 
  local pseudopotential read in
  partial core-charges read in
  partial kinetic energy density read in
  atomic valenz-charges read in
  non local Contribution for L=           0  read in
    real space projection operators read in
  non local Contribution for L=           0  read in
    real space projection operators read in
  non local Contribution for L=           1  read in
    real space projection operators read in
  non local Contribution for L=           1  read in
    real space projection operators read in
  non local Contribution for L=           2  read in
    real space projection operators read in
    PAW grid and wavefunctions read in
 
   number of l-projection  operators is LMAX  =           5
   number of lm-projection operators is LMMAX =          13
 
 POTCAR:    PAW_PBE Ga 08Apr2002                  
   VRHFIN =Ga: s2p1                                                                                 
   LEXCH  = PE                                                                                      
   EATOM  =    58.8688 eV,    4.3267 Ry                                                             
                                                                                                    
   TITEL  = PAW_PBE Ga 08Apr2002                                                                    
   LULTRA =        F    use ultrasoft PP ?                                                          
   IUNSCR =        1    unscreen: 0-lin 1-nonlin 2-no                                               
   RPACOR =    2.170    partial core radius                                                         
   POMASS =   69.723; ZVAL   =    3.000    mass and valenz                                          
   RCORE  =    2.600    outmost cutoff radius                                                       
   RWIGS  =    2.650; RWIGS  =    1.402    wigner-seitz radius (au A)                               
   ENMAX  =  134.678; ENMIN  =  101.009 eV                                                          
   ICORE  =        3    local potential                                                             
   LCOR   =        T    correct aug charges                                                         
   LPAW   =        T    paw PP                                                                      
   EAUG   =  320.264                                                                                
   DEXC   =    0.000                                                                                
   RMAX   =    2.658    core radius for proj-oper                                                   
   RAUG   =    1.300    factor for augmentation sphere                                              
   RDEP   =    2.684    radius for radial grids                                                     
   RDEPT  =    2.308    core radius for aug-charge                                                  
                                                                                                    
   Atomic configuration                                                                             
   10 entries                                                                                       
     n  l   j            E        occ.                                                              
     1  0  0.50    -10228.7830   2.0000                                                             
     2  0  0.50     -1262.1604   2.0000                                                             
     2  1  1.50     -1098.6333   6.0000                                                             
     3  0  0.50      -148.1110   2.0000                                                             
     3  1  1.50       -98.8436   6.0000                                                             
     3  2  2.50       -19.1549  10.0000                                                             
     4  0  0.50        -8.9483   2.0000                                                             
     4  1  0.50        -2.5791   1.0000                                                             
     4  2  1.50         5.4423   0.0000                                                             
     4  3  2.50        -2.7416   0.0000                                                             
   Description                                                                                      
     l       E           TYP  RCUT    TYP  RCUT                                                     
     0     -8.9483097     23  2.600                                                                 
     0     -5.8232215     23  2.600                                                                 
     1     -2.5790793     23  2.600                                                                 
     1      5.2230115     23  2.600                                                                 
     2      1.3605826     23  2.600                                                                 
     3     -1.3605826      7  2.600                                                                 
  local pseudopotential read in
  partial core-charges read in
  partial kinetic energy density read in
  atomic valenz-charges read in
  non local Contribution for L=           0  read in
    real space projection operators read in
  non local Contribution for L=           0  read in
    real space projection operators read in
  non local Contribution for L=           1  read in
    real space projection operators read in
  non local Contribution for L=           1  read in
    real space projection operators read in
  non local Contribution for L=           2  read in
    real space projection operators read in
    PAW grid and wavefunctions read in
 
   number of l-projection  operators is LMAX  =           5
   number of lm-projection operators is LMMAX =          13
 
  PAW_PBE As 22Sep2009                  :
 energy of atom  1       EATOM= -170.1867
 kinetic energy error for atom=    0.0005 (will be added to EATOM!!)
  PAW_PBE Ga 08Apr2002                  :
 energy of atom  2       EATOM=  -58.8688
 kinetic energy error for atom=    0.0000 (will be added to EATOM!!)
 
 
 POSCAR: cubic gallium arsenide
  positions in direct lattice
  velocities in cartesian coordinates


 exchange-correlation table for PE
   RHO(1)=    0.500       N(1)  =     2000
   RHO(2)=  100.500       N(2)  =     4000
 


--------------------------------------------------------------------------------------------------------


 ion  position               nearest neighbor table
   1  0.000  0.000  0.000-   5 2.36   6 2.36   7 2.36   8 2.36
   2  0.500  0.500  0.000-   5 2.36   6 2.36   7 2.36   8 2.36
   3  0.500  0.000  0.500-   5 2.36   6 2.36   7 2.36   8 2.36
   4  0.000  0.500  0.500-   5 2.36   6 2.36   7 2.36   8 2.36
   5  0.250  0.250  0.250-   1 2.36   2 2.36   3 2.36   4 2.36
   6  0.750  0.250  0.750-   1 2.36   2 2.36   3 2.36   4 2.36
   7  0.750  0.750  0.250-   1 2.36   2 2.36   3 2.36   4 2.36
   8  0.250  0.750  0.750-   1 2.36   2 2.36   3 2.36   4 2.36
 
  LATTYP: Found a simple cubic cell.
 ALAT       =     5.4538789592
  
  Lattice vectors:
  
 A1 = (   5.4538789592,   0.0000000000,   0.0000000000)
 A2 = (   0.0000000000,   5.4538789592,   0.0000000000)
 A3 = (   0.0000000000,   0.0000000000,   5.4538789592)


Analysis of symmetry for initial positions (statically):
=====================================================================
 Subroutine PRICEL returns following result:
 
  LATTYP: Found a face centered cubic cell.
 ALAT       =     5.4538789592
  
  Lattice vectors:
  
 A1 = (   2.7269394796,  -2.7269394796,   0.0000000000)
 A2 = (   2.7269394796,   0.0000000000,   2.7269394796)
 A3 = (   0.0000000000,  -2.7269394796,   2.7269394796)
 
   4 primitive cells build up your supercell.
 

 Routine SETGRP: Setting up the symmetry group for a 
 simple cubic supercell.


 Subroutine GETGRP returns: Found 24 space group operations
 (whereof 24 operations were pure point group operations)
 out of a pool of 48 trial point group operations.


The static configuration has the point symmetry T_d .


Analysis of symmetry for dynamics (positions and initial velocities):
=====================================================================
 Subroutine PRICEL returns following result:
 
  LATTYP: Found a face centered cubic cell.
 ALAT       =     5.4538789592
  
  Lattice vectors:
  
 A1 = (   2.7269394796,  -2.7269394796,   0.0000000000)
 A2 = (   2.7269394796,   0.0000000000,   2.7269394796)
 A3 = (   0.0000000000,  -2.7269394796,   2.7269394796)
 
   4 primitive cells build up your supercell.
 

 Routine SETGRP: Setting up the symmetry group for a 
 simple cubic supercell.


 Subroutine GETGRP returns: Found 24 space group operations
 (whereof 24 operations were pure point group operations)
 out of a pool of 48 trial point group operations.


The dynamic configuration has the point symmetry T_d .


 Subroutine INISYM returns: Found 24 space group operations
 (whereof 24 operations are pure point group operations),
 and found     4 'primitive' translations


----------------------------------------------------------------------------------------

                                     Primitive cell                                     

  volume of cell :      40.5561

  direct lattice vectors                    reciprocal lattice vectors
     2.726939480 -2.726939480  0.000000000     0.183355738 -0.183355738 -0.183355738
     2.726939480  0.000000000  2.726939480     0.183355738  0.183355738  0.183355738
     0.000000000 -2.726939480  2.726939480    -0.183355738 -0.183355738  0.183355738

  length of vectors
     3.856474796  3.856474796  3.856474796     0.317581454  0.317581454  0.317581454

  position of ions in fractional coordinates (direct lattice)
     0.000000000  0.000000000  0.000000000
     0.750000000  0.750000000  0.750000000

  ion indices of the primitive-cell ions
   primitive index   ion index
                 1           1
                 2           5

----------------------------------------------------------------------------------------

 
 
 KPOINTS: Automatic mesh                          

Automatic generation of k-mesh.
 Grid dimensions read from file:
 generate k-points for:    5    5    5

 Generating k-lattice:

  Cartesian coordinates                     Fractional coordinates (reciprocal lattice)
     0.036671148  0.000000000  0.000000000     0.200000000  0.000000000  0.000000000
     0.000000000  0.036671148  0.000000000     0.000000000  0.200000000  0.000000000
     0.000000000  0.000000000  0.036671148     0.000000000  0.000000000  0.200000000

  Length of vectors
     0.036671148  0.036671148  0.036671148

  Shift w.r.t. Gamma in fractional coordinates (k-lattice)
     0.000000000  0.000000000  0.000000000

 TETIRR: Found     57 inequivalent tetrahedra from      750
 
 Subroutine IBZKPT returns following result:
 ===========================================
 
 Found     10 irreducible k-points:
 
 Following reciprocal coordinates:
            Coordinates               Weight
  0.000000  0.000000  0.000000      1.000000
  0.200000  0.000000  0.000000      6.000000
  0.400000  0.000000  0.000000      6.000000
  0.200000  0.200000  0.000000     12.000000
  0.400000  0.200000  0.000000     24.000000
  0.400000  0.400000  0.000000     12.000000
  0.200000  0.200000  0.200000      8.000000
  0.400000  0.200000  0.200000     24.000000
  0.400000  0.400000  0.200000     24.000000
  0.400000  0.400000  0.400000      8.000000
 
 Following cartesian coordinates:
            Coordinates               Weight
  0.000000  0.000000  0.000000      1.000000
  0.165020  0.000000  0.000000      6.000000
  0.330040  0.000000  0.000000      6.000000
  0.165020  0.165020  0.000000     12.000000
  0.330040  0.165020  0.000000     24.000000
  0.330040  0.330040  0.000000     12.000000
  0.165020  0.165020  0.165020      8.000000
  0.330040  0.165020  0.165020     24.000000
  0.330040  0.330040  0.165020     24.000000
  0.330040  0.330040  0.330040      8.000000
 


--------------------------------------------------------------------------------------------------------




 Dimension of arrays:
   k-points           NKPTS =     10   k-points in BZ     NKDIM =     10   number of bands    NBANDS=     24
   number of dos      NEDOS =    301   number of ions     NIONS =      8
   non local maximal  LDIM  =      5   non local SUM 2l+1 LMDIM =     13
   total plane-waves  NPLWV =  27000
   max r-space proj   IRMAX =      1   max aug-charges    IRDMAX=  12160
   dimension x,y,z NGX =    30 NGY =   30 NGZ =   30
   dimension x,y,z NGXF=    60 NGYF=   60 NGZF=   60
   support grid    NGXF=    60 NGYF=   60 NGZF=   60
   ions per type =               4   4
   NGX,Y,Z   is equivalent  to a cutoff of   9.14,  9.14,  9.14 a.u.
   NGXF,Y,Z  is equivalent  to a cutoff of  18.29, 18.29, 18.29 a.u.

 SYSTEM =  GaAs                                    
 POSCAR =  cubic gallium arsenide                  

 Startparameter for this run:
   NWRITE =      2    write-flag & timer
   PREC   = normal    normal or accurate (medium, high low for compatibility)
   ISTART =      1    job   : 0-new  1-cont  2-samecut
   ICHARG =      0    charge: 1-file 2-atom 10-const
   ISPIN  =      1    spin polarized calculation?
   LNONCOLLINEAR =      F non collinear calculations
   LSORBIT =      F    spin-orbit coupling
   INIWAV =      1    electr: 0-lowe 1-rand  2-diag
   LASPH  =      F    aspherical Exc in radial PAW
 Electronic Relaxation 1
   ENCUT  =  500.0 eV  36.75 Ry    6.06 a.u.   9.94  9.94  9.94*2*pi/ulx,y,z
   ENINI  =  500.0     initial cutoff
   ENAUG  =  462.8 eV  augmentation charge cutoff
   NELM   =     60;   NELMIN=  2; NELMDL=  0     # of ELM steps 
   EDIFF  = 0.1E-03   stopping-criterion for ELM
   LREAL  =      F    real-space projection
   NLSPLINE    = F    spline interpolate recip. space projectors
   LCOMPAT=      F    compatible to vasp.4.4
   GGA_COMPAT  = T    GGA compatible to vasp.4.4-vasp.4.6
   LMAXPAW     = -100 max onsite density
   LMAXMIX     =    2 max onsite mixed and CHGCAR
   VOSKOWN=      0    Vosko Wilk Nusair interpolation
   ROPT   =    0.00000   0.00000
 Ionic relaxation
   EDIFFG = 0.1E-02   stopping-criterion for IOM
   NSW    =      0    number of steps for IOM
   NBLOCK =      1;   KBLOCK =      1    inner block; outer block 
   IBRION =     -1    ionic relax: 0-MD 1-quasi-New 2-CG
   NFREE  =      1    steps in history (QN), initial steepest desc. (CG)
   ISIF   =      2    stress and relaxation
   IWAVPR =     10    prediction:  0-non 1-charg 2-wave 3-comb
   ISYM   =      2    0-nonsym 1-usesym 2-fastsym
   LCORR  =      T    Harris-Foulkes like correction to forces

   POTIM  = 0.5000    time-step for ionic-motion
   TEIN   =    0.0    initial temperature
   TEBEG  =    0.0;   TEEND  =   0.0 temperature during run
   SMASS  =  -3.00    Nose mass-parameter (am)
   estimated Nose-frequenzy (Omega)   =  0.10E-29 period in steps = 0.13E+47 mass=  -0.680E-27a.u.
   SCALEE = 1.0000    scale energy and forces
   NPACO  =    256;   APACO  = 10.0  distance and # of slots for P.C.
   PSTRESS=    0.0 pullay stress

  Mass of Ions in am
   POMASS =  74.92 69.72
  Ionic Valenz
   ZVAL   =   5.00  3.00
  Atomic Wigner-Seitz radii
   RWIGS  =  -1.00 -1.00
  virtual crystal weights 
   VCA    =   1.00  1.00
   NELECT =      32.0000    total number of electrons
   NUPDOWN=      -1.0000    fix difference up-down

 DOS related values:
   EMIN   =  10.00;   EMAX   =-10.00  energy-range for DOS
   EFERMI =   0.00;   METHOD = LEGACY      
   ISMEAR =    -5;   SIGMA  =   0.10  broadening in eV -4-tet -1-fermi 0-gaus

 Electronic relaxation 2 (details)
   IALGO  =     38    algorithm
   LDIAG  =      T    sub-space diagonalisation (order eigenvalues)
   LSUBROT=      F    optimize rotation matrix (better conditioning)
   TURBO    =      0    0=normal 1=particle mesh
   IRESTART =      0    0=no restart 2=restart with 2 vectors
   NREBOOT  =      0    no. of reboots
   NMIN     =      0    reboot dimension
   EREF     =   0.00    reference energy to select bands
   IMIX   =      4    mixing-type and parameters
     AMIX     =   0.40;   BMIX     =  1.00
     AMIX_MAG =   1.60;   BMIX_MAG =  1.00
     AMIN     =   0.10
     WC   =   100.;   INIMIX=   1;  MIXPRE=   1;  MAXMIX= -45

 Intra band minimization:
   WEIMIN = 0.0000     energy-eigenvalue tresh-hold
   EBREAK =  0.10E-05  absolut break condition
   DEPER  =   0.30     relativ break condition  

   TIME   =   0.40     timestep for ELM

  volume/ion in A,a.u.               =      20.28       136.84
  Fermi-wavevector in a.u.,A,eV,Ry     =   0.952985  1.800880 12.356541  0.908180
  Thomas-Fermi vector in A             =   2.081598
 
 Write flags
   LWAVE        =      T    write WAVECAR
   LDOWNSAMPLE  =      F    k-point downsampling of WAVECAR
   LCHARG       =      T    write CHGCAR
   LVTOT        =      F    write LOCPOT, total local potential
   LVHAR        =      F    write LOCPOT, Hartree potential only
   WRT_POTENTIAL= false  ! write potential to hdf5 file
   LELF         =      F    write electronic localiz. function (ELF)
   LORBIT       =      0    0 simple, 1 ext, 2 COOP (PROOUT), +10 PAW based schemes


 Dipole corrections
   LMONO      =      F    monopole corrections only (constant potential shift)
   LDIPOL     =      F    correct potential (dipole corrections)
   IDIPOL     =      0    1-x, 2-y, 3-z, 4-all directions 
   EPSILON    =  1.0000000 bulk dielectric constant
   LVACPOTAV  =      F  vacuum potentials using an averaging scheme for the charge density
   VACPOTFLAT =  0.1000000 required flatness to determine vacuum potential
 Exchange correlation treatment:
   GGA     = PE    functional components
   XC_C    = 1    coefficients multiplying the functional components
   LIBXC   =     F    Libxc                    
   VOSKOWN =     0    Vosko Wilk Nusair interpolation
   LHFCALC =     F    Hartree Fock is set to
   LHFONE  =     F    Hartree Fock one center treatment
   AEXX    =    0.0000 exact exchange contribution

 Parameters of functionals:
   PE:
     No parameter
 
 Van der Waals corrections
   IVDW    =     0    specifies the selected vdW correction

 Linear response parameters
   LEPSILON=     F    determine dielectric tensor
   LRPA    =     F    only Hartree local field effects (RPA)
   LNABLA  =     F    use nabla operator in PAW spheres
   LVEL    =     F    velocity operator in full k-point grid
   CSHIFT  =0.1000    complex shift for real part using Kramers Kronig
   OMEGAMAX=  -1.0    maximum frequency
   DEG_THRESHOLD= 0.2000000E-02 threshold for treating states as degnerate
   RTIME   =   -0.100 relaxation time in fs
  (WPLASMAI=    0.000 imaginary part of plasma frequency in eV, 0.658/RTIME)
   DFIELD  = 0.0000000 0.0000000 0.0000000 field for delta impulse in time
 
  Optional k-point grid parameters
   LKPOINTS_OPT  =     F    use optional k-point grid
   KPOINTS_OPT_MODE=     1    mode for optional k-point grid
 
 Orbital magnetization related:
   ORBITALMAG=     F  switch on orbital magnetization
   LCHIMAG   =     F  perturbation theory with respect to B field
   DQ        =  0.001000  dq finite difference perturbation B field
   LLRAUG    =     F  two centre corrections for induced B field
   LBONE     =     F  B-component reconstruction in AE one-centre
   LVGVCALC  =     T  calculate vGv susceptibility
   LVGVAPPL  =     F  apply vGv susceptibility instead of pGv for G=0

 Random number generation:
   RANDOM_GENERATOR = DEFAULT
   PCG_SEED         = not used


--------------------------------------------------------------------------------------------------------


 Static calculation
 charge density and potential will be updated during run
 non-spin polarized calculation
 Variant of blocked Davidson
 Davidson routine will perform the subspace rotation
 perform sub-space diagonalisation
    after iterative eigenvector-optimisation
 modified Broyden-mixing scheme, WC =      100.0
 initial mixing is a Kerker type mixing with AMIX =  0.4000 and BMIX =      1.0000
 Hartree-type preconditioning will be used
 using additional bands            8
 reciprocal scheme for non local part
 use partial core corrections
 calculate Harris-corrections to forces 
   (improved forces if not selfconsistent)
 use gradient corrections 
 use of overlap-Matrix (Vanderbilt PP)
 Fermi weights with tetrahedron method with Bloechl corrections


--------------------------------------------------------------------------------------------------------


  energy-cutoff  :      500.00
  volume of cell :      162.22
      direct lattice vectors                 reciprocal lattice vectors
     5.453878959  0.000000000  0.000000000     0.183355738  0.000000000  0.000000000
     0.000000000  5.453878959  0.000000000     0.000000000  0.183355738  0.000000000
     0.000000000  0.000000000  5.453878959     0.000000000  0.000000000  0.183355738

  length of vectors
     5.453878959  5.453878959  5.453878959     0.183355738  0.183355738  0.183355738


 
 old parameters found on file WAVECAR:
  energy-cutoff  :      500.00
  volume of cell :      169.52
      direct lattice vectors                 reciprocal lattice vectors
     5.534407977  0.000000000  0.000000000     0.180687800  0.000000000  0.000000000
     0.000000000  5.534407977  0.000000000     0.000000000  0.180687800  0.000000000
     0.000000000  0.000000000  5.534407977     0.000000000  0.000000000  0.180687800

  length of vectors

 
 k-points in units of 2pi/SCALE and weight: Automatic mesh                          
   0.00000000  0.00000000  0.00000000       0.008
   0.16502016  0.00000000  0.00000000       0.048
   0.33004033  0.00000000  0.00000000       0.048
   0.16502016  0.16502016  0.00000000       0.096
   0.33004033  0.16502016  0.00000000       0.192
   0.33004033  0.33004033  0.00000000       0.096
   0.16502016  0.16502016  0.16502016       0.064
   0.33004033  0.16502016  0.16502016       0.192
   0.33004033  0.33004033  0.16502016       0.192
   0.33004033  0.33004033  0.33004033       0.064
 
 k-points in reciprocal lattice and weights: Automatic mesh                          
   0.00000000  0.00000000  0.00000000       0.008
   0.20000000  0.00000000  0.00000000       0.048
   0.40000000  0.00000000  0.00000000       0.048
   0.20000000  0.20000000  0.00000000       0.096
   0.40000000  0.20000000  0.00000000       0.192
   0.40000000  0.40000000  0.00000000       0.096
   0.20000000  0.20000000  0.20000000       0.064
   0.40000000  0.20000000  0.20000000       0.192
   0.40000000  0.40000000  0.20000000       0.192
   0.40000000  0.40000000  0.40000000       0.064
 
 position of ions in fractional coordinates (direct lattice) 
   0.00000000  0.00000000  0.00000000
   0.50000000  0.50000000  0.00000000
   0.50000000  0.00000000  0.50000000
   0.00000000  0.50000000  0.50000000
   0.25000000  0.25000000  0.25000000
   0.75000000  0.25000000  0.75000000
   0.75000000  0.75000000  0.25000000
   0.25000000  0.75000000  0.75000000
 
 position of ions in cartesian coordinates  (Angst):
   0.00000000  0.00000000  0.00000000
   2.72693948  2.72693948  0.00000000
   2.72693948  0.00000000  2.72693948
   0.00000000  2.72693948  2.72693948
   1.36346974  1.36346974  1.36346974
   4.09040922  1.36346974  4.09040922
   4.09040922  4.09040922  1.36346974
   1.36346974  4.09040922  4.09040922
 


--------------------------------------------------------------------------------------------------------


 k-point     1 :   0.0000 0.0000 0.0000  plane waves:    4067
 k-point     2 :   0.2000 0.0000 0.0000  plane waves:    4096
 k-point     3 :   0.4000 0.0000 0.0000  plane waves:    4096
 k-point     4 :   0.2000 0.2000 0.0000  plane waves:    4098
 k-point     5 :   0.4000 0.2000 0.0000  plane waves:    4127
 k-point     6 :   0.4000 0.4000 0.0000  plane waves:    4106
 k-point     7 :   0.2000 0.2000 0.2000  plane waves:    4097
 k-point     8 :   0.4000 0.2000 0.2000  plane waves:    4130
 k-point     9 :   0.4000 0.4000 0.2000  plane waves:    4122
 k-point    10 :   0.4000 0.4000 0.4000  plane waves:    4119

 maximum and minimum number of plane-waves per node :      4130     4067

 maximum number of plane-waves:      4130
 maximum index in each direction: 
   IXMAX=    9   IYMAX=    9   IZMAX=    9
   IXMIN=  -10   IYMIN=  -10   IZMIN=  -10


 serial   3D FFT for wavefunctions
 parallel 3D FFT for charge:
    minimum data exchange during FFTs selected (reduces bandwidth)


 total amount of memory used by VASP MPI-rank0    45072. kBytes
=======================================================================

   base      :      30000. kBytes
   nonl-proj :       9132. kBytes
   fftplans  :       1096. kBytes
   grid      :       2745. kBytes
   one-center:         64. kBytes
   wavefun   :       2035. kBytes
 
     INWAV:  cpu time      0.0302: real time      0.0379
 Broyden mixing: mesh for mixing (old mesh)
   NGX = 19   NGY = 19   NGZ = 19
  (NGX  = 60   NGY  = 60   NGZ  = 60)
  gives a total of   6859 points

 charge density for first step will be calculated from the start-wavefunctions


--------------------------------------------------------------------------------------------------------


 Maximum index for augmentation-charges         1468 (set IRDMAX)


--------------------------------------------------------------------------------------------------------


 initial charge from wavefunction
 First call to EWALD:  gamma=   0.325
 Maximum number of real-space cells 3x 3x 3
 Maximum number of reciprocal cells 3x 3x 3

    FEWALD:  cpu time      0.0009: real time      0.0009


--------------------------------------- Ionic step        1  -------------------------------------------




--------------------------------------- Iteration      1(   1)  ---------------------------------------


    POTLOK:  cpu time      0.0136: real time      0.0169
    SETDIJ:  cpu time      0.0019: real time      0.0020
     EDDAV:  cpu time      0.2558: real time      0.2689
 BZINTS: Fermi energy:    3.865250;   32.000000 electrons
         Band energy:-0.602539E+02;  BLOECHL correction:    0.000000
       DOS:  cpu time      0.0004: real time      0.0004
    CHARGE:  cpu time      0.0123: real time      0.0126
    MIXING:  cpu time      0.0004: real time      0.0004
    --------------------------------------------
      LOOP:  cpu time      0.2845: real time      0.3012

 eigenvalue-minimisations  :   544
 total energy-change (2. order) :-0.3202127E+02  (-0.1715333E+00)
 number of electron      32.0000028 magnetization 
 augmentation part       -5.1871924 magnetization 

 Broyden mixing:
  rms(total) = 0.20120E+00    rms(broyden)= 0.20119E+00
  rms(prec ) = 0.27803E+00
  weight for this iteration     100.00

 Free energy of the ion-electron system (eV)
  ---------------------------------------------------
  alpha Z        PSCENC =        84.35132249
  Ewald energy   TEWEN  =      -950.20320259
  -Hartree energ DENC   =       -80.58828354
  -exchange      EXHF   =         0.00000000
  -V(xc)+E(xc)   XCENC  =      -119.82472612
  PAW double counting   =      2186.08999712    -2007.81215395
  entropy T*S    EENTRO =         0.00000000
  eigenvalues    EBANDS =       -60.25385437
  atomic energy  EATOM  =       916.21963040
  Solvation  Ediel_sol  =         0.00000000
  ---------------------------------------------------
  free energy    TOTEN  =       -32.02127057 eV

  energy without entropy =      -32.02127057  energy(sigma->0) =      -32.02127057


--------------------------------------------------------------------------------------------------------




--------------------------------------- Iteration      1(   2)  ---------------------------------------


    POTLOK:  cpu time      0.0138: real time      0.0149
    SETDIJ:  cpu time      0.0018: real time      0.0018
     EDDAV:  cpu time      0.2357: real time      0.2474
 BZINTS: Fermi energy:    3.827432;   32.000000 electrons
         Band energy:-0.621469E+02;  BLOECHL correction:    0.000000
       DOS:  cpu time      0.0003: real time      0.0003
    CHARGE:  cpu time      0.0123: real time      0.0125
    MIXING:  cpu time      0.0006: real time      0.0006
    --------------------------------------------
      LOOP:  cpu time      0.2645: real time      0.2776

 eigenvalue-minimisations  :   504
 total energy-change (2. order) : 0.4026182E-01  (-0.9595027E-02)
 number of electron      32.0000028 magnetization 
 augmentation part       -5.1896582 magnetization 

 Broyden mixing:
  rms(total) = 0.11975E+00    rms(broyden)= 0.11975E+00
  rms(prec ) = 0.15410E+00
  weight for this iteration     100.00

 eigenvalues of (default mixing * dielectric matrix)
  average eigenvalue GAMMA=   2.2972
  2.2972

 Free energy of the ion-electron system (eV)
  ---------------------------------------------------
  alpha Z        PSCENC =        84.35132249
  Ewald energy   TEWEN  =      -950.20320259
  -Hartree energ DENC   =       -78.73626965
  -exchange      EXHF   =         0.00000000
  -V(xc)+E(xc)   XCENC  =      -119.81091695
  PAW double counting   =      2288.00648773    -2109.66120327
  entropy T*S    EENTRO =         0.00000000
  eigenvalues    EBANDS =       -62.14685690
  atomic energy  EATOM  =       916.21963040
  Solvation  Ediel_sol  =         0.00000000
  ---------------------------------------------------
  free energy    TOTEN  =       -31.98100875 eV

  energy without entropy =      -31.98100875  energy(sigma->0) =      -31.98100875


--------------------------------------------------------------------------------------------------------




--------------------------------------- Iteration      1(   3)  ---------------------------------------


    POTLOK:  cpu time      0.0135: real time      0.0141
    SETDIJ:  cpu time      0.0017: real time      0.0018
     EDDAV:  cpu time      0.2345: real time      0.2460
 BZINTS: Fermi energy:    3.719260;   32.000000 electrons
         Band energy:-0.641019E+02;  BLOECHL correction:    0.000000
       DOS:  cpu time      0.0004: real time      0.0004
    CHARGE:  cpu time      0.0123: real time      0.0125
    MIXING:  cpu time      0.0005: real time      0.0005
    --------------------------------------------
      LOOP:  cpu time      0.2630: real time      0.2752

 eigenvalue-minimisations  :   496
 total energy-change (2. order) : 0.1303324E-01  (-0.6345506E-02)
 number of electron      32.0000028 magnetization 
 augmentation part       -5.2103032 magnetization 

 Broyden mixing:
  rms(total) = 0.14717E-01    rms(broyden)= 0.14717E-01
  rms(prec ) = 0.30653E-01
  weight for this iteration     100.00

 eigenvalues of (default mixing * dielectric matrix)
  average eigenvalue GAMMA=   1.4990
  0.9998  1.9981

 Free energy of the ion-electron system (eV)
  ---------------------------------------------------
  alpha Z        PSCENC =        84.35132249
  Ewald energy   TEWEN  =      -950.20320259
  -Hartree energ DENC   =       -76.89006092
  -exchange      EXHF   =         0.00000000
  -V(xc)+E(xc)   XCENC  =      -119.74018637
  PAW double counting   =      2413.81633434    -2235.41994253
  entropy T*S    EENTRO =         0.00000000
  eigenvalues    EBANDS =       -64.10187032
  atomic energy  EATOM  =       916.21963040
  Solvation  Ediel_sol  =         0.00000000
  ---------------------------------------------------
  free energy    TOTEN  =       -31.96797551 eV

  energy without entropy =      -31.96797551  energy(sigma->0) =      -31.96797551


--------------------------------------------------------------------------------------------------------




--------------------------------------- Iteration      1(   4)  ---------------------------------------


    POTLOK:  cpu time      0.0138: real time      0.0144
    SETDIJ:  cpu time      0.0018: real time      0.0018
     EDDAV:  cpu time      0.2396: real time      0.2513
 BZINTS: Fermi energy:    3.723041;   32.000000 electrons
         Band energy:-0.638488E+02;  BLOECHL correction:    0.000000
       DOS:  cpu time      0.0004: real time      0.0004
    CHARGE:  cpu time      0.0122: real time      0.0124
    MIXING:  cpu time      0.0005: real time      0.0005
    --------------------------------------------
      LOOP:  cpu time      0.2683: real time      0.2808

 eigenvalue-minimisations  :   512
 total energy-change (2. order) : 0.8058017E-03  (-0.3534735E-03)
 number of electron      32.0000028 magnetization 
 augmentation part       -5.2099229 magnetization 

 Broyden mixing:
  rms(total) = 0.86047E-02    rms(broyden)= 0.86047E-02
  rms(prec ) = 0.13734E-01
  weight for this iteration     100.00

 eigenvalues of (default mixing * dielectric matrix)
  average eigenvalue GAMMA=   1.6348
  2.2544  1.3250  1.3250

 Free energy of the ion-electron system (eV)
  ---------------------------------------------------
  alpha Z        PSCENC =        84.35132249
  Ewald energy   TEWEN  =      -950.20320259
  -Hartree energ DENC   =       -77.14719888
  -exchange      EXHF   =         0.00000000
  -V(xc)+E(xc)   XCENC  =      -119.72025276
  PAW double counting   =      2407.92622962    -2229.54487101
  entropy T*S    EENTRO =         0.00000000
  eigenvalues    EBANDS =       -63.84882697
  atomic energy  EATOM  =       916.21963040
  Solvation  Ediel_sol  =         0.00000000
  ---------------------------------------------------
  free energy    TOTEN  =       -31.96716971 eV

  energy without entropy =      -31.96716971  energy(sigma->0) =      -31.96716971


--------------------------------------------------------------------------------------------------------




--------------------------------------- Iteration      1(   5)  ---------------------------------------


    POTLOK:  cpu time      0.0137: real time      0.0142
    SETDIJ:  cpu time      0.0018: real time      0.0018
     EDDAV:  cpu time      0.2477: real time      0.2600
 BZINTS: Fermi energy:    3.719975;   32.000000 electrons
         Band energy:-0.639477E+02;  BLOECHL correction:    0.000000
       DOS:  cpu time      0.0003: real time      0.0004
    CHARGE:  cpu time      0.0122: real time      0.0124
    MIXING:  cpu time      0.0006: real time      0.0006
    --------------------------------------------
      LOOP:  cpu time      0.2764: real time      0.2895

 eigenvalue-minimisations  :   536
 total energy-change (2. order) : 0.1346272E-03  (-0.5314685E-04)
 number of electron      32.0000028 magnetization 
 augmentation part       -5.2118589 magnetization 

 Broyden mixing:
  rms(total) = 0.37086E-02    rms(broyden)= 0.37086E-02
  rms(prec ) = 0.38932E-02
  weight for this iteration     100.00

 eigenvalues of (default mixing * dielectric matrix)
  average eigenvalue GAMMA=   1.4631
  1.9147  1.4615  1.4615  1.0149

 Free energy of the ion-electron system (eV)
  ---------------------------------------------------
  alpha Z        PSCENC =        84.35132249
  Ewald energy   TEWEN  =      -950.20320259
  -Hartree energ DENC   =       -77.06638651
  -exchange      EXHF   =         0.00000000
  -V(xc)+E(xc)   XCENC  =      -119.69809157
  PAW double counting   =      2418.73338946    -2240.35595882
  entropy T*S    EENTRO =         0.00000000
  eigenvalues    EBANDS =       -63.94773793
  atomic energy  EATOM  =       916.21963040
  Solvation  Ediel_sol  =         0.00000000
  ---------------------------------------------------
  free energy    TOTEN  =       -31.96703508 eV

  energy without entropy =      -31.96703508  energy(sigma->0) =      -31.96703508


--------------------------------------------------------------------------------------------------------




--------------------------------------- Iteration      1(   6)  ---------------------------------------


    POTLOK:  cpu time      0.0135: real time      0.0140
    SETDIJ:  cpu time      0.0018: real time      0.0018
     EDDAV:  cpu time      0.1793: real time      0.1886
 BZINTS: Fermi energy:    3.720170;   32.000000 electrons
         Band energy:-0.639354E+02;  BLOECHL correction:    0.000000
       DOS:  cpu time      0.0004: real time      0.0004
    --------------------------------------------
      LOOP:  cpu time      0.1949: real time      0.2048

 eigenvalue-minimisations  :   296
 total energy-change (2. order) :-0.2821877E-05  (-0.1751355E-05)
 number of electron      32.0000028 magnetization 
 augmentation part       -5.2118589 magnetization 

 Free energy of the ion-electron system (eV)
  ---------------------------------------------------
  alpha Z        PSCENC =        84.35132249
  Ewald energy   TEWEN  =      -950.20320259
  -Hartree energ DENC   =       -77.07649378
  -exchange      EXHF   =         0.00000000
  -V(xc)+E(xc)   XCENC  =      -119.69908861
  PAW double counting   =      2416.13783034    -2237.76162122
  entropy T*S    EENTRO =         0.00000000
  eigenvalues    EBANDS =       -63.93541493
  atomic energy  EATOM  =       916.21963040
  Solvation  Ediel_sol  =         0.00000000
  ---------------------------------------------------
  free energy    TOTEN  =       -31.96703790 eV

  energy without entropy =      -31.96703790  energy(sigma->0) =      -31.96703790


--------------------------------------------------------------------------------------------------------




 average (electrostatic) potential at core
  the test charge radii are     1.0621  1.2767
  (the norm of the test charge is              1.0000)
       1 -50.6454       2 -50.6454       3 -50.6454       4 -50.6454       5 -13.7601
       6 -13.7601       7 -13.7601       8 -13.7601
 
 
 
 E-fermi :   3.7202     XC(G=0):  -9.6338     alpha+bet : -9.5352

 val. band max:        3.6999454461   @ k =   0.0000   0.0000   0.0000
 cond. band min:       4.9400127946   @ k =   0.0000   0.0000   0.0000
 fundamental gap:      1.2400673486
 Fermi energy:         3.7201699360

 k-point     1 :       0.0000    0.0000    0.0000
  band No.  band energies     occupation 
      1      -9.8387      2.00000
      2      -7.0249      2.00000
      3      -7.0249      2.00000
      4      -7.0249      2.00000
      5      -3.6220      2.00000
      6      -3.6220      2.00000
      7      -3.6220      2.00000
      8       0.6280      2.00000
      9       0.6280      2.00000
     10       0.6280      2.00000
     11       0.6280      2.00000
     12       0.6280      2.00000
     13       0.6280      2.00000
     14       3.6999      2.00000
     15       3.6999      2.00000
     16       3.6999      2.00000
     17       4.9400      0.00000
     18       4.9400      0.00000
     19       4.9400      0.00000
     20       5.1327      0.00000
     21       5.2969      0.00000
     22       5.2969      0.00000
     23       5.2969      0.00000
     24       7.4871      0.00000

 k-point     2 :       0.2000    0.0000    0.0000
  band No.  band energies     occupation 
      1      -9.6745      2.00000
      2      -7.5400      2.00000
      3      -7.0025      2.00000
      4      -7.0025      2.00000
      5      -3.5425      2.00000
      6      -3.5425      2.00000
      7      -2.8867      2.00000
      8       0.2336      2.00000
      9       0.2336      2.00000
     10       0.3057      2.00000
     11       0.3057      2.00000
     12       0.8116      2.00000
     13       0.8116      2.00000
     14       2.3048      2.00000
     15       3.1529      2.00000
     16       3.1529      2.00000
     17       4.9603      0.00000
     18       5.7444      0.00000
     19       5.7691      0.00000
     20       5.7691      0.00000
     21       6.1380      0.00000
     22       6.1380      0.00000
     23       6.4260      0.00000
     24       6.9893      0.00000

 k-point     3 :       0.4000    0.0000    0.0000
  band No.  band energies     occupation 
      1      -9.1921      2.00000
      2      -8.4341      2.00000
      3      -6.9653      2.00000
      4      -6.9653      2.00000
      5      -3.3942      2.00000
      6      -3.3942      2.00000
      7      -1.3485      2.00000
      8      -0.3111      2.00000
      9      -0.3111      2.00000
     10      -0.1096      2.00000
     11      -0.1096      2.00000
     12       0.4423      2.00000
     13       1.3482      2.00000
     14       1.3482      2.00000
     15       2.1833      2.00000
     16       2.1833      2.00000
     17       5.3014      0.00000
     18       5.9982      0.00000
     19       6.7237      0.00000
     20       7.5148      0.00000
     21       7.6719      0.00000
     22       7.6719      0.00000
     23       8.0507      0.00000
     24       8.0507      0.00000

 k-point     4 :       0.2000    0.2000    0.0000
  band No.  band energies     occupation 
      1      -9.5137      2.00000
      2      -7.4691      2.00000
      3      -7.4691      2.00000
      4      -7.0263      2.00000
      5      -3.4663      2.00000
      6      -2.9306      2.00000
      7      -2.9306      2.00000
      8      -0.5187      2.00000
      9       0.3244      2.00000
     10       0.3244      2.00000
     11       0.6701      2.00000
     12       0.6701      2.00000
     13       0.9356      2.00000
     14       1.2082      2.00000
     15       2.5820      2.00000
     16       3.5064      2.00000
     17       5.4121      0.00000
     18       5.8451      0.00000
     19       5.8451      0.00000
     20       6.3858      0.00000
     21       6.4918      0.00000
     22       6.4918      0.00000
     23       7.5949      0.00000
     24       7.7552      0.00000

 k-point     5 :       0.4000    0.2000    0.0000
  band No.  band energies     occupation 
      1      -9.0434      2.00000
      2      -8.3120      2.00000
      3      -7.2963      2.00000
      4      -7.1219      2.00000
      5      -3.2824      2.00000
      6      -3.0758      2.00000
      7      -1.6707      2.00000
      8      -0.8005      2.00000
      9      -0.4363      2.00000
     10      -0.2531      2.00000
     11       0.6151      2.00000
     12       0.7948      2.00000
     13       0.8651      2.00000
     14       1.5202      2.00000
     15       1.6027      2.00000
     16       2.6712      2.00000
     17       6.2176      0.00000
     18       6.5350      0.00000
     19       6.8525      0.00000
     20       7.2864      0.00000
     21       7.3788      0.00000
     22       7.7541      0.00000
     23       8.2403      0.00000
     24       8.9566      0.00000

 k-point     6 :       0.4000    0.4000    0.0000
  band No.  band energies     occupation 
      1      -8.6152      2.00000
      2      -7.9746      2.00000
      3      -7.9746      2.00000
      4      -7.5195      2.00000
      5      -2.9228      2.00000
      6      -2.3280      2.00000
      7      -2.3280      2.00000
      8      -1.3473      2.00000
      9      -0.7227      2.00000
     10      -0.1063      2.00000
     11      -0.1063      2.00000
     12       0.6378      2.00000
     13       1.7680      2.00000
     14       1.8356      2.00000
     15       1.8356      2.00000
     16       2.8007      2.00000
     17       6.2464      0.00000
     18       6.8710      0.00000
     19       7.3621      0.00000
     20       7.3621      0.00000
     21       8.3156      0.00000
     22       8.3156      0.00000
     23       8.8370      0.00000
     24       8.9291      0.00000

 k-point     7 :       0.2000    0.2000    0.2000
  band No.  band energies     occupation 
      1      -9.3573      2.00000
      2      -7.4309      2.00000
      3      -7.4309      2.00000
      4      -7.4309      2.00000
      5      -3.0337      2.00000
      6      -3.0337      2.00000
      7      -3.0337      2.00000
      8      -0.1286      2.00000
      9      -0.1286      2.00000
     10      -0.1286      2.00000
     11       0.2603      2.00000
     12       1.1043      2.00000
     13       1.1043      2.00000
     14       1.1043      2.00000
     15       3.1126      2.00000
     16       3.1126      2.00000
     17       5.6171      0.00000
     18       5.6171      0.00000
     19       5.6171      0.00000
     20       5.7444      0.00000
     21       7.7945      0.00000
     22       7.7945      0.00000
     23       7.7945      0.00000
     24       8.2691      0.00000

 k-point     8 :       0.4000    0.2000    0.2000
  band No.  band energies     occupation 
      1      -8.9025      2.00000
      2      -8.2057      2.00000
      3      -7.3656      2.00000
      4      -7.3656      2.00000
      5      -3.2193      2.00000
      6      -3.2193      2.00000
      7      -2.1230      2.00000
      8      -1.0112      2.00000
      9      -0.3168      2.00000
     10      -0.3168      2.00000
     11       0.9388      2.00000
     12       1.1248      2.00000
     13       1.1248      2.00000
     14       1.5911      2.00000
     15       2.3239      2.00000
     16       2.3253      2.00000
     17       6.1479      0.00000
     18       6.2929      0.00000
     19       6.6988      0.00000
     20       6.6988      0.00000
     21       7.8421      0.00000
     22       8.1866      0.00000
     23       8.7781      0.00000
     24       8.7781      0.00000

 k-point     9 :       0.4000    0.4000    0.2000
  band No.  band energies     occupation 
      1      -8.5020      2.00000
      2      -7.9258      2.00000
      3      -7.9258      2.00000
      4      -7.5935      2.00000
      5      -3.2518      2.00000
      6      -2.8408      2.00000
      7      -2.8408      2.00000
      8      -2.0652      2.00000
      9       0.0772      2.00000
     10       0.6231      2.00000
     11       0.6231      2.00000
     12       1.5366      2.00000
     13       1.8725      2.00000
     14       1.9161      2.00000
     15       1.9161      2.00000
     16       2.7193      2.00000
     17       6.0898      0.00000
     18       6.3192      0.00000
     19       6.7662      0.00000
     20       6.7662      0.00000
     21       7.9344      0.00000
     22       7.9344      0.00000
     23       8.5334      0.00000
     24       8.5704      0.00000

 k-point    10 :       0.4000    0.4000    0.4000
  band No.  band energies     occupation 
      1      -8.2016      2.00000
      2      -7.8408      2.00000
      3      -7.8408      2.00000
      4      -7.8408      2.00000
      5      -3.4095      2.00000
      6      -3.4095      2.00000
      7      -3.4095      2.00000
      8      -2.9663      2.00000
      9       1.5579      2.00000
     10       1.5579      2.00000
     11       1.5579      2.00000
     12       2.1473      2.00000
     13       2.1473      2.00000
     14       2.1473      2.00000
     15       2.4777      2.00000
     16       2.4777      2.00000
     17       5.1518      0.00000
     18       5.8875      0.00000
     19       5.8875      0.00000
     20       5.8875      0.00000
     21       8.0908      0.00000
     22       8.0908      0.00000
     23       8.0908      0.00000
     24       8.4415      0.00000


--------------------------------------------------------------------------------------------------------


 soft charge-density along one line, spin component           1
         0         1         2         3         4         5         6         7         8         9
 total charge-density along one line
 
 pseudopotential strength for first ion, spin component:           1
 23.434  28.010  -0.000  -0.000   0.000   0.000   0.000  -0.000
 28.010  33.485  -0.000  -0.000   0.000   0.000   0.000  -0.000
 -0.000  -0.000   5.519   0.000   0.000 -10.923  -0.000  -0.000
 -0.000  -0.000   0.000   5.519   0.000  -0.000 -10.923  -0.000
  0.000   0.000   0.000   0.000   5.519  -0.000  -0.000 -10.923
  0.000   0.000 -10.923  -0.000  -0.000  22.185   0.000   0.000
  0.000   0.000  -0.000 -10.923  -0.000   0.000  22.185   0.000
 -0.000  -0.000  -0.000  -0.000 -10.923   0.000   0.000  22.185
  0.000   0.000   0.000   0.003  -0.000  -0.000  -0.004   0.000
  0.000   0.000  -0.000  -0.000   0.003   0.000   0.000  -0.004
  0.000   0.000   0.000  -0.000  -0.000  -0.000   0.000   0.000
  0.000   0.000   0.003   0.000  -0.000  -0.004  -0.000   0.000
 -0.000  -0.000   0.000  -0.000   0.000  -0.000   0.000  -0.000
 total augmentation occupancy for first ion, spin component:           1
  6.014  -2.733   0.000   0.000   0.000  -0.000   0.000   0.000  -0.000   0.000  -0.000   0.000  -0.000
 -2.733   1.594   0.000  -0.000  -0.000  -0.000   0.000  -0.000   0.000   0.000   0.000  -0.000   0.000
 -0.000  -0.000   1.570   0.000   0.000   0.066  -0.000   0.000   0.000  -0.000   0.000   0.112   0.000
  0.000   0.000   0.000   1.570   0.000   0.000   0.066  -0.000   0.112  -0.000   0.000   0.000  -0.000
  0.000  -0.000   0.000   0.000   1.570  -0.000   0.000   0.066   0.000   0.112  -0.000  -0.000  -0.000
 -0.000  -0.000   0.066  -0.000  -0.000   0.003   0.000  -0.000   0.000   0.000  -0.000   0.005  -0.000
  0.000   0.000   0.000   0.066   0.000   0.000   0.003  -0.000   0.005   0.000   0.000   0.000   0.000
  0.000  -0.000   0.000  -0.000   0.066  -0.000   0.000   0.003   0.000   0.005  -0.000   0.000   0.000
 -0.000   0.000   0.000   0.112  -0.000   0.000   0.005   0.000   0.017  -0.000   0.000  -0.000   0.000
 -0.000   0.000   0.000   0.000   0.112   0.000  -0.000   0.005   0.000   0.017   0.000  -0.000  -0.000
 -0.000   0.000  -0.000   0.000   0.000  -0.000   0.000  -0.000   0.000   0.000   0.006  -0.000   0.000
  0.000  -0.000   0.112   0.000   0.000   0.005  -0.000   0.000   0.000   0.000   0.000   0.017   0.000
 -0.000   0.000   0.000  -0.000  -0.000   0.000   0.000  -0.000  -0.000  -0.000   0.000   0.000   0.006


------------------------ aborting loop because EDIFF is reached ----------------------------------------


    CHARGE:  cpu time      0.0123: real time      0.0125
    FORLOC:  cpu time      0.0010: real time      0.0010
    FORNL :  cpu time      0.0508: real time      0.0512
    STRESS:  cpu time      0.2980: real time      0.2998
    FORCOR:  cpu time      0.0136: real time      0.0140
    FORHAR:  cpu time      0.0034: real time      0.0035
    MIXING:  cpu time      0.0005: real time      0.0005
    OFIELD:  cpu time      0.0000: real time      0.0000

  FORCE on cell =-STRESS in cart. coord.  units (eV):
  Direction    XX          YY          ZZ          XY          YZ          ZX
  --------------------------------------------------------------------------------------
  Alpha Z    84.35132    84.35132    84.35132
  Ewald    -316.73490  -316.73490  -316.73490     0.00000     0.00000    -0.00000
  Hartree    25.68743    25.68743    25.68743    -0.00000    -0.00000    -0.00000
  E(xc)    -123.86915  -123.86915  -123.86915    -0.00000    -0.00000    -0.00000
  Local    -118.14169  -118.14169  -118.14169    -0.00000    -0.00000    -0.00000
  n-local   186.32329   188.28335   185.41362    -2.02171    -1.17165    -0.96280
  augment     8.22888     8.22888     8.22888     0.00000     0.00000     0.00000
  Kinetic   262.30923   273.61121   271.38484    -4.81961    -4.64775    -3.06308
  Fock        0.00000     0.00000     0.00000     0.00000     0.00000     0.00000
  -------------------------------------------------------------------------------------
  Total      15.29708    15.29708    15.29708     0.00000     0.00000    -0.00000
  in kB     151.07846   151.07846   151.07846     0.00000     0.00000    -0.00000
  external pressure =      151.08 kB  Pullay stress =        0.00 kB


 VOLUME and BASIS-vectors are now :
 -----------------------------------------------------------------------------
  energy-cutoff  :      500.00
  volume of cell :      162.22
      direct lattice vectors                 reciprocal lattice vectors
     5.453878959  0.000000000  0.000000000     0.183355738  0.000000000  0.000000000
     0.000000000  5.453878959  0.000000000     0.000000000  0.183355738  0.000000000
     0.000000000  0.000000000  5.453878959     0.000000000  0.000000000  0.183355738

  length of vectors
     5.453878959  5.453878959  5.453878959     0.183355738  0.183355738  0.183355738


 FORCES acting on ions
    electron-ion (+dipol)            ewald-force                    non-local-force                 convergence-correction
 -----------------------------------------------------------------------------------------------
   0.925E-15 0.125E-14 -.110E-13   0.000E+00 -.711E-14 0.355E-14   0.717E-17 -.756E-17 -.688E-17   -.101E-13 -.190E-14 -.430E-14
   0.129E-13 0.291E-12 -.251E-12   0.000E+00 -.355E-14 0.355E-14   0.747E-17 -.657E-17 0.261E-16   0.829E-14 0.230E-14 -.449E-14
   0.147E-13 0.124E-14 -.388E-13   0.000E+00 -.711E-14 0.355E-14   -.892E-17 -.219E-16 -.141E-16   0.921E-14 -.190E-14 0.516E-14
   -.107E-14 0.147E-13 0.399E-14   0.000E+00 -.355E-14 0.355E-14   0.182E-16 0.681E-17 -.850E-17   -.109E-13 0.241E-14 0.545E-14
   0.510E-15 -.448E-13 0.174E-13   -.437E-15 0.319E-14 -.384E-14   -.439E-19 0.503E-18 -.188E-17   -.617E-15 0.515E-15 -.228E-14
   0.998E-14 0.133E-12 0.156E-12   0.116E-15 0.321E-14 0.202E-15   -.501E-19 0.528E-18 -.749E-18   0.304E-14 0.559E-15 0.230E-14
   0.153E-13 0.183E-13 0.237E-12   0.282E-15 0.387E-14 -.372E-14   0.178E-17 -.805E-18 0.288E-17   0.303E-14 0.104E-14 -.192E-14
   0.144E-14 -.973E-14 0.768E-14   0.986E-16 0.389E-14 0.328E-15   0.895E-19 -.791E-18 0.138E-17   -.693E-15 0.903E-15 0.265E-14
 -----------------------------------------------------------------------------------------------
   0.546E-13 0.404E-12 0.121E-12   0.597E-16 -.715E-14 0.718E-14   0.257E-16 -.298E-16 -.175E-17   0.130E-14 0.392E-14 0.256E-14
 
 
 POSITION                                       TOTAL-FORCE (eV/Angst)
 -----------------------------------------------------------------------------------
      0.00000      0.00000      0.00000        -0.000000      0.000000     -0.000000
      2.72694      2.72694      0.00000         0.000000      0.000000      0.000000
      2.72694      0.00000      2.72694        -0.000000     -0.000000     -0.000000
      0.00000      2.72694      2.72694        -0.000000      0.000000      0.000000
      1.36347      1.36347      1.36347         0.000000     -0.000000     -0.000000
      4.09041      1.36347      4.09041         0.000000     -0.000000     -0.000000
      4.09041      4.09041      1.36347        -0.000000      0.000000      0.000000
      1.36347      4.09041      4.09041        -0.000000      0.000000     -0.000000
 -----------------------------------------------------------------------------------
    total drift:                                0.000000      0.000000      0.000000


--------------------------------------------------------------------------------------------------------



  FREE ENERGIE OF THE ION-ELECTRON SYSTEM (eV)
  ---------------------------------------------------
  free  energy   TOTEN  =       -31.96703790 eV

  energy  without entropy=      -31.96703790  energy(sigma->0) =      -31.96703790
 


--------------------------------------------------------------------------------------------------------


    POTLOK:  cpu time      0.0152: real time      0.0156


--------------------------------------------------------------------------------------------------------


 writing wavefunctions
     LOOP+:  cpu time      2.1629: real time      2.2796


--------------------------------------------------------------------------------------------------------



 plasma frequency squared (from intraband transitions) (eV^2)
  --------------------------------------------------------------------------------------
       0.000       0.000       0.000
       0.000       0.000       0.000
       0.000       0.000       0.000

 electrical conductivity sigma (Mega S m-1) (frequency dependency in vasprun.xml)
  --------------------------------------------------------------------------------------
       0.000       0.000       0.000
       0.000       0.000       0.000
       0.000       0.000       0.000

 plasma frequency squared (from interband transitions, int dw w eps(2)(w)) (eV^2)
  --------------------------------------------------------------------------------------
     212.055       0.000       0.000       0.000      -0.000       0.000
       0.000       0.000     212.055       0.000       0.000       0.000
      -0.000       0.000       0.000       0.000     212.055       0.000
  --------------------------------------------------------------------------------------
 sumrule: sum of plasma frequencies squared should yield (valence only):     271.992

 Anomalous Hall contribution (eV) 2/pi Imag((f_n-f_m)<u_m| d/dk_a u_n> <u_m| d/dk_b u_n>^*) 
  --------------------------------------------------------------------------------------
       0.000       0.000       0.000
       0.000       0.000       0.000
       0.000       0.000       0.000

  frequency dependent IMAGINARY DIELECTRIC FUNCTION (independent particle, no local field effects) density-density
     E(ev)      X         Y         Z        XY        YZ        ZX
  --------------------------------------------------------------------------------------------------------------
    0.000000    0.000000    0.000000    0.000000    0.000000    0.000000    0.000000
    0.022577    0.002856    0.002856    0.002856   -0.000000    0.000000   -0.000000
    0.045154    0.005714    0.005714    0.005714   -0.000000    0.000000   -0.000000
    0.067731    0.008575    0.008575    0.008575   -0.000000    0.000000   -0.000000
    0.090308    0.011440    0.011440    0.011440   -0.000000    0.000000   -0.000000
    0.112885    0.014312    0.014312    0.014312   -0.000000    0.000000   -0.000000
    0.135462    0.017191    0.017191    0.017191   -0.000000    0.000000   -0.000000
    0.158039    0.020080    0.020080    0.020080   -0.000000    0.000000   -0.000000
    0.180616    0.022981    0.022981    0.022981   -0.000000    0.000000   -0.000000
    0.203193    0.025893    0.025893    0.025893   -0.000000    0.000000   -0.000000
    0.225770    0.028820    0.028820    0.028820   -0.000000    0.000000   -0.000000
    0.248347    0.031764    0.031764    0.031764   -0.000000    0.000000   -0.000000
    0.270924    0.034725    0.034725    0.034725   -0.000000    0.000000   -0.000000
    0.293501    0.037705    0.037705    0.037705   -0.000000    0.000000   -0.000000
    0.316078    0.040707    0.040707    0.040707   -0.000000    0.000000   -0.000000
    0.338655    0.043732    0.043732    0.043732   -0.000000    0.000000   -0.000000
    0.361232    0.046782    0.046782    0.046782   -0.000000    0.000000   -0.000000
    0.383809    0.049859    0.049859    0.049859   -0.000000    0.000000   -0.000000
    0.406385    0.052965    0.052965    0.052965   -0.000000    0.000000   -0.000000
    0.428962    0.056102    0.056102    0.056102   -0.000000    0.000000   -0.000000
    0.451539    0.059273    0.059273    0.059273   -0.000000    0.000000   -0.000000
    0.474116    0.062478    0.062478    0.062478    0.000000    0.000000   -0.000000
    0.496693    0.065722    0.065722    0.065722    0.000000    0.000000   -0.000000
    0.519270    0.069005    0.069005    0.069005    0.000000    0.000000   -0.000000
    0.541847    0.072331    0.072331    0.072331    0.000000    0.000000   -0.000000
    0.564424    0.075703    0.075703    0.075703    0.000000    0.000000   -0.000000
    0.587001    0.079122    0.079122    0.079122    0.000000    0.000000   -0.000000
    0.609578    0.082591    0.082591    0.082591    0.000000    0.000000   -0.000000
    0.632155    0.086114    0.086114    0.086114    0.000000    0.000000   -0.000000
    0.654732    0.089694    0.089694    0.089694    0.000000    0.000000   -0.000000
    0.677309    0.093334    0.093334    0.093334    0.000000    0.000000   -0.000000
    0.699886    0.097037    0.097037    0.097037    0.000000    0.000000   -0.000000
    0.722463    0.100807    0.100807    0.100807    0.000000    0.000000   -0.000000
    0.745040    0.104648    0.104648    0.104648    0.000000    0.000000   -0.000000
    0.767617    0.108563    0.108563    0.108563    0.000000    0.000000   -0.000000
    0.790194    0.112558    0.112558    0.112558    0.000000    0.000000   -0.000000
    0.812771    0.116636    0.116636    0.116636    0.000000    0.000000   -0.000000
    0.835348    0.120803    0.120803    0.120803    0.000000    0.000000   -0.000000
    0.857925    0.125064    0.125064    0.125064    0.000000    0.000000   -0.000000
    0.880502    0.129424    0.129424    0.129424    0.000000    0.000000   -0.000000
    0.903079    0.133890    0.133890    0.133890    0.000000    0.000000   -0.000000
    0.925656    0.138467    0.138467    0.138467    0.000000    0.000000   -0.000000
    0.948233    0.143164    0.143164    0.143164    0.000000    0.000000   -0.000000
    0.970810    0.147986    0.147986    0.147986    0.000000    0.000000   -0.000000
    0.993387    0.152944    0.152944    0.152944    0.000000    0.000000   -0.000000
    1.015964    0.158046    0.158046    0.158046    0.000000    0.000000   -0.000000
    1.038541    0.163301    0.163301    0.163301    0.000000    0.000000   -0.000000
    1.061118    0.168722    0.168722    0.168722    0.000000    0.000000   -0.000000
    1.083695    0.174319    0.174319    0.174319    0.000000    0.000000   -0.000000
    1.106272    0.180107    0.180107    0.180107    0.000000    0.000000   -0.000000
    1.128849    0.186100    0.186100    0.186100    0.000000    0.000000   -0.000000
    1.151426    0.192317    0.192317    0.192317    0.000000    0.000000   -0.000000
    1.174003    0.198776    0.198776    0.198776    0.000000    0.000000   -0.000000
    1.196579    0.205499    0.205499    0.205499    0.000000    0.000000   -0.000000
    1.219156    0.212514    0.212514    0.212514    0.000000    0.000000   -0.000000
    1.241733    0.219849    0.219849    0.219849    0.000000    0.000000   -0.000000
    1.264310    0.227541    0.227541    0.227541    0.000000    0.000000   -0.000000
    1.286887    0.235633    0.235633    0.235633    0.000000    0.000000   -0.000000
    1.309464    0.244174    0.244174    0.244174    0.000000    0.000000   -0.000000
    1.332041    0.253228    0.253228    0.253228    0.000000    0.000000   -0.000000
    1.354618    0.262872    0.262872    0.262872    0.000000    0.000000   -0.000000
    1.377195    0.273202    0.273202    0.273202    0.000000    0.000000   -0.000000
    1.399772    0.284334    0.284334    0.284334    0.000000    0.000000   -0.000000
    1.422349    0.296411    0.296411    0.296411    0.000000    0.000000   -0.000000
    1.444926    0.309592    0.309592    0.309592    0.000000    0.000000   -0.000000
    1.467503    0.324044    0.324044    0.324044    0.000000    0.000000   -0.000000
    1.490080    0.339928    0.339928    0.339928    0.000000    0.000000   -0.000000
    1.512657    0.357385    0.357385    0.357385    0.000000    0.000000   -0.000000
    1.535234    0.376537    0.376537    0.376537    0.000000    0.000000   -0.000000
    1.557811    0.397482    0.397482    0.397482    0.000000    0.000000   -0.000000
    1.580388    0.420304    0.420304    0.420304    0.000000    0.000000   -0.000000
    1.602965    0.445074    0.445074    0.445074    0.000000    0.000000   -0.000000
    1.625542    0.471852    0.471852    0.471852    0.000000    0.000000   -0.000000
    1.648119    0.500693    0.500693    0.500693    0.000000    0.000000   -0.000000
    1.670696    0.531644    0.531644    0.531644    0.000000    0.000000   -0.000000
    1.693273    0.564750    0.564750    0.564750    0.000000    0.000000   -0.000000
    1.715850    0.600050    0.600050    0.600050    0.000000    0.000000   -0.000000
    1.738427    0.637585    0.637585    0.637585    0.000000    0.000000   -0.000000
    1.761004    0.677394    0.677394    0.677394    0.000000    0.000000   -0.000000
    1.783581    0.719515    0.719515    0.719515    0.000000    0.000000   -0.000000
    1.806158    0.763990    0.763990    0.763990   -0.000000    0.000000   -0.000000
    1.828735    0.810860    0.810860    0.810860   -0.000000    0.000000   -0.000000
    1.851312    0.860173    0.860173    0.860173   -0.000000    0.000000   -0.000000
    1.873889    0.911980    0.911980    0.911980   -0.000000    0.000000   -0.000000
    1.896466    0.966337    0.966337    0.966337   -0.000000    0.000000   -0.000000
    1.919043    1.023305    1.023305    1.023305   -0.000000    0.000000   -0.000000
    1.941620    1.082953    1.082953    1.082953   -0.000000    0.000000   -0.000000
    1.964197    1.145353    1.145353    1.145353   -0.000000    0.000000   -0.000000
    1.986773    1.210579    1.210579    1.210579   -0.000000    0.000000   -0.000000
    2.009350    1.278716    1.278716    1.278716   -0.000000    0.000000   -0.000000
    2.031927    1.349853    1.349853    1.349853   -0.000000    0.000000   -0.000000
    2.054504    1.424090    1.424090    1.424090   -0.000000    0.000000   -0.000000
    2.077081    1.501541    1.501541    1.501541   -0.000000    0.000000   -0.000000
    2.099658    1.582339    1.582339    1.582339    0.000000    0.000000   -0.000000
    2.122235    1.666638    1.666638    1.666638    0.000000    0.000000   -0.000000
    2.144812    1.754621    1.754621    1.754621    0.000000    0.000000   -0.000000
    2.167389    1.846507    1.846507    1.846507    0.000000    0.000000   -0.000000
    2.189966    1.942564    1.942564    1.942564    0.000000    0.000000   -0.000000
    2.212543    2.043118    2.043118    2.043118    0.000000    0.000000   -0.000000
    2.235120    2.148575    2.148575    2.148575    0.000000    0.000000   -0.000000
    2.257697    2.259440    2.259440    2.259440    0.000000    0.000000   -0.000000
    2.280274    2.376340    2.376340    2.376340    0.000000    0.000000   -0.000000
    2.302851    2.500043    2.500043    2.500043    0.000000    0.000000   -0.000000
    2.325428    2.631464    2.631464    2.631464    0.000000    0.000000   -0.000000
    2.348005    2.771648    2.771648    2.771648    0.000000    0.000000   -0.000000
    2.370582    2.921775    2.921775    2.921775    0.000000    0.000000   -0.000000
    2.393159    3.083213    3.083213    3.083213    0.000000    0.000000   -0.000000
    2.415736    3.257670    3.257670    3.257670   -0.000000    0.000000   -0.000000
    2.438313    3.447401    3.447401    3.447401   -0.000000    0.000000   -0.000000
    2.460890    3.655473    3.655473    3.655473   -0.000000    0.000000   -0.000000
    2.483467    3.886090    3.886090    3.886090   -0.000000    0.000000   -0.000000
    2.506044    4.145020    4.145020    4.145020    0.000000    0.000000   -0.000000
    2.528621    4.440072    4.440072    4.440072    0.000000    0.000000   -0.000000
    2.551198    4.781450    4.781450    4.781450    0.000000    0.000000   -0.000000
    2.573775    5.181365    5.181365    5.181365    0.000000    0.000000   -0.000000
    2.596352    5.651341    5.651341    5.651341    0.000000    0.000000   -0.000000
    2.618929    6.194340    6.194340    6.194340    0.000000    0.000000   -0.000000
    2.641506    6.789272    6.789272    6.789272    0.000000    0.000000   -0.000000
    2.664083    7.374551    7.374551    7.374551    0.000000    0.000000   -0.000000
    2.686660    7.858689    7.858689    7.858689    0.000000    0.000000   -0.000000
    2.709237    8.178520    8.178520    8.178520    0.000000    0.000000   -0.000000
    2.731814    8.345991    8.345991    8.345991    0.000000    0.000000   -0.000000
    2.754390    8.417716    8.417716    8.417716    0.000000    0.000000   -0.000000
    2.776967    8.442085    8.442085    8.442085    0.000000    0.000000   -0.000000
    2.799544    8.444716    8.444716    8.444716    0.000000    0.000000   -0.000000
    2.822121    8.438402    8.438402    8.438402    0.000000    0.000000   -0.000000
    2.844698    8.433123    8.433123    8.433123    0.000000    0.000000   -0.000000
    2.867275    8.439578    8.439578    8.439578    0.000000    0.000000   -0.000000
    2.889852    8.467760    8.467760    8.467760   -0.000000    0.000000   -0.000000
    2.912429    8.523873    8.523873    8.523873   -0.000000    0.000000   -0.000000
    2.935006    8.608979    8.608979    8.608979   -0.000000    0.000000   -0.000000
    2.957583    8.720343    8.720343    8.720343   -0.000000    0.000000   -0.000000
    2.980160    8.853689    8.853689    8.853689   -0.000000    0.000000   -0.000000
    3.002737    9.004736    9.004736    9.004736   -0.000000    0.000000   -0.000000
    3.025314    9.169865    9.169865    9.169865   -0.000000   -0.000000    0.000000
    3.047891    9.346371    9.346371    9.346371   -0.000000   -0.000000    0.000000
    3.070468    9.532491    9.532491    9.532491   -0.000000   -0.000000    0.000000
    3.093045    9.727293    9.727293    9.727293   -0.000000   -0.000000    0.000000
    3.115622    9.930524    9.930524    9.930524   -0.000000   -0.000000    0.000000
    3.138199   10.142536   10.142536   10.142536   -0.000000   -0.000000    0.000000
    3.160776   10.364292   10.364292   10.364292   -0.000000    0.000000    0.000000
    3.183353   10.597471   10.597471   10.597471   -0.000000    0.000000    0.000000
    3.205930   10.844644   10.844644   10.844644   -0.000000    0.000000    0.000000
    3.228507   11.109536   11.109536   11.109536   -0.000000    0.000000    0.000000
    3.251084   11.397295   11.397295   11.397295   -0.000000    0.000000    0.000000
    3.273661   11.714567   11.714567   11.714567   -0.000000   -0.000000    0.000000
    3.296238   12.068754   12.068754   12.068754   -0.000000   -0.000000    0.000000
    3.318815   12.465031   12.465031   12.465031   -0.000000    0.000000    0.000000
    3.341392   12.898915   12.898915   12.898915   -0.000000    0.000000    0.000000
    3.363969   13.344566   13.344566   13.344566   -0.000000    0.000000    0.000000
    3.386546   13.749215   13.749215   13.749215   -0.000000    0.000000    0.000000
    3.409123   14.051165   14.051165   14.051165    0.000000    0.000000    0.000000
    3.431700   14.214882   14.214882   14.214882    0.000000    0.000000    0.000000
    3.454277   14.249057   14.249057   14.249057    0.000000    0.000000    0.000000
    3.476854   14.193710   14.193710   14.193710    0.000000    0.000000    0.000000
    3.499431   14.095134   14.095134   14.095134    0.000000    0.000000    0.000000
    3.522008   13.990856   13.990856   13.990856    0.000000    0.000000    0.000000
    3.544584   13.907705   13.907705   13.907705    0.000000    0.000000    0.000000
    3.567161   13.864314   13.864314   13.864314    0.000000    0.000000    0.000000
    3.589738   13.873213   13.873213   13.873213   -0.000000    0.000000   -0.000000
    3.612315   13.942733   13.942733   13.942733   -0.000000    0.000000   -0.000000
    3.634892   14.079628   14.079628   14.079628   -0.000000    0.000000   -0.000000
    3.657469   14.290923   14.290923   14.290923   -0.000000    0.000000   -0.000000
    3.680046   14.581072   14.581072   14.581072   -0.000000    0.000000   -0.000000
    3.702623   14.941536   14.941536   14.941536   -0.000000    0.000000   -0.000000
    3.725200   15.337671   15.337671   15.337671   -0.000000    0.000000   -0.000000
    3.747777   15.714900   15.714900   15.714900   -0.000000    0.000000   -0.000000
    3.770354   16.040789   16.040789   16.040789   -0.000000    0.000000   -0.000000
    3.792931   16.335134   16.335134   16.335134   -0.000000    0.000000   -0.000000
    3.815508   16.635500   16.635500   16.635500   -0.000000    0.000000   -0.000000
    3.838085   16.948868   16.948868   16.948868   -0.000000   -0.000000   -0.000000
    3.860662   17.249272   17.249272   17.249272   -0.000000   -0.000000   -0.000000
    3.883239   17.506954   17.506954   17.506954   -0.000000   -0.000000   -0.000000
    3.905816   17.707795   17.707795   17.707795   -0.000000   -0.000000   -0.000000
    3.928393   17.850505   17.850505   17.850505   -0.000000   -0.000000   -0.000000
    3.950970   17.938621   17.938621   17.938621   -0.000000   -0.000000   -0.000000
    3.973547   17.979132   17.979132   17.979132   -0.000000   -0.000000   -0.000000
    3.996124   17.985250   17.985250   17.985250   -0.000000   -0.000000   -0.000000
    4.018701   17.978414   17.978414   17.978414   -0.000000   -0.000000   -0.000000
    4.041278   17.987643   17.987643   17.987643   -0.000000   -0.000000   -0.000000
    4.063855   18.046569   18.046569   18.046569   -0.000000   -0.000000   -0.000000
    4.086432   18.188280   18.188280   18.188280   -0.000000   -0.000000   -0.000000
    4.109009   18.438413   18.438413   18.438413   -0.000000   -0.000000   -0.000000
    4.131586   18.809631   18.809631   18.809631   -0.000000   -0.000000   -0.000000
    4.154163   19.300047   19.300047   19.300047   -0.000000   -0.000000   -0.000000
    4.176740   19.893487   19.893487   19.893487    0.000000   -0.000000   -0.000000
    4.199317   20.560782   20.560782   20.560782    0.000000   -0.000000   -0.000000
    4.221894   21.265744   21.265744   21.265744    0.000000   -0.000000   -0.000000
    4.244471   21.975071   21.975071   21.975071    0.000000   -0.000000   -0.000000
[...]
   17.655192    0.272248    0.272248    0.272248    0.000000    0.000000    0.000000
   17.677769    0.274452    0.274452    0.274452    0.000000    0.000000    0.000000
   17.700345    0.276707    0.276707    0.276707    0.000000    0.000000    0.000000
   17.722922    0.279002    0.279002    0.279002    0.000000    0.000000    0.000000
   17.745499    0.281329    0.281329    0.281329    0.000000    0.000000    0.000000
   17.768076    0.283679    0.283679    0.283679    0.000000    0.000000    0.000000
   17.790653    0.286047    0.286047    0.286047    0.000000    0.000000    0.000000
   17.813230    0.288428    0.288428    0.288428    0.000000    0.000000    0.000000
   17.835807    0.290818    0.290818    0.290818    0.000000    0.000000    0.000000
   17.858384    0.293215    0.293215    0.293215    0.000000    0.000000    0.000000
   17.880961    0.295615    0.295615    0.295615    0.000000    0.000000    0.000000
   17.903538    0.298016    0.298016    0.298016    0.000000    0.000000    0.000000
   17.926115    0.300415    0.300415    0.300415    0.000000    0.000000    0.000000
   17.948692    0.302808    0.302808    0.302808    0.000000    0.000000    0.000000
   17.971269    0.305192    0.305192    0.305192    0.000000    0.000000    0.000000
   17.993846    0.307562    0.307562    0.307562    0.000000    0.000000    0.000000
   18.016423    0.309912    0.309912    0.309912    0.000000    0.000000    0.000000
   18.039000    0.312239    0.312239    0.312239    0.000000    0.000000    0.000000
   18.061577    0.314539    0.314539    0.314539    0.000000    0.000000    0.000000
   18.084154    0.316812    0.316812    0.316812    0.000000    0.000000    0.000000
   18.106731    0.319056    0.319056    0.319056    0.000000    0.000000    0.000000
   18.129308    0.321273    0.321273    0.321273    0.000000    0.000000    0.000000
   18.151885    0.323463    0.323463    0.323463    0.000000    0.000000    0.000000
   18.174462    0.325629    0.325629    0.325629    0.000000    0.000000    0.000000
   18.197039    0.327772    0.327772    0.327772    0.000000    0.000000    0.000000
   18.219616    0.329892    0.329892    0.329892    0.000000    0.000000    0.000000
   18.242193    0.331991    0.331991    0.331991    0.000000    0.000000    0.000000
   18.264770    0.334070    0.334070    0.334070    0.000000    0.000000    0.000000
   18.287347    0.336130    0.336130    0.336130    0.000000    0.000000    0.000000
   18.309924    0.338171    0.338171    0.338171    0.000000    0.000000    0.000000
   18.332501    0.340195    0.340195    0.340195    0.000000    0.000000    0.000000
   18.355078    0.342203    0.342203    0.342203    0.000000    0.000000    0.000000
   18.377655    0.344194    0.344194    0.344194    0.000000    0.000000    0.000000
   18.400232    0.346170    0.346170    0.346170    0.000000    0.000000    0.000000
   18.422809    0.348130    0.348130    0.348130    0.000000    0.000000    0.000000
   18.445386    0.350076    0.350076    0.350076    0.000000    0.000000    0.000000
   18.467962    0.352008    0.352008    0.352008    0.000000    0.000000    0.000000
   18.490539    0.353927    0.353927    0.353927    0.000000    0.000000    0.000000
   18.513116    0.355832    0.355832    0.355832    0.000000    0.000000    0.000000
   18.535693    0.357724    0.357724    0.357724    0.000000    0.000000    0.000000
   18.558270    0.359603    0.359603    0.359603    0.000000    0.000000    0.000000
   18.580847    0.361471    0.361471    0.361471    0.000000    0.000000    0.000000
   18.603424    0.363326    0.363326    0.363326    0.000000    0.000000    0.000000
   18.626001    0.365169    0.365169    0.365169    0.000000    0.000000    0.000000
   18.648578    0.367001    0.367001    0.367001    0.000000    0.000000    0.000000
   18.671155    0.368822    0.368822    0.368822    0.000000    0.000000    0.000000
   18.693732    0.370632    0.370632    0.370632    0.000000    0.000000    0.000000
   18.716309    0.372431    0.372431    0.372431    0.000000    0.000000    0.000000
   18.738886    0.374220    0.374220    0.374220    0.000000    0.000000    0.000000
   18.761463    0.375998    0.375998    0.375998    0.000000    0.000000    0.000000
   18.784040    0.377766    0.377766    0.377766    0.000000    0.000000    0.000000
   18.806617    0.379523    0.379523    0.379523    0.000000    0.000000    0.000000
   18.829194    0.381271    0.381271    0.381271    0.000000    0.000000    0.000000
   18.851771    0.383010    0.383010    0.383010    0.000000    0.000000    0.000000
   18.874348    0.384738    0.384738    0.384738    0.000000    0.000000    0.000000
   18.896925    0.386458    0.386458    0.386458    0.000000    0.000000    0.000000
   18.919502    0.388168    0.388168    0.388168    0.000000    0.000000    0.000000
   18.942079    0.389868    0.389868    0.389868    0.000000    0.000000    0.000000
   18.964656    0.391560    0.391560    0.391560    0.000000    0.000000    0.000000
   18.987233    0.393243    0.393243    0.393243    0.000000    0.000000    0.000000
   19.009810    0.394917    0.394917    0.394917    0.000000    0.000000    0.000000
   19.032387    0.396583    0.396583    0.396583    0.000000    0.000000    0.000000
   19.054964    0.398240    0.398240    0.398240    0.000000    0.000000    0.000000
   19.077541    0.399889    0.399889    0.399889    0.000000    0.000000    0.000000
   19.100118    0.401529    0.401529    0.401529    0.000000    0.000000    0.000000
   19.122695    0.403161    0.403161    0.403161    0.000000    0.000000    0.000000
   19.145272    0.404785    0.404785    0.404785    0.000000    0.000000    0.000000
   19.167849    0.406400    0.406400    0.406400    0.000000    0.000000    0.000000
   19.190426    0.408008    0.408008    0.408008    0.000000    0.000000    0.000000
   19.213003    0.409608    0.409608    0.409608    0.000000    0.000000    0.000000
   19.235580    0.411200    0.411200    0.411200    0.000000    0.000000    0.000000
   19.258156    0.412785    0.412785    0.412785    0.000000    0.000000    0.000000
   19.280733    0.414362    0.414362    0.414362    0.000000    0.000000    0.000000
   19.303310    0.415931    0.415931    0.415931    0.000000    0.000000    0.000000
   19.325887    0.417493    0.417493    0.417493    0.000000    0.000000    0.000000
   19.348464    0.419048    0.419048    0.419048    0.000000    0.000000    0.000000
   19.371041    0.420595    0.420595    0.420595    0.000000    0.000000    0.000000
   19.393618    0.422135    0.422135    0.422135    0.000000    0.000000    0.000000
   19.416195    0.423668    0.423668    0.423668    0.000000    0.000000    0.000000
   19.438772    0.425193    0.425193    0.425193    0.000000    0.000000    0.000000
   19.461349    0.426712    0.426712    0.426712    0.000000    0.000000    0.000000
   19.483926    0.428223    0.428223    0.428223    0.000000    0.000000    0.000000
   19.506503    0.429728    0.429728    0.429728    0.000000    0.000000    0.000000
   19.529080    0.431226    0.431226    0.431226    0.000000    0.000000    0.000000
   19.551657    0.432717    0.432717    0.432717    0.000000    0.000000    0.000000
   19.574234    0.434202    0.434202    0.434202    0.000000    0.000000    0.000000
   19.596811    0.435679    0.435679    0.435679    0.000000    0.000000    0.000000
   19.619388    0.437150    0.437150    0.437150    0.000000    0.000000    0.000000
   19.641965    0.438615    0.438615    0.438615    0.000000    0.000000    0.000000
   19.664542    0.440073    0.440073    0.440073    0.000000    0.000000    0.000000
   19.687119    0.441524    0.441524    0.441524    0.000000    0.000000    0.000000
   19.709696    0.442970    0.442970    0.442970    0.000000    0.000000    0.000000
   19.732273    0.444408    0.444408    0.444408    0.000000    0.000000    0.000000
   19.754850    0.445841    0.445841    0.445841    0.000000    0.000000    0.000000
   19.777427    0.447267    0.447267    0.447267    0.000000    0.000000    0.000000
   19.800004    0.448687    0.448687    0.448687    0.000000    0.000000    0.000000
   19.822581    0.450101    0.450101    0.450101    0.000000    0.000000    0.000000
   19.845158    0.451509    0.451509    0.451509    0.000000    0.000000    0.000000
   19.867735    0.452911    0.452911    0.452911    0.000000    0.000000    0.000000
   19.890312    0.454307    0.454307    0.454307    0.000000    0.000000    0.000000
   19.912889    0.455697    0.455697    0.455697    0.000000    0.000000    0.000000
   19.935466    0.457081    0.457081    0.457081    0.000000    0.000000    0.000000
   19.958043    0.458459    0.458459    0.458459    0.000000    0.000000    0.000000
   19.980620    0.459831    0.459831    0.459831    0.000000    0.000000    0.000000
   20.003197    0.461197    0.461197    0.461197    0.000000    0.000000    0.000000
   20.025774    0.462558    0.462558    0.462558    0.000000    0.000000    0.000000
   20.048350    0.463913    0.463913    0.463913    0.000000    0.000000    0.000000
   20.070927    0.465262    0.465262    0.465262    0.000000    0.000000    0.000000
   20.093504    0.466606    0.466606    0.466606    0.000000    0.000000    0.000000
   20.116081    0.467944    0.467944    0.467944    0.000000    0.000000    0.000000
   20.138658    0.469277    0.469277    0.469277    0.000000    0.000000    0.000000
   20.161235    0.470604    0.470604    0.470604    0.000000    0.000000    0.000000
   20.183812    0.471925    0.471925    0.471925    0.000000    0.000000    0.000000
   20.206389    0.473241    0.473241    0.473241    0.000000    0.000000    0.000000
   20.228966    0.474552    0.474552    0.474552    0.000000    0.000000    0.000000
   20.251543    0.475858    0.475858    0.475858    0.000000    0.000000    0.000000
   20.274120    0.477158    0.477158    0.477158    0.000000    0.000000    0.000000
   20.296697    0.478453    0.478453    0.478453    0.000000    0.000000    0.000000
   20.319274    0.479742    0.479742    0.479742    0.000000    0.000000    0.000000
   20.341851    0.481026    0.481026    0.481026    0.000000    0.000000    0.000000
   20.364428    0.482306    0.482306    0.482306    0.000000    0.000000    0.000000
   20.387005    0.483580    0.483580    0.483580    0.000000    0.000000    0.000000
   20.409582    0.484849    0.484849    0.484849    0.000000    0.000000    0.000000
   20.432159    0.486112    0.486112    0.486112    0.000000    0.000000    0.000000
   20.454736    0.487371    0.487371    0.487371    0.000000    0.000000    0.000000
   20.477313    0.488625    0.488625    0.488625    0.000000    0.000000    0.000000
   20.499890    0.489874    0.489874    0.489874    0.000000    0.000000    0.000000
   20.522467    0.491118    0.491118    0.491118    0.000000    0.000000    0.000000
   20.545044    0.492356    0.492356    0.492356    0.000000    0.000000    0.000000
   20.567621    0.493590    0.493590    0.493590    0.000000    0.000000    0.000000
   20.590198    0.494820    0.494820    0.494820    0.000000    0.000000    0.000000
   20.612775    0.496044    0.496044    0.496044    0.000000    0.000000    0.000000
   20.635352    0.497264    0.497264    0.497264    0.000000    0.000000    0.000000
   20.657929    0.498478    0.498478    0.498478    0.000000    0.000000    0.000000
   20.680506    0.499688    0.499688    0.499688    0.000000    0.000000    0.000000
   20.703083    0.500894    0.500894    0.500894    0.000000    0.000000    0.000000
   20.725660    0.502094    0.502094    0.502094    0.000000    0.000000    0.000000
   20.748237    0.503290    0.503290    0.503290    0.000000    0.000000    0.000000
   20.770814    0.504482    0.504482    0.504482    0.000000    0.000000    0.000000
   20.793391    0.505668    0.505668    0.505668    0.000000    0.000000    0.000000
   20.815968    0.506851    0.506851    0.506851    0.000000    0.000000    0.000000
   20.838544    0.508028    0.508028    0.508028    0.000000    0.000000    0.000000
   20.861121    0.509201    0.509201    0.509201    0.000000    0.000000    0.000000
   20.883698    0.510370    0.510370    0.510370    0.000000    0.000000    0.000000
   20.906275    0.511534    0.511534    0.511534    0.000000    0.000000    0.000000
   20.928852    0.512694    0.512694    0.512694    0.000000    0.000000    0.000000
   20.951429    0.513849    0.513849    0.513849    0.000000    0.000000    0.000000
   20.974006    0.515000    0.515000    0.515000    0.000000    0.000000    0.000000
   20.996583    0.516147    0.516147    0.516147    0.000000    0.000000    0.000000
   21.019160    0.517289    0.517289    0.517289    0.000000    0.000000    0.000000
   21.041737    0.518427    0.518427    0.518427    0.000000    0.000000    0.000000
   21.064314    0.519560    0.519560    0.519560    0.000000    0.000000    0.000000
   21.086891    0.520690    0.520690    0.520690    0.000000    0.000000    0.000000
   21.109468    0.521815    0.521815    0.521815    0.000000    0.000000    0.000000
   21.132045    0.522936    0.522936    0.522936    0.000000    0.000000    0.000000
   21.154622    0.524053    0.524053    0.524053    0.000000    0.000000    0.000000
   21.177199    0.525165    0.525165    0.525165    0.000000    0.000000    0.000000
   21.199776    0.526273    0.526273    0.526273    0.000000    0.000000    0.000000
   21.222353    0.527378    0.527378    0.527378    0.000000    0.000000    0.000000
   21.244930    0.528478    0.528478    0.528478    0.000000    0.000000    0.000000
   21.267507    0.529574    0.529574    0.529574    0.000000    0.000000    0.000000
   21.290084    0.530666    0.530666    0.530666    0.000000    0.000000    0.000000
   21.312661    0.531754    0.531754    0.531754    0.000000    0.000000    0.000000
   21.335238    0.532838    0.532838    0.532838    0.000000    0.000000    0.000000
   21.357815    0.533918    0.533918    0.533918    0.000000    0.000000    0.000000
   21.380392    0.534994    0.534994    0.534994    0.000000    0.000000    0.000000
   21.402969    0.536067    0.536067    0.536067    0.000000    0.000000    0.000000
   21.425546    0.537135    0.537135    0.537135    0.000000    0.000000    0.000000
   21.448123    0.538199    0.538199    0.538199    0.000000    0.000000    0.000000
   21.470700    0.539260    0.539260    0.539260    0.000000    0.000000    0.000000
   21.493277    0.540316    0.540316    0.540316    0.000000    0.000000    0.000000
   21.515854    0.541369    0.541369    0.541369    0.000000    0.000000    0.000000
   21.538431    0.542418    0.542418    0.542418    0.000000    0.000000    0.000000
   21.561008    0.543463    0.543463    0.543463    0.000000    0.000000    0.000000
   21.583585    0.544504    0.544504    0.544504    0.000000    0.000000    0.000000
   21.606162    0.545542    0.545542    0.545542    0.000000    0.000000    0.000000
   21.628738    0.546576    0.546576    0.546576    0.000000    0.000000    0.000000
   21.651315    0.547606    0.547606    0.547606    0.000000    0.000000    0.000000
   21.673892    0.548633    0.548633    0.548633    0.000000    0.000000    0.000000
   21.696469    0.549655    0.549655    0.549655    0.000000    0.000000    0.000000
   21.719046    0.550674    0.550674    0.550674    0.000000    0.000000    0.000000
   21.741623    0.551690    0.551690    0.551690    0.000000    0.000000    0.000000
   21.764200    0.552702    0.552702    0.552702    0.000000    0.000000    0.000000
   21.786777    0.553710    0.553710    0.553710    0.000000    0.000000    0.000000
   21.809354    0.554715    0.554715    0.554715    0.000000    0.000000    0.000000
   21.831931    0.555716    0.555716    0.555716    0.000000    0.000000    0.000000
   21.854508    0.556714    0.556714    0.556714    0.000000    0.000000    0.000000
   21.877085    0.557708    0.557708    0.557708    0.000000    0.000000    0.000000
   21.899662    0.558698    0.558698    0.558698    0.000000    0.000000    0.000000
   21.922239    0.559685    0.559685    0.559685    0.000000    0.000000    0.000000
   21.944816    0.560669    0.560669    0.560669    0.000000    0.000000    0.000000
   21.967393    0.561649    0.561649    0.561649    0.000000    0.000000    0.000000
   21.989970    0.562626    0.562626    0.562626    0.000000    0.000000    0.000000
   22.012547    0.563599    0.563599    0.563599    0.000000    0.000000    0.000000
   22.035124    0.564569    0.564569    0.564569    0.000000    0.000000    0.000000
   22.057701    0.565535    0.565535    0.565535    0.000000    0.000000    0.000000
   22.080278    0.566498    0.566498    0.566498    0.000000    0.000000    0.000000
   22.102855    0.567458    0.567458    0.567458    0.000000    0.000000    0.000000
   22.125432    0.568415    0.568415    0.568415    0.000000    0.000000    0.000000
   22.148009    0.569368    0.569368    0.569368    0.000000    0.000000    0.000000
   22.170586    0.570318    0.570318    0.570318    0.000000    0.000000    0.000000
   22.193163    0.571264    0.571264    0.571264    0.000000    0.000000    0.000000
   22.215740    0.572207    0.572207    0.572207    0.000000    0.000000    0.000000
   22.238317    0.573147    0.573147    0.573147    0.000000    0.000000    0.000000
   22.260894    0.574084    0.574084    0.574084    0.000000    0.000000    0.000000
   22.283471    0.575018    0.575018    0.575018    0.000000    0.000000    0.000000
   22.306048    0.575948    0.575948    0.575948    0.000000    0.000000    0.000000
   22.328625    0.576875    0.576875    0.576875    0.000000    0.000000    0.000000
   22.351202    0.577799    0.577799    0.577799    0.000000    0.000000    0.000000
   22.373779    0.578720    0.578720    0.578720    0.000000    0.000000    0.000000
   22.396355    0.579638    0.579638    0.579638    0.000000    0.000000    0.000000
   22.418932    0.580552    0.580552    0.580552    0.000000    0.000000    0.000000
   22.441509    0.581464    0.581464    0.581464    0.000000    0.000000    0.000000
   22.464086    0.582372    0.582372    0.582372    0.000000    0.000000    0.000000
   22.486663    0.583277    0.583277    0.583277    0.000000    0.000000    0.000000
   22.509240    0.584180    0.584180    0.584180    0.000000    0.000000    0.000000
   22.531817    0.585079    0.585079    0.585079    0.000000    0.000000    0.000000
   22.554394    0.585975    0.585975    0.585975    0.000000    0.000000    0.000000
 
 The outermost node in the dielectric function lies at epsilon=  15.7


--------------------------------------------------------------------------------------------------------


    OPTICS:  cpu time      0.1824: real time      0.1964
    4ORBIT:  cpu time      0.0000: real time      0.0000
 BZINTS: Fermi energy:    3.720170;   32.000000 electrons
         Band energy:-0.639354E+02;  BLOECHL correction:    0.000000

 total amount of memory used by VASP MPI-rank0    45072. kBytes
=======================================================================

   base      :      30000. kBytes
   nonl-proj :       9132. kBytes
   fftplans  :       1096. kBytes
   grid      :       2745. kBytes
   one-center:         64. kBytes
   wavefun   :       2035. kBytes
 
  
  
 General timing and accounting informations for this job:
 ========================================================
  
                  Total CPU time used (sec):        4.324
                            User time (sec):        2.690
                          System time (sec):        1.634
                         Elapsed time (sec):        5.152
  
                   Maximum memory used (kb):      138424.
                   Average memory used (kb):          N/A
  
                          Minor page faults:        14190
                          Major page faults:           65
                 Voluntary context switches:         1377
