 vasp.6.4.3 19Mar24 (build Aug 29 2024 15:27:20) complex                        
  
 executed on             LinuxIFC date 2025.03.19  11:27:38
 running    8 mpi-ranks, on    1 nodes
 distrk:  each k-point on    8 cores,    1 groups
 distr:  one band on NCORE=   1 cores,    8 groups


--------------------------------------------------------------------------------------------------------


 INCAR:
   SYSTEM = GaAs
   PREC = Normal
   ENCUT = 500
   ISMEAR = -5
   SIGMA = 0.1
   IBRION = 2
   LOPTICS = .TRUE.

 POTCAR:    PAW_PBE As 22Sep2009                  
 POTCAR:    PAW_PBE Ga 08Apr2002                  
 -----------------------------------------------------------------------------
|                                                                             |
|           W    W    AA    RRRRR   N    N  II  N    N   GGGG   !!!           |
|           W    W   A  A   R    R  NN   N  II  NN   N  G    G  !!!           |
|           W    W  A    A  R    R  N N  N  II  N N  N  G       !!!           |
|           W WW W  AAAAAA  RRRRR   N  N N  II  N  N N  G  GGG   !            |
|           WW  WW  A    A  R   R   N   NN  II  N   NN  G    G                |
|           W    W  A    A  R    R  N    N  II  N    N   GGGG   !!!           |
|                                                                             |
|     For optimal performance we recommend to set                             |
|       NCORE = 2 up to number-of-cores-per-socket                            |
|     NCORE specifies how many cores store one orbital (NPAR=cpu/NCORE).      |
|     This setting can greatly improve the performance of VASP for DFT.       |
|     The default, NCORE=1 might be grossly inefficient on modern             |
|     multi-core architectures or massively parallel machines. Do your        |
|     own testing! More info at https://www.vasp.at/wiki/index.php/NCORE      |
|     Unfortunately you need to use the default for GW and RPA                |
|     calculations (for HF NCORE is supported but not extensively tested      |
|     yet).                                                                   |
|                                                                             |
 -----------------------------------------------------------------------------

 POTCAR:    PAW_PBE As 22Sep2009                  
   VRHFIN =As: s2p3                                                                                 
   LEXCH  = PE                                                                                      
   EATOM  =   170.1867 eV,   12.5084 Ry                                                             
                                                                                                    
   TITEL  = PAW_PBE As 22Sep2009                                                                    
   LULTRA =        F    use ultrasoft PP ?                                                          
   IUNSCR =        1    unscreen: 0-lin 1-nonlin 2-no                                               
   RPACOR =    1.900    partial core radius                                                         
   POMASS =   74.922; ZVAL   =    5.000    mass and valenz                                          
   RCORE  =    2.100    outmost cutoff radius                                                       
   RWIGS  =    2.300; RWIGS  =    1.217    wigner-seitz radius (au A)                               
   ENMAX  =  208.702; ENMIN  =  156.526 eV                                                          
   ICORE  =        3    local potential                                                             
   LCOR   =        T    correct aug charges                                                         
   LPAW   =        T    paw PP                                                                      
   EAUG   =  462.758                                                                                
   DEXC   =    0.000                                                                                
   RMAX   =    2.144    core radius for proj-oper                                                   
   RAUG   =    1.300    factor for augmentation sphere                                              
   RDEP   =    2.140    radius for radial grids                                                     
   RDEPT  =    1.956    core radius for aug-charge                                                  
                                                                                                    
   Atomic configuration                                                                             
   10 entries                                                                                       
     n  l   j            E        occ.                                                              
     1  0  0.50    -11718.0418   2.0000                                                             
     2  0  0.50     -1486.5454   2.0000                                                             
     2  1  1.50     -1303.3889   6.0000                                                             
     3  0  0.50      -190.2849   2.0000                                                             
     3  1  1.50      -133.6555   6.0000                                                             
     3  2  2.50       -40.6443  10.0000                                                             
     4  0  0.50       -14.4936   2.0000                                                             
     4  1  0.50        -5.1947   3.0000                                                             
     4  2  1.50        -5.4423   0.0000                                                             
     4  3  2.50        -5.4423   0.0000                                                             
   Description                                                                                      
     l       E           TYP  RCUT    TYP  RCUT                                                     
     0    -14.4935570     23  2.100                                                                 
     0    -11.9212055     23  2.100                                                                 
     1     -5.1947127     23  2.100                                                                 
     1     27.2116520     23  2.100                                                                 
     2     -5.4423304     23  2.100                                                                 
     3     -1.3605826      7  2.100                                                                 
  local pseudopotential read in
  partial core-charges read in
  partial kinetic energy density read in
  atomic valenz-charges read in
  non local Contribution for L=           0  read in
    real space projection operators read in
  non local Contribution for L=           0  read in
    real space projection operators read in
  non local Contribution for L=           1  read in
    real space projection operators read in
  non local Contribution for L=           1  read in
    real space projection operators read in
  non local Contribution for L=           2  read in
    real space projection operators read in
    PAW grid and wavefunctions read in
 
   number of l-projection  operators is LMAX  =           5
   number of lm-projection operators is LMMAX =          13
 
 POTCAR:    PAW_PBE Ga 08Apr2002                  
   VRHFIN =Ga: s2p1                                                                                 
   LEXCH  = PE                                                                                      
   EATOM  =    58.8688 eV,    4.3267 Ry                                                             
                                                                                                    
   TITEL  = PAW_PBE Ga 08Apr2002                                                                    
   LULTRA =        F    use ultrasoft PP ?                                                          
   IUNSCR =        1    unscreen: 0-lin 1-nonlin 2-no                                               
   RPACOR =    2.170    partial core radius                                                         
   POMASS =   69.723; ZVAL   =    3.000    mass and valenz                                          
   RCORE  =    2.600    outmost cutoff radius                                                       
   RWIGS  =    2.650; RWIGS  =    1.402    wigner-seitz radius (au A)                               
   ENMAX  =  134.678; ENMIN  =  101.009 eV                                                          
   ICORE  =        3    local potential                                                             
   LCOR   =        T    correct aug charges                                                         
   LPAW   =        T    paw PP                                                                      
   EAUG   =  320.264                                                                                
   DEXC   =    0.000                                                                                
   RMAX   =    2.658    core radius for proj-oper                                                   
   RAUG   =    1.300    factor for augmentation sphere                                              
   RDEP   =    2.684    radius for radial grids                                                     
   RDEPT  =    2.308    core radius for aug-charge                                                  
                                                                                                    
   Atomic configuration                                                                             
   10 entries                                                                                       
     n  l   j            E        occ.                                                              
     1  0  0.50    -10228.7830   2.0000                                                             
     2  0  0.50     -1262.1604   2.0000                                                             
     2  1  1.50     -1098.6333   6.0000                                                             
     3  0  0.50      -148.1110   2.0000                                                             
     3  1  1.50       -98.8436   6.0000                                                             
     3  2  2.50       -19.1549  10.0000                                                             
     4  0  0.50        -8.9483   2.0000                                                             
     4  1  0.50        -2.5791   1.0000                                                             
     4  2  1.50         5.4423   0.0000                                                             
     4  3  2.50        -2.7416   0.0000                                                             
   Description                                                                                      
     l       E           TYP  RCUT    TYP  RCUT                                                     
     0     -8.9483097     23  2.600                                                                 
     0     -5.8232215     23  2.600                                                                 
     1     -2.5790793     23  2.600                                                                 
     1      5.2230115     23  2.600                                                                 
     2      1.3605826     23  2.600                                                                 
     3     -1.3605826      7  2.600                                                                 
  local pseudopotential read in
  partial core-charges read in
  partial kinetic energy density read in
  atomic valenz-charges read in
  non local Contribution for L=           0  read in
    real space projection operators read in
  non local Contribution for L=           0  read in
    real space projection operators read in
  non local Contribution for L=           1  read in
    real space projection operators read in
  non local Contribution for L=           1  read in
    real space projection operators read in
  non local Contribution for L=           2  read in
    real space projection operators read in
    PAW grid and wavefunctions read in
 
   number of l-projection  operators is LMAX  =           5
   number of lm-projection operators is LMMAX =          13
 
  PAW_PBE As 22Sep2009                  :
 energy of atom  1       EATOM= -170.1867
 kinetic energy error for atom=    0.0005 (will be added to EATOM!!)
  PAW_PBE Ga 08Apr2002                  :
 energy of atom  2       EATOM=  -58.8688
 kinetic energy error for atom=    0.0000 (will be added to EATOM!!)
 
 
 POSCAR: cubic gallium arsenide
  positions in direct lattice
  velocities in cartesian coordinates


 exchange-correlation table for PE
   RHO(1)=    0.500       N(1)  =     2000
   RHO(2)=  100.500       N(2)  =     4000
 


--------------------------------------------------------------------------------------------------------


 ion  position               nearest neighbor table
   1  0.000  0.000  0.000-   5 2.45   6 2.45   7 2.45   8 2.45
   2  0.500  0.500  0.000-   5 2.45   6 2.45   7 2.45   8 2.45
   3  0.500  0.000  0.500-   5 2.45   6 2.45   7 2.45   8 2.45
   4  0.000  0.500  0.500-   5 2.45   6 2.45   7 2.45   8 2.45
   5  0.250  0.250  0.250-   1 2.45   2 2.45   3 2.45   4 2.45
   6  0.750  0.250  0.750-   1 2.45   2 2.45   3 2.45   4 2.45
   7  0.750  0.750  0.250-   1 2.45   2 2.45   3 2.45   4 2.45
   8  0.250  0.750  0.750-   1 2.45   2 2.45   3 2.45   4 2.45
 
  LATTYP: Found a simple cubic cell.
 ALAT       =     5.6655998295
  
  Lattice vectors:
  
 A1 = (   5.6655998295,   0.0000000000,   0.0000000000)
 A2 = (   0.0000000000,   5.6655998295,   0.0000000000)
 A3 = (   0.0000000000,   0.0000000000,   5.6655998295)


Analysis of symmetry for initial positions (statically):
=====================================================================
 Subroutine PRICEL returns following result:
 
  LATTYP: Found a face centered cubic cell.
 ALAT       =     5.6655998295
  
  Lattice vectors:
  
 A1 = (   2.8327999147,  -2.8327999147,   0.0000000000)
 A2 = (   2.8327999147,   0.0000000000,   2.8327999147)
 A3 = (   0.0000000000,  -2.8327999147,   2.8327999147)
 
   4 primitive cells build up your supercell.
 

 Routine SETGRP: Setting up the symmetry group for a 
 simple cubic supercell.


 Subroutine GETGRP returns: Found 24 space group operations
 (whereof 24 operations were pure point group operations)
 out of a pool of 48 trial point group operations.


The static configuration has the point symmetry T_d .


Analysis of symmetry for dynamics (positions and initial velocities):
=====================================================================
 Subroutine PRICEL returns following result:
 
  LATTYP: Found a face centered cubic cell.
 ALAT       =     5.6655998295
  
  Lattice vectors:
  
 A1 = (   2.8327999147,  -2.8327999147,   0.0000000000)
 A2 = (   2.8327999147,   0.0000000000,   2.8327999147)
 A3 = (   0.0000000000,  -2.8327999147,   2.8327999147)
 
   4 primitive cells build up your supercell.
 

 Routine SETGRP: Setting up the symmetry group for a 
 simple cubic supercell.


 Subroutine GETGRP returns: Found 24 space group operations
 (whereof 24 operations were pure point group operations)
 out of a pool of 48 trial point group operations.


The dynamic configuration has the point symmetry T_d .


 Subroutine INISYM returns: Found 24 space group operations
 (whereof 24 operations are pure point group operations),
 and found     4 'primitive' translations


----------------------------------------------------------------------------------------

                                     Primitive cell                                     

  volume of cell :      45.4651

  direct lattice vectors                    reciprocal lattice vectors
     2.832799915 -2.832799915  0.000000000     0.176503818 -0.176503818 -0.176503818
     2.832799915  0.000000000  2.832799915     0.176503818  0.176503818  0.176503818
     0.000000000 -2.832799915  2.832799915    -0.176503818 -0.176503818  0.176503818

  length of vectors
     4.006184059  4.006184059  4.006184059     0.305713580  0.305713580  0.305713580

  position of ions in fractional coordinates (direct lattice)
     0.000000000  0.000000000  0.000000000
     0.750000000  0.750000000  0.750000000

  ion indices of the primitive-cell ions
   primitive index   ion index
                 1           1
                 2           5

----------------------------------------------------------------------------------------

 
 
 KPOINTS: Automatic mesh                          

Automatic generation of k-mesh.
 Grid dimensions read from file:
 generate k-points for:    5    5    5

 Generating k-lattice:

  Cartesian coordinates                     Fractional coordinates (reciprocal lattice)
     0.035300764  0.000000000  0.000000000     0.200000000  0.000000000  0.000000000
     0.000000000  0.035300764  0.000000000     0.000000000  0.200000000  0.000000000
     0.000000000  0.000000000  0.035300764     0.000000000  0.000000000  0.200000000

  Length of vectors
     0.035300764  0.035300764  0.035300764

  Shift w.r.t. Gamma in fractional coordinates (k-lattice)
     0.000000000  0.000000000  0.000000000

 TETIRR: Found     57 inequivalent tetrahedra from      750
 
 Subroutine IBZKPT returns following result:
 ===========================================
 
 Found     10 irreducible k-points:
 
 Following reciprocal coordinates:
            Coordinates               Weight
  0.000000  0.000000  0.000000      1.000000
  0.200000  0.000000  0.000000      6.000000
  0.400000  0.000000  0.000000      6.000000
  0.200000  0.200000  0.000000     12.000000
  0.400000  0.200000  0.000000     24.000000
  0.400000  0.400000  0.000000     12.000000
  0.200000  0.200000  0.200000      8.000000
  0.400000  0.200000  0.200000     24.000000
  0.400000  0.400000  0.200000     24.000000
  0.400000  0.400000  0.400000      8.000000
 
 Following cartesian coordinates:
            Coordinates               Weight
  0.000000  0.000000  0.000000      1.000000
  0.158853  0.000000  0.000000      6.000000
  0.317707  0.000000  0.000000      6.000000
  0.158853  0.158853  0.000000     12.000000
  0.317707  0.158853  0.000000     24.000000
  0.317707  0.317707  0.000000     12.000000
  0.158853  0.158853  0.158853      8.000000
  0.317707  0.158853  0.158853     24.000000
  0.317707  0.317707  0.158853     24.000000
  0.317707  0.317707  0.317707      8.000000
 


--------------------------------------------------------------------------------------------------------




 Dimension of arrays:
   k-points           NKPTS =     10   k-points in BZ     NKDIM =     10   number of bands    NBANDS=     24
   number of dos      NEDOS =    301   number of ions     NIONS =      8
   non local maximal  LDIM  =      5   non local SUM 2l+1 LMDIM =     13
   total plane-waves  NPLWV =  32768
   max r-space proj   IRMAX =      1   max aug-charges    IRDMAX=  13148
   dimension x,y,z NGX =    32 NGY =   32 NGZ =   32
   dimension x,y,z NGXF=    64 NGYF=   64 NGZF=   64
   support grid    NGXF=    64 NGYF=   64 NGZF=   64
   ions per type =               4   4
   NGX,Y,Z   is equivalent  to a cutoff of   9.39,  9.39,  9.39 a.u.
   NGXF,Y,Z  is equivalent  to a cutoff of  18.78, 18.78, 18.78 a.u.

 SYSTEM =  GaAs                                    
 POSCAR =  cubic gallium arsenide                  

 Startparameter for this run:
   NWRITE =      2    write-flag & timer
   PREC   = normal    normal or accurate (medium, high low for compatibility)
   ISTART =      1    job   : 0-new  1-cont  2-samecut
   ICHARG =      0    charge: 1-file 2-atom 10-const
   ISPIN  =      1    spin polarized calculation?
   LNONCOLLINEAR =      F non collinear calculations
   LSORBIT =      F    spin-orbit coupling
   INIWAV =      1    electr: 0-lowe 1-rand  2-diag
   LASPH  =      F    aspherical Exc in radial PAW
 Electronic Relaxation 1
   ENCUT  =  500.0 eV  36.75 Ry    6.06 a.u.  10.33 10.33 10.33*2*pi/ulx,y,z
   ENINI  =  500.0     initial cutoff
   ENAUG  =  462.8 eV  augmentation charge cutoff
   NELM   =     60;   NELMIN=  2; NELMDL=  0     # of ELM steps 
   EDIFF  = 0.1E-03   stopping-criterion for ELM
   LREAL  =      F    real-space projection
   NLSPLINE    = F    spline interpolate recip. space projectors
   LCOMPAT=      F    compatible to vasp.4.4
   GGA_COMPAT  = T    GGA compatible to vasp.4.4-vasp.4.6
   LMAXPAW     = -100 max onsite density
   LMAXMIX     =    2 max onsite mixed and CHGCAR
   VOSKOWN=      0    Vosko Wilk Nusair interpolation
   ROPT   =    0.00000   0.00000
 Ionic relaxation
   EDIFFG = 0.1E-02   stopping-criterion for IOM
   NSW    =      0    number of steps for IOM
   NBLOCK =      1;   KBLOCK =      1    inner block; outer block 
   IBRION =     -1    ionic relax: 0-MD 1-quasi-New 2-CG
   NFREE  =      1    steps in history (QN), initial steepest desc. (CG)
   ISIF   =      2    stress and relaxation
   IWAVPR =     10    prediction:  0-non 1-charg 2-wave 3-comb
   ISYM   =      2    0-nonsym 1-usesym 2-fastsym
   LCORR  =      T    Harris-Foulkes like correction to forces

   POTIM  = 0.5000    time-step for ionic-motion
   TEIN   =    0.0    initial temperature
   TEBEG  =    0.0;   TEEND  =   0.0 temperature during run
   SMASS  =  -3.00    Nose mass-parameter (am)
   estimated Nose-frequenzy (Omega)   =  0.10E-29 period in steps = 0.13E+47 mass=  -0.734E-27a.u.
   SCALEE = 1.0000    scale energy and forces
   NPACO  =    256;   APACO  = 10.0  distance and # of slots for P.C.
   PSTRESS=    0.0 pullay stress

  Mass of Ions in am
   POMASS =  74.92 69.72
  Ionic Valenz
   ZVAL   =   5.00  3.00
  Atomic Wigner-Seitz radii
   RWIGS  =  -1.00 -1.00
  virtual crystal weights 
   VCA    =   1.00  1.00
   NELECT =      32.0000    total number of electrons
   NUPDOWN=      -1.0000    fix difference up-down

 DOS related values:
   EMIN   =  10.00;   EMAX   =-10.00  energy-range for DOS
   EFERMI =   0.00;   METHOD = LEGACY      
   ISMEAR =    -5;   SIGMA  =   0.10  broadening in eV -4-tet -1-fermi 0-gaus

 Electronic relaxation 2 (details)
   IALGO  =     38    algorithm
   LDIAG  =      T    sub-space diagonalisation (order eigenvalues)
   LSUBROT=      F    optimize rotation matrix (better conditioning)
   TURBO    =      0    0=normal 1=particle mesh
   IRESTART =      0    0=no restart 2=restart with 2 vectors
   NREBOOT  =      0    no. of reboots
   NMIN     =      0    reboot dimension
   EREF     =   0.00    reference energy to select bands
   IMIX   =      4    mixing-type and parameters
     AMIX     =   0.40;   BMIX     =  1.00
     AMIX_MAG =   1.60;   BMIX_MAG =  1.00
     AMIN     =   0.10
     WC   =   100.;   INIMIX=   1;  MIXPRE=   1;  MAXMIX= -45

 Intra band minimization:
   WEIMIN = 0.0000     energy-eigenvalue tresh-hold
   EBREAK =  0.10E-05  absolut break condition
   DEPER  =   0.30     relativ break condition  

   TIME   =   0.40     timestep for ELM

  volume/ion in A,a.u.               =      22.73       153.41
  Fermi-wavevector in a.u.,A,eV,Ry     =   0.917372  1.733582 11.450280  0.841572
  Thomas-Fermi vector in A             =   2.042334
 
 Write flags
   LWAVE        =      T    write WAVECAR
   LDOWNSAMPLE  =      F    k-point downsampling of WAVECAR
   LCHARG       =      T    write CHGCAR
   LVTOT        =      F    write LOCPOT, total local potential
   LVHAR        =      F    write LOCPOT, Hartree potential only
   WRT_POTENTIAL= false  ! write potential to hdf5 file
   LELF         =      F    write electronic localiz. function (ELF)
   LORBIT       =      0    0 simple, 1 ext, 2 COOP (PROOUT), +10 PAW based schemes


 Dipole corrections
   LMONO      =      F    monopole corrections only (constant potential shift)
   LDIPOL     =      F    correct potential (dipole corrections)
   IDIPOL     =      0    1-x, 2-y, 3-z, 4-all directions 
   EPSILON    =  1.0000000 bulk dielectric constant
   LVACPOTAV  =      F  vacuum potentials using an averaging scheme for the charge density
   VACPOTFLAT =  0.1000000 required flatness to determine vacuum potential
 Exchange correlation treatment:
   GGA     = PE    functional components
   XC_C    = 1    coefficients multiplying the functional components
   LIBXC   =     F    Libxc                    
   VOSKOWN =     0    Vosko Wilk Nusair interpolation
   LHFCALC =     F    Hartree Fock is set to
   LHFONE  =     F    Hartree Fock one center treatment
   AEXX    =    0.0000 exact exchange contribution

 Parameters of functionals:
   PE:
     No parameter
 
 Van der Waals corrections
   IVDW    =     0    specifies the selected vdW correction

 Linear response parameters
   LEPSILON=     F    determine dielectric tensor
   LRPA    =     F    only Hartree local field effects (RPA)
   LNABLA  =     F    use nabla operator in PAW spheres
   LVEL    =     F    velocity operator in full k-point grid
   CSHIFT  =0.1000    complex shift for real part using Kramers Kronig
   OMEGAMAX=  -1.0    maximum frequency
   DEG_THRESHOLD= 0.2000000E-02 threshold for treating states as degnerate
   RTIME   =   -0.100 relaxation time in fs
  (WPLASMAI=    0.000 imaginary part of plasma frequency in eV, 0.658/RTIME)
   DFIELD  = 0.0000000 0.0000000 0.0000000 field for delta impulse in time
 
  Optional k-point grid parameters
   LKPOINTS_OPT  =     F    use optional k-point grid
   KPOINTS_OPT_MODE=     1    mode for optional k-point grid
 
 Orbital magnetization related:
   ORBITALMAG=     F  switch on orbital magnetization
   LCHIMAG   =     F  perturbation theory with respect to B field
   DQ        =  0.001000  dq finite difference perturbation B field
   LLRAUG    =     F  two centre corrections for induced B field
   LBONE     =     F  B-component reconstruction in AE one-centre
   LVGVCALC  =     T  calculate vGv susceptibility
   LVGVAPPL  =     F  apply vGv susceptibility instead of pGv for G=0

 Random number generation:
   RANDOM_GENERATOR = DEFAULT
   PCG_SEED         = not used


--------------------------------------------------------------------------------------------------------


 Static calculation
 charge density and potential will be updated during run
 non-spin polarized calculation
 Variant of blocked Davidson
 Davidson routine will perform the subspace rotation
 perform sub-space diagonalisation
    after iterative eigenvector-optimisation
 modified Broyden-mixing scheme, WC =      100.0
 initial mixing is a Kerker type mixing with AMIX =  0.4000 and BMIX =      1.0000
 Hartree-type preconditioning will be used
 using additional bands            8
 reciprocal scheme for non local part
 use partial core corrections
 calculate Harris-corrections to forces 
   (improved forces if not selfconsistent)
 use gradient corrections 
 use of overlap-Matrix (Vanderbilt PP)
 Fermi weights with tetrahedron method with Bloechl corrections


--------------------------------------------------------------------------------------------------------


  energy-cutoff  :      500.00
  volume of cell :      181.86
      direct lattice vectors                 reciprocal lattice vectors
     5.665599829  0.000000000  0.000000000     0.176503818  0.000000000  0.000000000
     0.000000000  5.665599829  0.000000000     0.000000000  0.176503818  0.000000000
     0.000000000  0.000000000  5.665599829     0.000000000  0.000000000  0.176503818

  length of vectors
     5.665599829  5.665599829  5.665599829     0.176503818  0.176503818  0.176503818


 
 old parameters found on file WAVECAR:
  energy-cutoff  :      500.00
  volume of cell :      151.47
      direct lattice vectors                 reciprocal lattice vectors
     5.330542292  0.000000000  0.000000000     0.187598174  0.000000000  0.000000000
     0.000000000  5.330542292  0.000000000     0.000000000  0.187598174  0.000000000
     0.000000000  0.000000000  5.330542292     0.000000000  0.000000000  0.187598174

  length of vectors

 
 k-points in units of 2pi/SCALE and weight: Automatic mesh                          
   0.00000000  0.00000000  0.00000000       0.008
   0.15885344  0.00000000  0.00000000       0.048
   0.31770687  0.00000000  0.00000000       0.048
   0.15885344  0.15885344  0.00000000       0.096
   0.31770687  0.15885344  0.00000000       0.192
   0.31770687  0.31770687  0.00000000       0.096
   0.15885344  0.15885344  0.15885344       0.064
   0.31770687  0.15885344  0.15885344       0.192
   0.31770687  0.31770687  0.15885344       0.192
   0.31770687  0.31770687  0.31770687       0.064
 
 k-points in reciprocal lattice and weights: Automatic mesh                          
   0.00000000  0.00000000  0.00000000       0.008
   0.20000000  0.00000000  0.00000000       0.048
   0.40000000  0.00000000  0.00000000       0.048
   0.20000000  0.20000000  0.00000000       0.096
   0.40000000  0.20000000  0.00000000       0.192
   0.40000000  0.40000000  0.00000000       0.096
   0.20000000  0.20000000  0.20000000       0.064
   0.40000000  0.20000000  0.20000000       0.192
   0.40000000  0.40000000  0.20000000       0.192
   0.40000000  0.40000000  0.40000000       0.064
 
 position of ions in fractional coordinates (direct lattice) 
   0.00000000  0.00000000  0.00000000
   0.50000000  0.50000000  0.00000000
   0.50000000  0.00000000  0.50000000
   0.00000000  0.50000000  0.50000000
   0.25000000  0.25000000  0.25000000
   0.75000000  0.25000000  0.75000000
   0.75000000  0.75000000  0.25000000
   0.25000000  0.75000000  0.75000000
 
 position of ions in cartesian coordinates  (Angst):
   0.00000000  0.00000000  0.00000000
   2.83279991  2.83279991  0.00000000
   2.83279991  0.00000000  2.83279991
   0.00000000  2.83279991  2.83279991
   1.41639996  1.41639996  1.41639996
   4.24919987  1.41639996  4.24919987
   4.24919987  4.24919987  1.41639996
   1.41639996  4.24919987  4.24919987
 


--------------------------------------------------------------------------------------------------------


 k-point     1 :   0.0000 0.0000 0.0000  plane waves:    4625
 k-point     2 :   0.2000 0.0000 0.0000  plane waves:    4637
 k-point     3 :   0.4000 0.0000 0.0000  plane waves:    4624
 k-point     4 :   0.2000 0.2000 0.0000  plane waves:    4641
 k-point     5 :   0.4000 0.2000 0.0000  plane waves:    4610
 k-point     6 :   0.4000 0.4000 0.0000  plane waves:    4594
 k-point     7 :   0.2000 0.2000 0.2000  plane waves:    4605
 k-point     8 :   0.4000 0.2000 0.2000  plane waves:    4631
 k-point     9 :   0.4000 0.4000 0.2000  plane waves:    4605
 k-point    10 :   0.4000 0.4000 0.4000  plane waves:    4635

 maximum and minimum number of plane-waves per node :      4641     4594

 maximum number of plane-waves:      4641
 maximum index in each direction: 
   IXMAX=   10   IYMAX=   10   IZMAX=   10
   IXMIN=  -10   IYMIN=  -10   IZMIN=  -10


 serial   3D FFT for wavefunctions
 parallel 3D FFT for charge:
    minimum data exchange during FFTs selected (reduces bandwidth)


 total amount of memory used by VASP MPI-rank0    47079. kBytes
=======================================================================

   base      :      30000. kBytes
   nonl-proj :      10262. kBytes
   fftplans  :       1270. kBytes
   grid      :       3203. kBytes
   one-center:         64. kBytes
   wavefun   :       2280. kBytes
 
     INWAV:  cpu time      0.0300: real time      0.0366
 Broyden mixing: mesh for mixing (old mesh)
   NGX = 21   NGY = 21   NGZ = 21
  (NGX  = 64   NGY  = 64   NGZ  = 64)
  gives a total of   9261 points

 charge density for first step will be calculated from the start-wavefunctions


--------------------------------------------------------------------------------------------------------


 Maximum index for augmentation-charges         1531 (set IRDMAX)


--------------------------------------------------------------------------------------------------------


 initial charge from wavefunction
 First call to EWALD:  gamma=   0.313
 Maximum number of real-space cells 3x 3x 3
 Maximum number of reciprocal cells 3x 3x 3

    FEWALD:  cpu time      0.0009: real time      0.0009


--------------------------------------- Ionic step        1  -------------------------------------------




--------------------------------------- Iteration      1(   1)  ---------------------------------------


    POTLOK:  cpu time      0.0156: real time      0.0186
    SETDIJ:  cpu time      0.0020: real time      0.0020
     EDDAV:  cpu time      0.2905: real time      0.3039
 BZINTS: Fermi energy:    2.057772;   32.000000 electrons
         Band energy:-0.985995E+02;  BLOECHL correction:    0.000000
       DOS:  cpu time      0.0004: real time      0.0004
    CHARGE:  cpu time      0.0131: real time      0.0133
    MIXING:  cpu time      0.0007: real time      0.0007
    --------------------------------------------
      LOOP:  cpu time      0.3222: real time      0.3388

 eigenvalue-minimisations  :   544
 total energy-change (2. order) :-0.3399717E+02  (-0.2754986E+01)
 number of electron      32.0000002 magnetization 
 augmentation part       -5.2697910 magnetization 

 Broyden mixing:
  rms(total) = 0.10671E+01    rms(broyden)= 0.10671E+01
  rms(prec ) = 0.13137E+01
  weight for this iteration     100.00

 Free energy of the ion-electron system (eV)
  ---------------------------------------------------
  alpha Z        PSCENC =        75.24379517
  Ewald energy   TEWEN  =      -914.69454418
  -Hartree energ DENC   =       -70.70971994
  -exchange      EXHF   =         0.00000000
  -V(xc)+E(xc)   XCENC  =      -120.72352156
  PAW double counting   =      3081.59973754    -2902.33301244
  entropy T*S    EENTRO =         0.00000000
  eigenvalues    EBANDS =       -98.59953277
  atomic energy  EATOM  =       916.21963040
  Solvation  Ediel_sol  =         0.00000000
  ---------------------------------------------------
  free energy    TOTEN  =       -33.99716777 eV

  energy without entropy =      -33.99716777  energy(sigma->0) =      -33.99716777


--------------------------------------------------------------------------------------------------------




--------------------------------------- Iteration      1(   2)  ---------------------------------------


    POTLOK:  cpu time      0.0165: real time      0.0174
    SETDIJ:  cpu time      0.0018: real time      0.0019
     EDDAV:  cpu time      0.2755: real time      0.2879
 BZINTS: Fermi energy:    2.411867;   32.000000 electrons
         Band energy:-0.903443E+02;  BLOECHL correction:    0.000000
       DOS:  cpu time      0.0004: real time      0.0004
    CHARGE:  cpu time      0.0133: real time      0.0135
    MIXING:  cpu time      0.0006: real time      0.0006
    --------------------------------------------
      LOOP:  cpu time      0.3081: real time      0.3216

 eigenvalue-minimisations  :   496
 total energy-change (2. order) : 0.7222730E+00  (-0.1429355E+00)
 number of electron      32.0000002 magnetization 
 augmentation part       -5.2554424 magnetization 

 Broyden mixing:
  rms(total) = 0.64042E+00    rms(broyden)= 0.64042E+00
  rms(prec ) = 0.74568E+00
  weight for this iteration     100.00

 eigenvalues of (default mixing * dielectric matrix)
  average eigenvalue GAMMA=   2.4012
  2.4012

 Free energy of the ion-electron system (eV)
  ---------------------------------------------------
  alpha Z        PSCENC =        75.24379517
  Ewald energy   TEWEN  =      -914.69454418
  -Hartree energ DENC   =       -77.91811002
  -exchange      EXHF   =         0.00000000
  -V(xc)+E(xc)   XCENC  =      -120.77754040
  PAW double counting   =      2575.98607229    -2396.98986859
  entropy T*S    EENTRO =         0.00000000
  eigenvalues    EBANDS =       -90.34432941
  atomic energy  EATOM  =       916.21963040
  Solvation  Ediel_sol  =         0.00000000
  ---------------------------------------------------
  free energy    TOTEN  =       -33.27489474 eV

  energy without entropy =      -33.27489474  energy(sigma->0) =      -33.27489474


--------------------------------------------------------------------------------------------------------




--------------------------------------- Iteration      1(   3)  ---------------------------------------


    POTLOK:  cpu time      0.0164: real time      0.0171
    SETDIJ:  cpu time      0.0018: real time      0.0018
     EDDAV:  cpu time      0.2838: real time      0.2966
 BZINTS: Fermi energy:    2.781507;   32.000000 electrons
         Band energy:-0.815916E+02;  BLOECHL correction:    0.000000
       DOS:  cpu time      0.0004: real time      0.0004
    CHARGE:  cpu time      0.0128: real time      0.0130
    MIXING:  cpu time      0.0007: real time      0.0007
    --------------------------------------------
      LOOP:  cpu time      0.3159: real time      0.3296

 eigenvalue-minimisations  :   520
 total energy-change (2. order) : 0.2088014E+00  (-0.1192104E+00)
 number of electron      32.0000001 magnetization 
 augmentation part       -5.1721424 magnetization 

 Broyden mixing:
  rms(total) = 0.67554E-01    rms(broyden)= 0.67554E-01
  rms(prec ) = 0.14779E+00
  weight for this iteration     100.00

 eigenvalues of (default mixing * dielectric matrix)
  average eigenvalue GAMMA=   1.6381
  1.1651  2.1110

 Free energy of the ion-electron system (eV)
  ---------------------------------------------------
  alpha Z        PSCENC =        75.24379517
  Ewald energy   TEWEN  =      -914.69454418
  -Hartree energ DENC   =       -86.03352659
  -exchange      EXHF   =         0.00000000
  -V(xc)+E(xc)   XCENC  =      -120.98292654
  PAW double counting   =      2005.43210114    -1826.65907189
  entropy T*S    EENTRO =         0.00000000
  eigenvalues    EBANDS =       -81.59155083
  atomic energy  EATOM  =       916.21963040
  Solvation  Ediel_sol  =         0.00000000
  ---------------------------------------------------
  free energy    TOTEN  =       -33.06609332 eV

  energy without entropy =      -33.06609332  energy(sigma->0) =      -33.06609332


--------------------------------------------------------------------------------------------------------




--------------------------------------- Iteration      1(   4)  ---------------------------------------


    POTLOK:  cpu time      0.0164: real time      0.0169
    SETDIJ:  cpu time      0.0018: real time      0.0019
     EDDAV:  cpu time      0.2796: real time      0.2924
 BZINTS: Fermi energy:    2.694139;   32.000000 electrons
         Band energy:-0.831398E+02;  BLOECHL correction:    0.000000
       DOS:  cpu time      0.0004: real time      0.0004
    CHARGE:  cpu time      0.0139: real time      0.0141
    MIXING:  cpu time      0.0006: real time      0.0006
    --------------------------------------------
      LOOP:  cpu time      0.3127: real time      0.3263

 eigenvalue-minimisations  :   504
 total energy-change (2. order) : 0.2291283E-01  (-0.1116885E-01)
 number of electron      32.0000001 magnetization 
 augmentation part       -5.1734819 magnetization 

 Broyden mixing:
  rms(total) = 0.49266E-01    rms(broyden)= 0.49266E-01
  rms(prec ) = 0.59012E-01
  weight for this iteration     100.00

 eigenvalues of (default mixing * dielectric matrix)
  average eigenvalue GAMMA=   1.6470
  2.3634  1.2887  1.2887

 Free energy of the ion-electron system (eV)
  ---------------------------------------------------
  alpha Z        PSCENC =        75.24379517
  Ewald energy   TEWEN  =      -914.69454418
  -Hartree energ DENC   =       -84.43270121
  -exchange      EXHF   =         0.00000000
  -V(xc)+E(xc)   XCENC  =      -121.09799986
  PAW double counting   =      2027.24014570    -1848.38170619
  entropy T*S    EENTRO =         0.00000000
  eigenvalues    EBANDS =       -83.13980032
  atomic energy  EATOM  =       916.21963040
  Solvation  Ediel_sol  =         0.00000000
  ---------------------------------------------------
  free energy    TOTEN  =       -33.04318049 eV

  energy without entropy =      -33.04318049  energy(sigma->0) =      -33.04318049


--------------------------------------------------------------------------------------------------------




--------------------------------------- Iteration      1(   5)  ---------------------------------------


    POTLOK:  cpu time      0.0168: real time      0.0174
    SETDIJ:  cpu time      0.0019: real time      0.0019
     EDDAV:  cpu time      0.2948: real time      0.3078
 BZINTS: Fermi energy:    2.709819;   32.000000 electrons
         Band energy:-0.825195E+02;  BLOECHL correction:    0.000000
       DOS:  cpu time      0.0004: real time      0.0004
    CHARGE:  cpu time      0.0130: real time      0.0132
    MIXING:  cpu time      0.0007: real time      0.0007
    --------------------------------------------
      LOOP:  cpu time      0.3275: real time      0.3413

 eigenvalue-minimisations  :   528
 total energy-change (2. order) : 0.1029657E-02  (-0.7675938E-03)
 number of electron      32.0000001 magnetization 
 augmentation part       -5.1674089 magnetization 

 Broyden mixing:
  rms(total) = 0.10284E-01    rms(broyden)= 0.10284E-01
  rms(prec ) = 0.11508E-01
  weight for this iteration     100.00

 eigenvalues of (default mixing * dielectric matrix)
  average eigenvalue GAMMA=   1.4966
  2.1989  1.3674  1.3674  1.0527

 Free energy of the ion-electron system (eV)
  ---------------------------------------------------
  alpha Z        PSCENC =        75.24379517
  Ewald energy   TEWEN  =      -914.69454418
  -Hartree energ DENC   =       -85.01268227
  -exchange      EXHF   =         0.00000000
  -V(xc)+E(xc)   XCENC  =      -121.13952087
  PAW double counting   =      1978.82726119    -1799.96658099
  entropy T*S    EENTRO =         0.00000000
  eigenvalues    EBANDS =       -82.51950927
  atomic energy  EATOM  =       916.21963040
  Solvation  Ediel_sol  =         0.00000000
  ---------------------------------------------------
  free energy    TOTEN  =       -33.04215083 eV

  energy without entropy =      -33.04215083  energy(sigma->0) =      -33.04215083


--------------------------------------------------------------------------------------------------------




--------------------------------------- Iteration      1(   6)  ---------------------------------------


    POTLOK:  cpu time      0.0172: real time      0.0178
    SETDIJ:  cpu time      0.0019: real time      0.0019
     EDDAV:  cpu time      0.2406: real time      0.2519
 BZINTS: Fermi energy:    2.710482;   32.000000 electrons
         Band energy:-0.825149E+02;  BLOECHL correction:    0.000000
       DOS:  cpu time      0.0004: real time      0.0004
    CHARGE:  cpu time      0.0129: real time      0.0131
    MIXING:  cpu time      0.0006: real time      0.0006
    --------------------------------------------
      LOOP:  cpu time      0.2735: real time      0.2857

 eigenvalue-minimisations  :   392
 total energy-change (2. order) :-0.1134201E-03  (-0.1344888E-04)
 number of electron      32.0000001 magnetization 
 augmentation part       -5.1674432 magnetization 

 Broyden mixing:
  rms(total) = 0.37948E-02    rms(broyden)= 0.37948E-02
  rms(prec ) = 0.57475E-02
  weight for this iteration     100.00

 eigenvalues of (default mixing * dielectric matrix)
  average eigenvalue GAMMA=   1.7496
  2.8006  2.3699  1.2764  1.2764  1.0247

 Free energy of the ion-electron system (eV)
  ---------------------------------------------------
  alpha Z        PSCENC =        75.24379517
  Ewald energy   TEWEN  =      -914.69454418
  -Hartree energ DENC   =       -85.02781799
  -exchange      EXHF   =         0.00000000
  -V(xc)+E(xc)   XCENC  =      -121.13243567
  PAW double counting   =      1986.40840065    -1807.54442495
  entropy T*S    EENTRO =         0.00000000
  eigenvalues    EBANDS =       -82.51486768
  atomic energy  EATOM  =       916.21963040
  Solvation  Ediel_sol  =         0.00000000
  ---------------------------------------------------
  free energy    TOTEN  =       -33.04226425 eV

  energy without entropy =      -33.04226425  energy(sigma->0) =      -33.04226425


--------------------------------------------------------------------------------------------------------




--------------------------------------- Iteration      1(   7)  ---------------------------------------


    POTLOK:  cpu time      0.0166: real time      0.0172
    SETDIJ:  cpu time      0.0018: real time      0.0019
     EDDAV:  cpu time      0.2223: real time      0.2330
 BZINTS: Fermi energy:    2.713817;   32.000000 electrons
         Band energy:-0.824367E+02;  BLOECHL correction:    0.000000
       DOS:  cpu time      0.0004: real time      0.0004
    --------------------------------------------
      LOOP:  cpu time      0.2411: real time      0.2524

 eigenvalue-minimisations  :   336
 total energy-change (2. order) :-0.8090381E-04  (-0.1218058E-04)
 number of electron      32.0000001 magnetization 
 augmentation part       -5.1674432 magnetization 

 Free energy of the ion-electron system (eV)
  ---------------------------------------------------
  alpha Z        PSCENC =        75.24379517
  Ewald energy   TEWEN  =      -914.69454418
  -Hartree energ DENC   =       -85.11454821
  -exchange      EXHF   =         0.00000000
  -V(xc)+E(xc)   XCENC  =      -121.13052585
  PAW double counting   =      1990.36519124    -1811.49466361
  entropy T*S    EENTRO =         0.00000000
  eigenvalues    EBANDS =       -82.43668012
  atomic energy  EATOM  =       916.21963040
  Solvation  Ediel_sol  =         0.00000000
  ---------------------------------------------------
  free energy    TOTEN  =       -33.04234516 eV

  energy without entropy =      -33.04234516  energy(sigma->0) =      -33.04234516


--------------------------------------------------------------------------------------------------------




 average (electrostatic) potential at core
  the test charge radii are     1.0621  1.2767
  (the norm of the test charge is              1.0000)
       1 -51.5195       2 -51.5195       3 -51.5195       4 -51.5195       5 -14.6806
       6 -14.6806       7 -14.6806       8 -14.6806
 
 
 
 E-fermi :   2.7138     XC(G=0):  -9.1595     alpha+bet : -8.5057

 val. band max:        2.6954595726   @ k =   0.0000   0.0000   0.0000
 cond. band min:       3.2266715942   @ k =   0.0000   0.0000   0.0000
 fundamental gap:      0.5312120216
 Fermi energy:         2.7138166045

 k-point     1 :       0.0000    0.0000    0.0000
  band No.  band energies     occupation 
      1      -9.9628      2.00000
      2      -7.6265      2.00000
      3      -7.6265      2.00000
      4      -7.6265      2.00000
      5      -4.0597      2.00000
      6      -4.0597      2.00000
      7      -4.0597      2.00000
      8       0.0539      2.00000
      9       0.0539      2.00000
     10       0.0539      2.00000
     11       0.0539      2.00000
     12       0.0539      2.00000
     13       0.0539      2.00000
     14       2.6955      2.00000
     15       2.6955      2.00000
     16       2.6955      2.00000
     17       3.2267      0.00000
     18       4.1778      0.00000
     19       4.1778      0.00000
     20       4.1778      0.00000
     21       4.3771      0.00000
     22       4.3771      0.00000
     23       4.3771      0.00000
     24       6.4590      0.00000

 k-point     2 :       0.2000    0.0000    0.0000
  band No.  band energies     occupation 
      1      -9.8197      2.00000
      2      -8.0216      2.00000
      3      -7.6119      2.00000
      4      -7.6119      2.00000
      5      -3.9972      2.00000
      6      -3.9972      2.00000
      7      -3.4690      2.00000
      8      -0.2815      2.00000
      9      -0.2815      2.00000
     10      -0.2070      2.00000
     11      -0.2070      2.00000
     12       0.2158      2.00000
     13       0.2158      2.00000
     14       1.1454      2.00000
     15       2.2454      2.00000
     16       2.2454      2.00000
     17       4.1445      0.00000
     18       4.7120      0.00000
     19       4.8230      0.00000
     20       4.9068      0.00000
     21       4.9068      0.00000
     22       5.1151      0.00000
     23       5.1151      0.00000
     24       5.9889      0.00000

 k-point     3 :       0.4000    0.0000    0.0000
  band No.  band energies     occupation 
      1      -9.4019      2.00000
      2      -8.7557      2.00000
      3      -7.5878      2.00000
      4      -7.5878      2.00000
      5      -3.8838      2.00000
      6      -3.8838      2.00000
      7      -2.1575      2.00000
      8      -0.7428      2.00000
      9      -0.7428      2.00000
     10      -0.5686      2.00000
     11      -0.5489      2.00000
     12      -0.5489      2.00000
     13       0.6875      2.00000
     14       0.6875      2.00000
     15       1.4161      2.00000
     16       1.4161      2.00000
     17       4.4323      0.00000
     18       5.0357      0.00000
     19       5.6408      0.00000
     20       6.0049      0.00000
     21       6.6268      0.00000
     22       6.6268      0.00000
     23       6.7520      0.00000
     24       6.7520      0.00000

 k-point     4 :       0.2000    0.2000    0.0000
  band No.  band energies     occupation 
      1      -9.6803      2.00000
      2      -7.9688      2.00000
      3      -7.9688      2.00000
      4      -7.6331      2.00000
      5      -3.9343      2.00000
      6      -3.5041      2.00000
      7      -3.5041      2.00000
      8      -0.9162      2.00000
      9      -0.2025      2.00000
     10      -0.2025      2.00000
     11       0.1081      2.00000
     12       0.1081      2.00000
     13       0.2064      2.00000
     14       0.3223      2.00000
     15       1.7657      2.00000
     16       2.5274      2.00000
     17       4.5362      0.00000
     18       4.7775      0.00000
     19       4.9320      0.00000
     20       4.9320      0.00000
     21       5.4598      0.00000
     22       5.4598      0.00000
     23       6.4659      0.00000
     24       6.6246      0.00000

 k-point     5 :       0.4000    0.2000    0.0000
  band No.  band energies     occupation 
      1      -9.2753      2.00000
      2      -8.6558      2.00000
      3      -7.8406      2.00000
      4      -7.7097      2.00000
      5      -3.7827      2.00000
      6      -3.6172      2.00000
      7      -2.4166      2.00000
      8      -1.1621      2.00000
      9      -1.1320      2.00000
     10      -0.8571      2.00000
     11       0.0694      2.00000
     12       0.2089      2.00000
     13       0.2746      2.00000
     14       0.8336      2.00000
     15       0.9175      2.00000
     16       1.8089      2.00000
     17       5.2354      0.00000
     18       5.4984      0.00000
     19       5.5501      0.00000
     20       6.0626      0.00000
     21       6.0733      0.00000
     22       6.5914      0.00000
     23       6.9118      0.00000
     24       7.8524      0.00000

 k-point     6 :       0.4000    0.4000    0.0000
  band No.  band energies     occupation 
      1      -8.9137      2.00000
      2      -8.3828      2.00000
      3      -8.3828      2.00000
      4      -8.0208      2.00000
      5      -3.4676      2.00000
      6      -2.9613      2.00000
      7      -2.9613      2.00000
      8      -2.0870      2.00000
      9      -1.1084      2.00000
     10      -0.5781      2.00000
     11      -0.5781      2.00000
     12       0.0729      2.00000
     13       1.0434      2.00000
     14       1.1060      2.00000
     15       1.1060      2.00000
     16       1.9269      2.00000
     17       5.1885      0.00000
     18       5.4448      0.00000
     19       5.9975      0.00000
     20       5.9975      0.00000
     21       7.1534      0.00000
     22       7.1534      0.00000
     23       7.6472      0.00000
     24       7.6746      0.00000

 k-point     7 :       0.2000    0.2000    0.2000
  band No.  band energies     occupation 
      1      -9.5456      2.00000
      2      -7.9435      2.00000
      3      -7.9435      2.00000
      4      -7.9435      2.00000
      5      -3.5733      2.00000
      6      -3.5733      2.00000
      7      -3.5733      2.00000
      8      -0.5961      2.00000
      9      -0.5961      2.00000
     10      -0.5961      2.00000
     11      -0.5895      2.00000
     12       0.4702      2.00000
     13       0.4702      2.00000
     14       0.4702      2.00000
     15       2.2013      2.00000
     16       2.2013      2.00000
     17       4.2998      0.00000
     18       4.7067      0.00000
     19       4.7067      0.00000
     20       4.7067      0.00000
     21       6.6258      0.00000
     22       6.6258      0.00000
     23       6.6258      0.00000
     24       7.1491      0.00000

 k-point     8 :       0.4000    0.2000    0.2000
  band No.  band energies     occupation 
      1      -9.1565      2.00000
      2      -8.5709      2.00000
      3      -7.9011      2.00000
      4      -7.9011      2.00000
      5      -3.6959      2.00000
      6      -3.6959      2.00000
      7      -2.7581      2.00000
      8      -1.7363      2.00000
      9      -0.7878      2.00000
     10      -0.7878      2.00000
     11       0.2891      2.00000
     12       0.5015      2.00000
     13       0.5015      2.00000
     14       0.8956      2.00000
     15       1.4796      2.00000
     16       1.5306      2.00000
     17       4.9074      0.00000
     18       5.0986      0.00000
     19       5.5953      0.00000
     20       5.5953      0.00000
     21       6.7003      0.00000
     22       6.8237      0.00000
     23       7.4900      0.00000
     24       7.4900      0.00000

 k-point     9 :       0.4000    0.4000    0.2000
  band No.  band energies     occupation 
      1      -8.8220      2.00000
      2      -8.3491      2.00000
      3      -8.3491      2.00000
      4      -8.0868      2.00000
      5      -3.6814      2.00000
      6      -3.3334      2.00000
      7      -3.3334      2.00000
      8      -2.6438      2.00000
      9      -0.4735      2.00000
     10      -0.0028      2.00000
     11      -0.0028      2.00000
     12       0.8080      2.00000
     13       1.1328      2.00000
     14       1.1732      2.00000
     15       1.1732      2.00000
     16       1.8558      2.00000
     17       4.6900      0.00000
     18       5.1584      0.00000
     19       5.3948      0.00000
     20       5.3948      0.00000
     21       6.9286      0.00000
     22       6.9286      0.00000
     23       7.4523      0.00000
     24       7.4769      0.00000

 k-point    10 :       0.4000    0.4000    0.4000
  band No.  band energies     occupation 
      1      -8.5806      2.00000
      2      -8.2918      2.00000
      3      -8.2918      2.00000
      4      -8.2918      2.00000
      5      -3.7747      2.00000
      6      -3.7747      2.00000
      7      -3.7747      2.00000
      8      -3.3944      2.00000
      9       0.7993      2.00000
     10       0.7993      2.00000
     11       0.7993      2.00000
     12       1.3670      2.00000
     13       1.3670      2.00000
     14       1.3670      2.00000
     15       1.6482      2.00000
     16       1.6482      2.00000
     17       3.7982      0.00000
     18       4.5281      0.00000
     19       4.5281      0.00000
     20       4.5281      0.00000
     21       7.0918      0.00000
     22       7.0918      0.00000
     23       7.0918      0.00000
     24       7.3924      0.00000


--------------------------------------------------------------------------------------------------------


 soft charge-density along one line, spin component           1
         0         1         2         3         4         5         6         7         8         9
 total charge-density along one line
 
 pseudopotential strength for first ion, spin component:           1
 23.679  28.304  -0.000  -0.000   0.000   0.000   0.000  -0.000
 28.304  33.840  -0.000  -0.000   0.000   0.000   0.000  -0.000
 -0.000  -0.000   5.560  -0.000   0.000 -11.016   0.000  -0.000
 -0.000  -0.000  -0.000   5.560   0.000   0.000 -11.016  -0.000
  0.000   0.000   0.000   0.000   5.560  -0.000  -0.000 -11.016
  0.000   0.000 -11.016   0.000  -0.000  22.402  -0.000   0.000
  0.000   0.000   0.000 -11.016  -0.000  -0.000  22.402   0.000
 -0.000  -0.000  -0.000  -0.000 -11.016   0.000   0.000  22.402
  0.000   0.000   0.000   0.001  -0.000  -0.000  -0.001   0.000
 -0.000  -0.000  -0.000  -0.000   0.001   0.000   0.000  -0.001
  0.000   0.000   0.000  -0.000  -0.000  -0.000   0.000   0.000
  0.000   0.000   0.001   0.000  -0.000  -0.001  -0.000   0.000
 -0.000  -0.000   0.000  -0.000   0.000  -0.000   0.000  -0.000
 total augmentation occupancy for first ion, spin component:           1
  5.245  -2.230  -0.000   0.000  -0.000  -0.000   0.000   0.000   0.000  -0.000  -0.000  -0.000  -0.000
 -2.230   1.305   0.000  -0.000  -0.000   0.000   0.000   0.000   0.000   0.000   0.000   0.000   0.000
 -0.000   0.000   1.473   0.000  -0.000   0.058   0.000  -0.000  -0.000   0.000  -0.000   0.100   0.000
 -0.000  -0.000   0.000   1.473   0.000   0.000   0.058  -0.000   0.100   0.000  -0.000   0.000  -0.000
 -0.000   0.000  -0.000  -0.000   1.473   0.000  -0.000   0.058  -0.000   0.100  -0.000  -0.000   0.000
 -0.000  -0.000   0.058   0.000   0.000   0.003   0.000   0.000  -0.000   0.000  -0.000   0.004   0.000
 -0.000   0.000  -0.000   0.058   0.000  -0.000   0.003  -0.000   0.004  -0.000  -0.000  -0.000   0.000
 -0.000   0.000   0.000   0.000   0.058   0.000   0.000   0.003   0.000   0.004  -0.000   0.000   0.000
 -0.000  -0.000  -0.000   0.100  -0.000   0.000   0.004  -0.000   0.013   0.000   0.000   0.000   0.000
  0.000   0.000   0.000   0.000   0.100   0.000  -0.000   0.004  -0.000   0.013   0.000  -0.000   0.000
  0.000   0.000  -0.000  -0.000  -0.000   0.000  -0.000   0.000  -0.000   0.000   0.004  -0.000   0.000
  0.000  -0.000   0.100   0.000  -0.000   0.004   0.000   0.000  -0.000   0.000  -0.000   0.013   0.000
 -0.000  -0.000   0.000  -0.000   0.000  -0.000   0.000   0.000   0.000   0.000  -0.000   0.000   0.004


------------------------ aborting loop because EDIFF is reached ----------------------------------------


    CHARGE:  cpu time      0.0129: real time      0.0132
    FORLOC:  cpu time      0.0011: real time      0.0011
    FORNL :  cpu time      0.0565: real time      0.0570
    STRESS:  cpu time      0.3379: real time      0.3398
    FORCOR:  cpu time      0.0165: real time      0.0168
    FORHAR:  cpu time      0.0041: real time      0.0042
    MIXING:  cpu time      0.0006: real time      0.0006
    OFIELD:  cpu time      0.0000: real time      0.0000

  FORCE on cell =-STRESS in cart. coord.  units (eV):
  Direction    XX          YY          ZZ          XY          YZ          ZX
  --------------------------------------------------------------------------------------
  Alpha Z    75.24380    75.24380    75.24380
  Ewald    -304.89866  -304.89866  -304.89866     0.00000    -0.00000    -0.00000
  Hartree    28.36499    28.36499    28.36499    -0.00000    -0.00000    -0.00000
  E(xc)    -120.60433  -120.60433  -120.60433    -0.00000    -0.00000    -0.00000
  Local    -119.72189  -119.72189  -119.72189    -0.00000     0.00000    -0.00000
  n-local   177.36216   179.53204   176.80704    -1.98635    -1.17991    -0.95919
  augment     7.60294     7.60294     7.60294     0.00000     0.00000    -0.00000
  Kinetic   253.74984   264.79191   261.86750    -4.90253    -4.54042    -3.07231
  Fock        0.00000     0.00000     0.00000     0.00000     0.00000     0.00000
  -------------------------------------------------------------------------------------
  Total       4.02366     4.02366     4.02366     0.00000     0.00000     0.00000
  in kB      35.44822    35.44822    35.44822     0.00000     0.00000     0.00000
  external pressure =       35.45 kB  Pullay stress =        0.00 kB


 VOLUME and BASIS-vectors are now :
 -----------------------------------------------------------------------------
  energy-cutoff  :      500.00
  volume of cell :      181.86
      direct lattice vectors                 reciprocal lattice vectors
     5.665599829  0.000000000  0.000000000     0.176503818  0.000000000  0.000000000
     0.000000000  5.665599829  0.000000000     0.000000000  0.176503818  0.000000000
     0.000000000  0.000000000  5.665599829     0.000000000  0.000000000  0.176503818

  length of vectors
     5.665599829  5.665599829  5.665599829     0.176503818  0.176503818  0.176503818


 FORCES acting on ions
    electron-ion (+dipol)            ewald-force                    non-local-force                 convergence-correction
 -----------------------------------------------------------------------------------------------
   0.270E-13 0.104E-14 -.209E-14   -.124E-13 -.178E-14 -.178E-14   0.378E-17 -.632E-18 -.680E-17   -.348E-14 -.537E-15 -.152E-14
   0.464E-13 -.253E-12 -.334E-12   -.107E-13 -.178E-14 -.178E-14   -.886E-17 -.186E-17 0.353E-16   -.352E-15 -.299E-14 -.213E-14
   0.370E-13 0.363E-14 -.510E-12   -.888E-14 -.178E-14 -.178E-14   0.134E-17 -.114E-17 0.344E-16   0.525E-16 0.115E-15 0.971E-15
   0.188E-13 0.194E-13 0.110E-13   -.888E-14 -.178E-14 -.178E-14   -.851E-17 -.172E-17 0.216E-16   -.342E-14 -.305E-14 0.158E-14
   0.376E-14 0.237E-13 -.783E-14   0.116E-13 0.362E-14 0.172E-14   -.306E-17 -.901E-18 0.354E-17   0.131E-14 0.987E-15 0.151E-14
   0.138E-13 0.169E-12 0.159E-12   0.107E-13 0.363E-14 0.189E-15   -.134E-17 0.256E-17 -.207E-17   0.470E-14 0.111E-14 -.162E-14
   0.878E-14 0.102E-12 0.168E-12   0.110E-13 0.348E-14 0.162E-14   -.380E-17 0.260E-17 0.114E-17   0.480E-14 -.931E-15 0.151E-14
   0.376E-14 0.611E-13 -.925E-14   0.945E-14 0.349E-14 0.925E-16   -.313E-17 0.876E-18 -.758E-19   0.120E-14 -.126E-14 -.143E-14
 -----------------------------------------------------------------------------------------------
   0.159E-12 0.126E-12 -.525E-12   0.182E-14 0.712E-14 -.348E-14   -.236E-16 -.215E-18 0.870E-16   0.482E-14 -.655E-14 -.113E-14
 
 
 POSITION                                       TOTAL-FORCE (eV/Angst)
 -----------------------------------------------------------------------------------
      0.00000      0.00000      0.00000         0.000000     -0.000000      0.000000
      2.83280      2.83280      0.00000        -0.000000      0.000000      0.000000
      2.83280      0.00000      2.83280        -0.000000     -0.000000     -0.000000
      0.00000      2.83280      2.83280        -0.000000      0.000000      0.000000
      1.41640      1.41640      1.41640         0.000000      0.000000     -0.000000
      4.24920      1.41640      4.24920         0.000000      0.000000     -0.000000
      4.24920      4.24920      1.41640        -0.000000     -0.000000     -0.000000
      1.41640      4.24920      4.24920         0.000000     -0.000000      0.000000
 -----------------------------------------------------------------------------------
    total drift:                                0.000000      0.000000     -0.000000


--------------------------------------------------------------------------------------------------------



  FREE ENERGIE OF THE ION-ELECTRON SYSTEM (eV)
  ---------------------------------------------------
  free  energy   TOTEN  =       -33.04234516 eV

  energy  without entropy=      -33.04234516  energy(sigma->0) =      -33.04234516
 


--------------------------------------------------------------------------------------------------------


    POTLOK:  cpu time      0.0182: real time      0.0187


--------------------------------------------------------------------------------------------------------


 writing wavefunctions
     LOOP+:  cpu time      2.8140: real time      2.9498


--------------------------------------------------------------------------------------------------------



 plasma frequency squared (from intraband transitions) (eV^2)
  --------------------------------------------------------------------------------------
       0.000       0.000       0.000
       0.000       0.000       0.000
       0.000       0.000       0.000

 electrical conductivity sigma (Mega S m-1) (frequency dependency in vasprun.xml)
  --------------------------------------------------------------------------------------
       0.000       0.000       0.000
       0.000       0.000       0.000
       0.000       0.000       0.000

 plasma frequency squared (from interband transitions, int dw w eps(2)(w)) (eV^2)
  --------------------------------------------------------------------------------------
     196.014       0.000      -0.000       0.000      -0.000       0.000
      -0.000       0.000     196.014       0.000      -0.000       0.000
      -0.000       0.000      -0.000       0.000     196.014       0.000
  --------------------------------------------------------------------------------------
 sumrule: sum of plasma frequencies squared should yield (valence only):     242.625

 Anomalous Hall contribution (eV) 2/pi Imag((f_n-f_m)<u_m| d/dk_a u_n> <u_m| d/dk_b u_n>^*) 
  --------------------------------------------------------------------------------------
       0.000       0.000       0.000
       0.000       0.000       0.000
       0.000       0.000       0.000

  frequency dependent IMAGINARY DIELECTRIC FUNCTION (independent particle, no local field effects) density-density
     E(ev)      X         Y         Z        XY        YZ        ZX
  --------------------------------------------------------------------------------------------------------------
    0.000000    0.000000    0.000000    0.000000    0.000000    0.000000    0.000000
    0.021400    0.010738    0.010738    0.010738    0.000000   -0.000000    0.000000
    0.042799    0.021500    0.021500    0.021500    0.000000   -0.000000    0.000000
    0.064199    0.032311    0.032311    0.032311    0.000000   -0.000000    0.000000
    0.085598    0.043197    0.043197    0.043197    0.000000   -0.000000    0.000000
    0.106998    0.054184    0.054184    0.054184    0.000000   -0.000000    0.000000
    0.128398    0.065299    0.065299    0.065299    0.000000   -0.000000    0.000000
    0.149797    0.076572    0.076572    0.076572    0.000000   -0.000000    0.000000
    0.171197    0.088032    0.088032    0.088032    0.000000   -0.000000    0.000000
    0.192597    0.099713    0.099713    0.099713    0.000000   -0.000000    0.000000
    0.213996    0.111651    0.111651    0.111651    0.000000   -0.000000    0.000000
    0.235396    0.123886    0.123886    0.123886    0.000000   -0.000000    0.000000
    0.256795    0.136462    0.136462    0.136462    0.000000   -0.000000    0.000000
    0.278195    0.149428    0.149428    0.149428    0.000000   -0.000000    0.000000
    0.299595    0.162840    0.162840    0.162840    0.000000   -0.000000    0.000000
    0.320994    0.176765    0.176765    0.176765    0.000000   -0.000000    0.000000
    0.342394    0.191275    0.191275    0.191275    0.000000   -0.000000    0.000000
    0.363793    0.206461    0.206461    0.206461    0.000000   -0.000000    0.000000
    0.385193    0.222428    0.222428    0.222428    0.000000   -0.000000    0.000000
    0.406593    0.239303    0.239303    0.239303    0.000000   -0.000000    0.000000
    0.427992    0.257241    0.257241    0.257241    0.000000   -0.000000    0.000000
    0.449392    0.276434    0.276434    0.276434    0.000000   -0.000000    0.000000
    0.470791    0.297120    0.297120    0.297120    0.000000   -0.000000    0.000000
    0.492191    0.319590    0.319590    0.319590    0.000000   -0.000000    0.000000
    0.513591    0.344196    0.344196    0.344196    0.000000   -0.000000    0.000000
    0.534990    0.371341    0.371341    0.371341    0.000000   -0.000000    0.000000
    0.556390    0.401458    0.401458    0.401458    0.000000   -0.000000    0.000000
    0.577790    0.434971    0.434971    0.434971    0.000000   -0.000000    0.000000
    0.599189    0.472267    0.472267    0.472267    0.000000   -0.000000    0.000000
    0.620589    0.513671    0.513671    0.513671    0.000000   -0.000000    0.000000
    0.641988    0.559454    0.559454    0.559454    0.000000   -0.000000    0.000000
    0.663388    0.609830    0.609830    0.609830    0.000000   -0.000000    0.000000
    0.684788    0.664974    0.664974    0.664974    0.000000   -0.000000    0.000000
    0.706187    0.725022    0.725022    0.725022    0.000000   -0.000000    0.000000
    0.727587    0.790088    0.790088    0.790088    0.000000   -0.000000    0.000000
    0.748986    0.860263    0.860263    0.860263    0.000000   -0.000000    0.000000
    0.770386    0.935619    0.935619    0.935619    0.000000    0.000000    0.000000
    0.791786    1.016220    1.016220    1.016220    0.000000    0.000000    0.000000
    0.813185    1.102114    1.102114    1.102114    0.000000    0.000000    0.000000
    0.834585    1.193343    1.193343    1.193343    0.000000    0.000000    0.000000
    0.855984    1.289939    1.289939    1.289939    0.000000    0.000000    0.000000
    0.877384    1.391931    1.391931    1.391931    0.000000    0.000000    0.000000
    0.898784    1.499339    1.499339    1.499339    0.000000    0.000000    0.000000
    0.920183    1.612180    1.612180    1.612180    0.000000    0.000000    0.000000
    0.941583    1.730465    1.730465    1.730465    0.000000    0.000000    0.000000
    0.962983    1.854203    1.854203    1.854203    0.000000    0.000000    0.000000
    0.984382    1.983397    1.983397    1.983397    0.000000   -0.000000    0.000000
    1.005782    2.118047    2.118047    2.118047    0.000000   -0.000000    0.000000
    1.027181    2.258150    2.258150    2.258150    0.000000   -0.000000    0.000000
    1.048581    2.403701    2.403701    2.403701    0.000000   -0.000000    0.000000
    1.069981    2.554688    2.554688    2.554688    0.000000   -0.000000    0.000000
    1.091380    2.711100    2.711100    2.711100    0.000000   -0.000000    0.000000
    1.112780    2.872918    2.872918    2.872918    0.000000   -0.000000    0.000000
    1.134179    3.040122    3.040122    3.040122    0.000000   -0.000000    0.000000
    1.155579    3.212689    3.212689    3.212689    0.000000   -0.000000    0.000000
    1.176979    3.390591    3.390591    3.390591    0.000000   -0.000000    0.000000
    1.198378    3.573794    3.573794    3.573794   -0.000000   -0.000000    0.000000
    1.219778    3.762262    3.762262    3.762262   -0.000000   -0.000000    0.000000
    1.241177    3.955954    3.955954    3.955954   -0.000000   -0.000000    0.000000
    1.262577    4.154822    4.154822    4.154822   -0.000000   -0.000000   -0.000000
    1.283977    4.358814    4.358814    4.358814   -0.000000   -0.000000    0.000000
    1.305376    4.567869    4.567869    4.567869   -0.000000   -0.000000    0.000000
    1.326776    4.781923    4.781923    4.781923   -0.000000   -0.000000    0.000000
    1.348176    5.000903    5.000903    5.000903   -0.000000   -0.000000   -0.000000
    1.369575    5.224725    5.224725    5.224725   -0.000000   -0.000000   -0.000000
    1.390975    5.453302    5.453302    5.453302   -0.000000   -0.000000   -0.000000
    1.412374    5.686534    5.686534    5.686534   -0.000000   -0.000000   -0.000000
    1.433774    5.924311    5.924311    5.924311   -0.000000   -0.000000   -0.000000
    1.455174    6.166511    6.166511    6.166511   -0.000000   -0.000000   -0.000000
    1.476573    6.412993    6.412993    6.412993   -0.000000   -0.000000   -0.000000
    1.497973    6.663587    6.663587    6.663587   -0.000000   -0.000000   -0.000000
    1.519372    6.918078    6.918078    6.918078   -0.000000   -0.000000   -0.000000
    1.540772    7.176187    7.176187    7.176187   -0.000000   -0.000000   -0.000000
    1.562172    7.437552    7.437552    7.437552   -0.000000   -0.000000   -0.000000
    1.583571    7.701704    7.701704    7.701704   -0.000000   -0.000000    0.000000
    1.604971    7.968049    7.968049    7.968049   -0.000000   -0.000000    0.000000
    1.626371    8.235839    8.235839    8.235839   -0.000000   -0.000000    0.000000
    1.647770    8.504126    8.504126    8.504126   -0.000000   -0.000000    0.000000
    1.669170    8.771713    8.771713    8.771713    0.000000   -0.000000    0.000000
    1.690569    9.037077    9.037077    9.037077    0.000000   -0.000000    0.000000
    1.711969    9.298263    9.298263    9.298263    0.000000   -0.000000    0.000000
    1.733369    9.552744    9.552744    9.552744    0.000000   -0.000000    0.000000
    1.754768    9.797225    9.797225    9.797225    0.000000   -0.000000    0.000000
    1.776168   10.027403   10.027403   10.027403    0.000000   -0.000000    0.000000
    1.797567   10.237673   10.237673   10.237673   -0.000000   -0.000000    0.000000
    1.818967   10.420894   10.420894   10.420894   -0.000000   -0.000000    0.000000
    1.840367   10.568425   10.568425   10.568425   -0.000000   -0.000000    0.000000
    1.861766   10.670945   10.670945   10.670945   -0.000000   -0.000000    0.000000
    1.883166   10.720709   10.720709   10.720709   -0.000000   -0.000000    0.000000
    1.904565   10.715254   10.715254   10.715254   -0.000000   -0.000000    0.000000
    1.925965   10.660650   10.660650   10.660650   -0.000000   -0.000000    0.000000
    1.947365   10.571246   10.571246   10.571246   -0.000000   -0.000000    0.000000
    1.968764   10.465731   10.465731   10.465731    0.000000   -0.000000    0.000000
    1.990164   10.363412   10.363412   10.363412    0.000000   -0.000000    0.000000
    2.011564   10.284084   10.284084   10.284084    0.000000   -0.000000    0.000000
    2.032963   10.250420   10.250420   10.250420    0.000000   -0.000000    0.000000
    2.054363   10.288452   10.288452   10.288452    0.000000   -0.000000    0.000000
    2.075762   10.422658   10.422658   10.422658    0.000000   -0.000000   -0.000000
    2.097162   10.665264   10.665264   10.665264    0.000000   -0.000000   -0.000000
    2.118562   11.000739   11.000739   11.000739    0.000000   -0.000000   -0.000000
    2.139961   11.373071   11.373071   11.373071    0.000000   -0.000000   -0.000000
    2.161361   11.700485   11.700485   11.700485    0.000000   -0.000000   -0.000000
    2.182760   11.931360   11.931360   11.931360    0.000000   -0.000000   -0.000000
    2.204160   12.085937   12.085937   12.085937    0.000000   -0.000000   -0.000000
    2.225560   12.226559   12.226559   12.226559    0.000000    0.000000   -0.000000
    2.246959   12.402841   12.402841   12.402841    0.000000    0.000000   -0.000000
    2.268359   12.629855   12.629855   12.629855    0.000000    0.000000   -0.000000
    2.289758   12.894776   12.894776   12.894776    0.000000    0.000000   -0.000000
    2.311158   13.171257   13.171257   13.171257    0.000000    0.000000   -0.000000
    2.332558   13.431656   13.431656   13.431656    0.000000    0.000000    0.000000
    2.353957   13.654371   13.654371   13.654371    0.000000    0.000000    0.000000
    2.375357   13.826981   13.826981   13.826981    0.000000    0.000000    0.000000
    2.396757   13.946966   13.946966   13.946966    0.000000    0.000000    0.000000
    2.418156   14.021218   14.021218   14.021218    0.000000    0.000000    0.000000
    2.439556   14.064450   14.064450   14.064450    0.000000    0.000000    0.000000
    2.460955   14.095972   14.095972   14.095972    0.000000    0.000000    0.000000
    2.482355   14.134684   14.134684   14.134684    0.000000    0.000000    0.000000
    2.503755   14.194087   14.194087   14.194087    0.000000    0.000000    0.000000
    2.525154   14.280096   14.280096   14.280096    0.000000    0.000000    0.000000
    2.546554   14.392352   14.392352   14.392352    0.000000    0.000000    0.000000
    2.567953   14.527126   14.527126   14.527126    0.000000    0.000000    0.000000
    2.589353   14.679762   14.679762   14.679762    0.000000    0.000000    0.000000
    2.610753   14.845956   14.845956   14.845956    0.000000    0.000000    0.000000
    2.632152   15.022182   15.022182   15.022182    0.000000    0.000000    0.000000
    2.653552   15.205686   15.205686   15.205686    0.000000    0.000000    0.000000
    2.674951   15.394346   15.394346   15.394346    0.000000    0.000000    0.000000
    2.696351   15.586510   15.586510   15.586510    0.000000    0.000000    0.000000
    2.717751   15.780852   15.780852   15.780852    0.000000    0.000000    0.000000
    2.739150   15.976252   15.976252   15.976252   -0.000000    0.000000    0.000000
    2.760550   16.171701   16.171701   16.171701   -0.000000    0.000000    0.000000
    2.781950   16.366224   16.366224   16.366224   -0.000000    0.000000    0.000000
    2.803349   16.558847   16.558847   16.558847   -0.000000    0.000000    0.000000
    2.824749   16.748605   16.748605   16.748605   -0.000000    0.000000    0.000000
    2.846148   16.934587   16.934587   16.934587   -0.000000    0.000000    0.000000
    2.867548   17.115972   17.115972   17.115972   -0.000000    0.000000    0.000000
    2.888948   17.292119   17.292119   17.292119   -0.000000    0.000000    0.000000
    2.910347   17.462758   17.462758   17.462758   -0.000000   -0.000000    0.000000
    2.931747   17.628295   17.628295   17.628295   -0.000000   -0.000000    0.000000
    2.953146   17.790060   17.790060   17.790060   -0.000000   -0.000000    0.000000
    2.974546   17.950489   17.950489   17.950489    0.000000   -0.000000    0.000000
    2.995946   18.113293   18.113293   18.113293    0.000000   -0.000000    0.000000
    3.017345   18.283598   18.283598   18.283598    0.000000   -0.000000    0.000000
    3.038745   18.467891   18.467891   18.467891    0.000000   -0.000000    0.000000
    3.060145   18.673454   18.673454   18.673454   -0.000000   -0.000000    0.000000
    3.081544   18.906507   18.906507   18.906507   -0.000000   -0.000000    0.000000
    3.102944   19.167342   19.167342   19.167342   -0.000000   -0.000000    0.000000
    3.124343   19.441021   19.441021   19.441021   -0.000000   -0.000000   -0.000000
    3.145743   19.688400   19.688400   19.688400   -0.000000   -0.000000   -0.000000
    3.167143   19.854859   19.854859   19.854859   -0.000000   -0.000000   -0.000000
    3.188542   19.906823   19.906823   19.906823   -0.000000   -0.000000   -0.000000
    3.209942   19.859223   19.859223   19.859223   -0.000000   -0.000000   -0.000000
    3.231341   19.756035   19.756035   19.756035   -0.000000   -0.000000   -0.000000
    3.252741   19.635486   19.635486   19.635486   -0.000000   -0.000000   -0.000000
    3.274141   19.517190   19.517190   19.517190    0.000000   -0.000000   -0.000000
    3.295540   19.404530   19.404530   19.404530    0.000000   -0.000000   -0.000000
    3.316940   19.288379   19.288379   19.288379    0.000000   -0.000000   -0.000000
    3.338339   19.151313   19.151313   19.151313    0.000000   -0.000000   -0.000000
    3.359739   18.974634   18.974634   18.974634    0.000000   -0.000000   -0.000000
    3.381139   18.746697   18.746697   18.746697    0.000000   -0.000000   -0.000000
    3.402538   18.469322   18.469322   18.469322    0.000000   -0.000000   -0.000000
    3.423938   18.158436   18.158436   18.158436    0.000000   -0.000000   -0.000000
    3.445338   17.836648   17.836648   17.836648    0.000000   -0.000000   -0.000000
    3.466737   17.521825   17.521825   17.521825    0.000000   -0.000000   -0.000000
    3.488137   17.221272   17.221272   17.221272    0.000000   -0.000000   -0.000000
    3.509536   16.936691   16.936691   16.936691    0.000000   -0.000000    0.000000
    3.530936   16.672336   16.672336   16.672336    0.000000   -0.000000    0.000000
[...]
   16.734497    0.291578    0.291578    0.291578   -0.000000   -0.000000   -0.000000
   16.755896    0.293880    0.293880    0.293880   -0.000000   -0.000000   -0.000000
   16.777296    0.296201    0.296201    0.296201   -0.000000   -0.000000   -0.000000
   16.798695    0.298534    0.298534    0.298534   -0.000000   -0.000000   -0.000000
   16.820095    0.300875    0.300875    0.300875   -0.000000   -0.000000   -0.000000
   16.841495    0.303220    0.303220    0.303220   -0.000000   -0.000000   -0.000000
   16.862894    0.305569    0.305569    0.305569   -0.000000   -0.000000   -0.000000
   16.884294    0.307920    0.307920    0.307920   -0.000000   -0.000000   -0.000000
   16.905693    0.310273    0.310273    0.310273   -0.000000   -0.000000   -0.000000
   16.927093    0.312625    0.312625    0.312625   -0.000000   -0.000000   -0.000000
   16.948493    0.314978    0.314978    0.314978   -0.000000   -0.000000   -0.000000
   16.969892    0.317329    0.317329    0.317329   -0.000000   -0.000000   -0.000000
   16.991292    0.319678    0.319678    0.319678   -0.000000   -0.000000   -0.000000
   17.012692    0.322024    0.322024    0.322024   -0.000000   -0.000000   -0.000000
   17.034091    0.324366    0.324366    0.324366   -0.000000   -0.000000   -0.000000
   17.055491    0.326703    0.326703    0.326703   -0.000000   -0.000000   -0.000000
   17.076890    0.329032    0.329032    0.329032   -0.000000   -0.000000   -0.000000
   17.098290    0.331350    0.331350    0.331350   -0.000000   -0.000000   -0.000000
   17.119690    0.333655    0.333655    0.333655   -0.000000   -0.000000   -0.000000
   17.141089    0.335942    0.335942    0.335942   -0.000000   -0.000000   -0.000000
   17.162489    0.338207    0.338207    0.338207   -0.000000   -0.000000   -0.000000
   17.183888    0.340448    0.340448    0.340448   -0.000000   -0.000000   -0.000000
   17.205288    0.342661    0.342661    0.342661   -0.000000   -0.000000   -0.000000
   17.226688    0.344848    0.344848    0.344848   -0.000000   -0.000000   -0.000000
   17.248087    0.347008    0.347008    0.347008   -0.000000   -0.000000   -0.000000
   17.269487    0.349143    0.349143    0.349143   -0.000000   -0.000000   -0.000000
   17.290886    0.351253    0.351253    0.351253   -0.000000   -0.000000   -0.000000
   17.312286    0.353340    0.353340    0.353340   -0.000000   -0.000000   -0.000000
   17.333686    0.355404    0.355404    0.355404   -0.000000   -0.000000   -0.000000
   17.355085    0.357448    0.357448    0.357448   -0.000000   -0.000000   -0.000000
   17.376485    0.359471    0.359471    0.359471   -0.000000   -0.000000   -0.000000
   17.397885    0.361476    0.361476    0.361476   -0.000000   -0.000000   -0.000000
   17.419284    0.363462    0.363462    0.363462   -0.000000   -0.000000   -0.000000
   17.440684    0.365430    0.365430    0.365430   -0.000000   -0.000000   -0.000000
   17.462083    0.367382    0.367382    0.367382   -0.000000   -0.000000   -0.000000
   17.483483    0.369317    0.369317    0.369317   -0.000000   -0.000000   -0.000000
   17.504883    0.371237    0.371237    0.371237   -0.000000   -0.000000   -0.000000
   17.526282    0.373141    0.373141    0.373141   -0.000000   -0.000000   -0.000000
   17.547682    0.375031    0.375031    0.375031   -0.000000   -0.000000   -0.000000
   17.569081    0.376906    0.376906    0.376906   -0.000000   -0.000000   -0.000000
   17.590481    0.378768    0.378768    0.378768   -0.000000   -0.000000   -0.000000
   17.611881    0.380617    0.380617    0.380617   -0.000000   -0.000000   -0.000000
   17.633280    0.382452    0.382452    0.382452   -0.000000   -0.000000   -0.000000
   17.654680    0.384275    0.384275    0.384275   -0.000000   -0.000000   -0.000000
   17.676079    0.386085    0.386085    0.386085   -0.000000   -0.000000   -0.000000
   17.697479    0.387883    0.387883    0.387883   -0.000000   -0.000000   -0.000000
   17.718879    0.389670    0.389670    0.389670   -0.000000   -0.000000   -0.000000
   17.740278    0.391445    0.391445    0.391445   -0.000000   -0.000000   -0.000000
   17.761678    0.393208    0.393208    0.393208   -0.000000   -0.000000   -0.000000
   17.783078    0.394961    0.394961    0.394961   -0.000000   -0.000000   -0.000000
   17.804477    0.396703    0.396703    0.396703   -0.000000   -0.000000   -0.000000
   17.825877    0.398434    0.398434    0.398434   -0.000000   -0.000000   -0.000000
   17.847276    0.400155    0.400155    0.400155   -0.000000   -0.000000   -0.000000
   17.868676    0.401865    0.401865    0.401865   -0.000000   -0.000000   -0.000000
   17.890076    0.403565    0.403565    0.403565   -0.000000   -0.000000   -0.000000
   17.911475    0.405256    0.405256    0.405256   -0.000000   -0.000000   -0.000000
   17.932875    0.406937    0.406937    0.406937   -0.000000   -0.000000   -0.000000
   17.954274    0.408608    0.408608    0.408608   -0.000000   -0.000000   -0.000000
   17.975674    0.410270    0.410270    0.410270   -0.000000   -0.000000   -0.000000
   17.997074    0.411923    0.411923    0.411923   -0.000000   -0.000000   -0.000000
   18.018473    0.413566    0.413566    0.413566   -0.000000   -0.000000   -0.000000
   18.039873    0.415201    0.415201    0.415201   -0.000000   -0.000000   -0.000000
   18.061272    0.416827    0.416827    0.416827   -0.000000   -0.000000   -0.000000
   18.082672    0.418444    0.418444    0.418444   -0.000000   -0.000000   -0.000000
   18.104072    0.420052    0.420052    0.420052   -0.000000   -0.000000   -0.000000
   18.125471    0.421652    0.421652    0.421652   -0.000000   -0.000000   -0.000000
   18.146871    0.423243    0.423243    0.423243   -0.000000   -0.000000   -0.000000
   18.168271    0.424826    0.424826    0.424826   -0.000000   -0.000000   -0.000000
   18.189670    0.426401    0.426401    0.426401   -0.000000   -0.000000   -0.000000
   18.211070    0.427968    0.427968    0.427968   -0.000000   -0.000000   -0.000000
   18.232469    0.429527    0.429527    0.429527   -0.000000   -0.000000   -0.000000
   18.253869    0.431078    0.431078    0.431078   -0.000000   -0.000000   -0.000000
   18.275269    0.432622    0.432622    0.432622   -0.000000   -0.000000   -0.000000
   18.296668    0.434157    0.434157    0.434157   -0.000000   -0.000000   -0.000000
   18.318068    0.435685    0.435685    0.435685   -0.000000   -0.000000   -0.000000
   18.339467    0.437206    0.437206    0.437206   -0.000000   -0.000000   -0.000000
   18.360867    0.438719    0.438719    0.438719   -0.000000   -0.000000   -0.000000
   18.382267    0.440224    0.440224    0.440224   -0.000000   -0.000000   -0.000000
   18.403666    0.441723    0.441723    0.441723   -0.000000   -0.000000   -0.000000
   18.425066    0.443214    0.443214    0.443214   -0.000000   -0.000000   -0.000000
   18.446466    0.444698    0.444698    0.444698   -0.000000   -0.000000   -0.000000
   18.467865    0.446175    0.446175    0.446175   -0.000000   -0.000000   -0.000000
   18.489265    0.447644    0.447644    0.447644   -0.000000   -0.000000   -0.000000
   18.510664    0.449107    0.449107    0.449107   -0.000000   -0.000000   -0.000000
   18.532064    0.450563    0.450563    0.450563   -0.000000   -0.000000   -0.000000
   18.553464    0.452013    0.452013    0.452013   -0.000000   -0.000000   -0.000000
   18.574863    0.453455    0.453455    0.453455   -0.000000   -0.000000   -0.000000
   18.596263    0.454891    0.454891    0.454891   -0.000000   -0.000000   -0.000000
   18.617662    0.456320    0.456320    0.456320   -0.000000   -0.000000   -0.000000
   18.639062    0.457743    0.457743    0.457743   -0.000000   -0.000000   -0.000000
   18.660462    0.459159    0.459159    0.459159   -0.000000   -0.000000   -0.000000
   18.681861    0.460569    0.460569    0.460569   -0.000000   -0.000000   -0.000000
   18.703261    0.461973    0.461973    0.461973   -0.000000   -0.000000   -0.000000
   18.724660    0.463370    0.463370    0.463370   -0.000000   -0.000000   -0.000000
   18.746060    0.464760    0.464760    0.464760   -0.000000   -0.000000   -0.000000
   18.767460    0.466145    0.466145    0.466145   -0.000000   -0.000000   -0.000000
   18.788859    0.467524    0.467524    0.467524   -0.000000   -0.000000   -0.000000
   18.810259    0.468896    0.468896    0.468896   -0.000000   -0.000000   -0.000000
   18.831659    0.470262    0.470262    0.470262   -0.000000   -0.000000   -0.000000
   18.853058    0.471622    0.471622    0.471622   -0.000000   -0.000000   -0.000000
   18.874458    0.472977    0.472977    0.472977   -0.000000   -0.000000   -0.000000
   18.895857    0.474325    0.474325    0.474325   -0.000000   -0.000000   -0.000000
   18.917257    0.475667    0.475667    0.475667   -0.000000   -0.000000   -0.000000
   18.938657    0.477004    0.477004    0.477004   -0.000000   -0.000000   -0.000000
   18.960056    0.478335    0.478335    0.478335   -0.000000   -0.000000   -0.000000
   18.981456    0.479660    0.479660    0.479660   -0.000000   -0.000000   -0.000000
   19.002855    0.480980    0.480980    0.480980   -0.000000   -0.000000   -0.000000
   19.024255    0.482293    0.482293    0.482293   -0.000000   -0.000000   -0.000000
   19.045655    0.483602    0.483602    0.483602   -0.000000   -0.000000   -0.000000
   19.067054    0.484904    0.484904    0.484904   -0.000000   -0.000000   -0.000000
   19.088454    0.486201    0.486201    0.486201   -0.000000   -0.000000   -0.000000
   19.109853    0.487493    0.487493    0.487493   -0.000000   -0.000000   -0.000000
   19.131253    0.488779    0.488779    0.488779   -0.000000   -0.000000   -0.000000
   19.152653    0.490060    0.490060    0.490060   -0.000000   -0.000000   -0.000000
   19.174052    0.491336    0.491336    0.491336   -0.000000   -0.000000   -0.000000
   19.195452    0.492606    0.492606    0.492606   -0.000000   -0.000000   -0.000000
   19.216852    0.493871    0.493871    0.493871   -0.000000   -0.000000   -0.000000
   19.238251    0.495130    0.495130    0.495130   -0.000000   -0.000000   -0.000000
   19.259651    0.496385    0.496385    0.496385   -0.000000   -0.000000   -0.000000
   19.281050    0.497634    0.497634    0.497634   -0.000000   -0.000000   -0.000000
   19.302450    0.498878    0.498878    0.498878   -0.000000   -0.000000   -0.000000
   19.323850    0.500117    0.500117    0.500117   -0.000000   -0.000000   -0.000000
   19.345249    0.501351    0.501351    0.501351   -0.000000   -0.000000   -0.000000
   19.366649    0.502580    0.502580    0.502580   -0.000000   -0.000000   -0.000000
   19.388048    0.503803    0.503803    0.503803   -0.000000   -0.000000   -0.000000
   19.409448    0.505022    0.505022    0.505022   -0.000000   -0.000000   -0.000000
   19.430848    0.506236    0.506236    0.506236   -0.000000   -0.000000   -0.000000
   19.452247    0.507445    0.507445    0.507445   -0.000000   -0.000000   -0.000000
   19.473647    0.508650    0.508650    0.508650   -0.000000   -0.000000   -0.000000
   19.495047    0.509849    0.509849    0.509849   -0.000000   -0.000000   -0.000000
   19.516446    0.511043    0.511043    0.511043   -0.000000   -0.000000   -0.000000
   19.537846    0.512233    0.512233    0.512233   -0.000000   -0.000000   -0.000000
   19.559245    0.513418    0.513418    0.513418   -0.000000   -0.000000   -0.000000
   19.580645    0.514599    0.514599    0.514599   -0.000000   -0.000000   -0.000000
   19.602045    0.515774    0.515774    0.515774   -0.000000   -0.000000   -0.000000
   19.623444    0.516945    0.516945    0.516945   -0.000000   -0.000000   -0.000000
   19.644844    0.518112    0.518112    0.518112   -0.000000   -0.000000   -0.000000
   19.666243    0.519273    0.519273    0.519273   -0.000000   -0.000000   -0.000000
   19.687643    0.520431    0.520431    0.520431   -0.000000   -0.000000   -0.000000
   19.709043    0.521583    0.521583    0.521583   -0.000000   -0.000000   -0.000000
   19.730442    0.522732    0.522732    0.522732   -0.000000   -0.000000   -0.000000
   19.751842    0.523875    0.523875    0.523875   -0.000000   -0.000000   -0.000000
   19.773241    0.525015    0.525015    0.525015   -0.000000   -0.000000   -0.000000
   19.794641    0.526149    0.526149    0.526149   -0.000000   -0.000000   -0.000000
   19.816041    0.527280    0.527280    0.527280   -0.000000   -0.000000   -0.000000
   19.837440    0.528406    0.528406    0.528406   -0.000000   -0.000000   -0.000000
   19.858840    0.529528    0.529528    0.529528   -0.000000   -0.000000   -0.000000
   19.880240    0.530645    0.530645    0.530645   -0.000000   -0.000000   -0.000000
   19.901639    0.531758    0.531758    0.531758   -0.000000   -0.000000   -0.000000
   19.923039    0.532867    0.532867    0.532867   -0.000000   -0.000000   -0.000000
   19.944438    0.533972    0.533972    0.533972   -0.000000   -0.000000   -0.000000
   19.965838    0.535072    0.535072    0.535072   -0.000000   -0.000000   -0.000000
   19.987238    0.536168    0.536168    0.536168   -0.000000   -0.000000   -0.000000
   20.008637    0.537260    0.537260    0.537260   -0.000000   -0.000000   -0.000000
   20.030037    0.538348    0.538348    0.538348   -0.000000   -0.000000   -0.000000
   20.051436    0.539432    0.539432    0.539432   -0.000000   -0.000000   -0.000000
   20.072836    0.540512    0.540512    0.540512   -0.000000   -0.000000   -0.000000
   20.094236    0.541587    0.541587    0.541587   -0.000000   -0.000000   -0.000000
   20.115635    0.542659    0.542659    0.542659   -0.000000   -0.000000   -0.000000
   20.137035    0.543726    0.543726    0.543726   -0.000000   -0.000000   -0.000000
   20.158434    0.544790    0.544790    0.544790   -0.000000   -0.000000   -0.000000
   20.179834    0.545849    0.545849    0.545849   -0.000000   -0.000000   -0.000000
   20.201234    0.546905    0.546905    0.546905   -0.000000   -0.000000   -0.000000
   20.222633    0.547957    0.547957    0.547957   -0.000000   -0.000000   -0.000000
   20.244033    0.549004    0.549004    0.549004   -0.000000   -0.000000   -0.000000
   20.265433    0.550048    0.550048    0.550048   -0.000000   -0.000000   -0.000000
   20.286832    0.551088    0.551088    0.551088   -0.000000   -0.000000   -0.000000
   20.308232    0.552125    0.552125    0.552125   -0.000000   -0.000000   -0.000000
   20.329631    0.553157    0.553157    0.553157   -0.000000   -0.000000   -0.000000
   20.351031    0.554185    0.554185    0.554185   -0.000000   -0.000000   -0.000000
   20.372431    0.555210    0.555210    0.555210   -0.000000   -0.000000   -0.000000
   20.393830    0.556231    0.556231    0.556231   -0.000000   -0.000000   -0.000000
   20.415230    0.557249    0.557249    0.557249   -0.000000   -0.000000   -0.000000
   20.436629    0.558262    0.558262    0.558262   -0.000000   -0.000000   -0.000000
   20.458029    0.559272    0.559272    0.559272   -0.000000   -0.000000   -0.000000
   20.479429    0.560278    0.560278    0.560278   -0.000000   -0.000000   -0.000000
   20.500828    0.561281    0.561281    0.561281   -0.000000   -0.000000   -0.000000
   20.522228    0.562280    0.562280    0.562280   -0.000000   -0.000000   -0.000000
   20.543627    0.563275    0.563275    0.563275   -0.000000   -0.000000   -0.000000
   20.565027    0.564267    0.564267    0.564267   -0.000000   -0.000000   -0.000000
   20.586427    0.565255    0.565255    0.565255   -0.000000   -0.000000   -0.000000
   20.607826    0.566239    0.566239    0.566239   -0.000000   -0.000000   -0.000000
   20.629226    0.567220    0.567220    0.567220   -0.000000   -0.000000   -0.000000
   20.650626    0.568198    0.568198    0.568198   -0.000000   -0.000000   -0.000000
   20.672025    0.569172    0.569172    0.569172   -0.000000   -0.000000   -0.000000
   20.693425    0.570142    0.570142    0.570142   -0.000000   -0.000000   -0.000000
   20.714824    0.571109    0.571109    0.571109   -0.000000   -0.000000   -0.000000
   20.736224    0.572073    0.572073    0.572073   -0.000000   -0.000000   -0.000000
   20.757624    0.573033    0.573033    0.573033   -0.000000   -0.000000   -0.000000
   20.779023    0.573990    0.573990    0.573990   -0.000000   -0.000000   -0.000000
   20.800423    0.574943    0.574943    0.574943   -0.000000   -0.000000   -0.000000
   20.821822    0.575893    0.575893    0.575893   -0.000000   -0.000000   -0.000000
   20.843222    0.576840    0.576840    0.576840   -0.000000   -0.000000   -0.000000
   20.864622    0.577783    0.577783    0.577783   -0.000000   -0.000000   -0.000000
   20.886021    0.578723    0.578723    0.578723   -0.000000   -0.000000   -0.000000
   20.907421    0.579659    0.579659    0.579659   -0.000000   -0.000000   -0.000000
   20.928821    0.580593    0.580593    0.580593   -0.000000   -0.000000   -0.000000
   20.950220    0.581523    0.581523    0.581523   -0.000000   -0.000000   -0.000000
   20.971620    0.582450    0.582450    0.582450   -0.000000   -0.000000   -0.000000
   20.993019    0.583373    0.583373    0.583373   -0.000000   -0.000000   -0.000000
   21.014419    0.584294    0.584294    0.584294   -0.000000   -0.000000   -0.000000
   21.035819    0.585211    0.585211    0.585211   -0.000000   -0.000000   -0.000000
   21.057218    0.586125    0.586125    0.586125   -0.000000   -0.000000   -0.000000
   21.078618    0.587036    0.587036    0.587036   -0.000000   -0.000000   -0.000000
   21.100017    0.587943    0.587943    0.587943   -0.000000   -0.000000   -0.000000
   21.121417    0.588848    0.588848    0.588848   -0.000000   -0.000000   -0.000000
   21.142817    0.589749    0.589749    0.589749   -0.000000   -0.000000   -0.000000
   21.164216    0.590647    0.590647    0.590647   -0.000000   -0.000000   -0.000000
   21.185616    0.591542    0.591542    0.591542   -0.000000   -0.000000   -0.000000
   21.207015    0.592435    0.592435    0.592435   -0.000000   -0.000000   -0.000000
   21.228415    0.593324    0.593324    0.593324   -0.000000   -0.000000   -0.000000
   21.249815    0.594210    0.594210    0.594210   -0.000000   -0.000000   -0.000000
   21.271214    0.595092    0.595092    0.595092   -0.000000   -0.000000   -0.000000
   21.292614    0.595972    0.595972    0.595972   -0.000000   -0.000000   -0.000000
   21.314014    0.596849    0.596849    0.596849   -0.000000   -0.000000   -0.000000
   21.335413    0.597723    0.597723    0.597723   -0.000000   -0.000000   -0.000000
   21.356813    0.598594    0.598594    0.598594   -0.000000   -0.000000   -0.000000
   21.378212    0.599462    0.599462    0.599462   -0.000000   -0.000000   -0.000000
 
 The outermost node in the dielectric function lies at epsilon=  15.0


--------------------------------------------------------------------------------------------------------


    OPTICS:  cpu time      0.1971: real time      0.2128
    4ORBIT:  cpu time      0.0000: real time      0.0000
 BZINTS: Fermi energy:    2.713817;   32.000000 electrons
         Band energy:-0.824367E+02;  BLOECHL correction:    0.000000

 total amount of memory used by VASP MPI-rank0    47079. kBytes
=======================================================================

   base      :      30000. kBytes
   nonl-proj :      10262. kBytes
   fftplans  :       1270. kBytes
   grid      :       3203. kBytes
   one-center:         64. kBytes
   wavefun   :       2280. kBytes
 
  
  
 General timing and accounting informations for this job:
 ========================================================
  
                  Total CPU time used (sec):        4.947
                            User time (sec):        3.094
                          System time (sec):        1.854
                         Elapsed time (sec):        5.796
  
                   Maximum memory used (kb):      142836.
                   Average memory used (kb):          N/A
  
                          Minor page faults:        14777
                          Major page faults:           59
                 Voluntary context switches:         1681
