 vasp.6.4.3 19Mar24 (build Aug 29 2024 15:27:20) complex                        
  
 executed on             LinuxIFC date 2025.03.19  11:28:07
 running    8 mpi-ranks, on    1 nodes
 distrk:  each k-point on    8 cores,    1 groups
 distr:  one band on NCORE=   1 cores,    8 groups


--------------------------------------------------------------------------------------------------------


 INCAR:
   SYSTEM = GaAs
   PREC = Normal
   ENCUT = 500
   ISMEAR = -5
   SIGMA = 0.1
   IBRION = 2
   LOPTICS = .TRUE.

 POTCAR:    PAW_PBE As 22Sep2009                  
 POTCAR:    PAW_PBE Ga 08Apr2002                  
 -----------------------------------------------------------------------------
|                                                                             |
|           W    W    AA    RRRRR   N    N  II  N    N   GGGG   !!!           |
|           W    W   A  A   R    R  NN   N  II  NN   N  G    G  !!!           |
|           W    W  A    A  R    R  N N  N  II  N N  N  G       !!!           |
|           W WW W  AAAAAA  RRRRR   N  N N  II  N  N N  G  GGG   !            |
|           WW  WW  A    A  R   R   N   NN  II  N   NN  G    G                |
|           W    W  A    A  R    R  N    N  II  N    N   GGGG   !!!           |
|                                                                             |
|     For optimal performance we recommend to set                             |
|       NCORE = 2 up to number-of-cores-per-socket                            |
|     NCORE specifies how many cores store one orbital (NPAR=cpu/NCORE).      |
|     This setting can greatly improve the performance of VASP for DFT.       |
|     The default, NCORE=1 might be grossly inefficient on modern             |
|     multi-core architectures or massively parallel machines. Do your        |
|     own testing! More info at https://www.vasp.at/wiki/index.php/NCORE      |
|     Unfortunately you need to use the default for GW and RPA                |
|     calculations (for HF NCORE is supported but not extensively tested      |
|     yet).                                                                   |
|                                                                             |
 -----------------------------------------------------------------------------

 POTCAR:    PAW_PBE As 22Sep2009                  
   VRHFIN =As: s2p3                                                                                 
   LEXCH  = PE                                                                                      
   EATOM  =   170.1867 eV,   12.5084 Ry                                                             
                                                                                                    
   TITEL  = PAW_PBE As 22Sep2009                                                                    
   LULTRA =        F    use ultrasoft PP ?                                                          
   IUNSCR =        1    unscreen: 0-lin 1-nonlin 2-no                                               
   RPACOR =    1.900    partial core radius                                                         
   POMASS =   74.922; ZVAL   =    5.000    mass and valenz                                          
   RCORE  =    2.100    outmost cutoff radius                                                       
   RWIGS  =    2.300; RWIGS  =    1.217    wigner-seitz radius (au A)                               
   ENMAX  =  208.702; ENMIN  =  156.526 eV                                                          
   ICORE  =        3    local potential                                                             
   LCOR   =        T    correct aug charges                                                         
   LPAW   =        T    paw PP                                                                      
   EAUG   =  462.758                                                                                
   DEXC   =    0.000                                                                                
   RMAX   =    2.144    core radius for proj-oper                                                   
   RAUG   =    1.300    factor for augmentation sphere                                              
   RDEP   =    2.140    radius for radial grids                                                     
   RDEPT  =    1.956    core radius for aug-charge                                                  
                                                                                                    
   Atomic configuration                                                                             
   10 entries                                                                                       
     n  l   j            E        occ.                                                              
     1  0  0.50    -11718.0418   2.0000                                                             
     2  0  0.50     -1486.5454   2.0000                                                             
     2  1  1.50     -1303.3889   6.0000                                                             
     3  0  0.50      -190.2849   2.0000                                                             
     3  1  1.50      -133.6555   6.0000                                                             
     3  2  2.50       -40.6443  10.0000                                                             
     4  0  0.50       -14.4936   2.0000                                                             
     4  1  0.50        -5.1947   3.0000                                                             
     4  2  1.50        -5.4423   0.0000                                                             
     4  3  2.50        -5.4423   0.0000                                                             
   Description                                                                                      
     l       E           TYP  RCUT    TYP  RCUT                                                     
     0    -14.4935570     23  2.100                                                                 
     0    -11.9212055     23  2.100                                                                 
     1     -5.1947127     23  2.100                                                                 
     1     27.2116520     23  2.100                                                                 
     2     -5.4423304     23  2.100                                                                 
     3     -1.3605826      7  2.100                                                                 
  local pseudopotential read in
  partial core-charges read in
  partial kinetic energy density read in
  atomic valenz-charges read in
  non local Contribution for L=           0  read in
    real space projection operators read in
  non local Contribution for L=           0  read in
    real space projection operators read in
  non local Contribution for L=           1  read in
    real space projection operators read in
  non local Contribution for L=           1  read in
    real space projection operators read in
  non local Contribution for L=           2  read in
    real space projection operators read in
    PAW grid and wavefunctions read in
 
   number of l-projection  operators is LMAX  =           5
   number of lm-projection operators is LMMAX =          13
 
 POTCAR:    PAW_PBE Ga 08Apr2002                  
   VRHFIN =Ga: s2p1                                                                                 
   LEXCH  = PE                                                                                      
   EATOM  =    58.8688 eV,    4.3267 Ry                                                             
                                                                                                    
   TITEL  = PAW_PBE Ga 08Apr2002                                                                    
   LULTRA =        F    use ultrasoft PP ?                                                          
   IUNSCR =        1    unscreen: 0-lin 1-nonlin 2-no                                               
   RPACOR =    2.170    partial core radius                                                         
   POMASS =   69.723; ZVAL   =    3.000    mass and valenz                                          
   RCORE  =    2.600    outmost cutoff radius                                                       
   RWIGS  =    2.650; RWIGS  =    1.402    wigner-seitz radius (au A)                               
   ENMAX  =  134.678; ENMIN  =  101.009 eV                                                          
   ICORE  =        3    local potential                                                             
   LCOR   =        T    correct aug charges                                                         
   LPAW   =        T    paw PP                                                                      
   EAUG   =  320.264                                                                                
   DEXC   =    0.000                                                                                
   RMAX   =    2.658    core radius for proj-oper                                                   
   RAUG   =    1.300    factor for augmentation sphere                                              
   RDEP   =    2.684    radius for radial grids                                                     
   RDEPT  =    2.308    core radius for aug-charge                                                  
                                                                                                    
   Atomic configuration                                                                             
   10 entries                                                                                       
     n  l   j            E        occ.                                                              
     1  0  0.50    -10228.7830   2.0000                                                             
     2  0  0.50     -1262.1604   2.0000                                                             
     2  1  1.50     -1098.6333   6.0000                                                             
     3  0  0.50      -148.1110   2.0000                                                             
     3  1  1.50       -98.8436   6.0000                                                             
     3  2  2.50       -19.1549  10.0000                                                             
     4  0  0.50        -8.9483   2.0000                                                             
     4  1  0.50        -2.5791   1.0000                                                             
     4  2  1.50         5.4423   0.0000                                                             
     4  3  2.50        -2.7416   0.0000                                                             
   Description                                                                                      
     l       E           TYP  RCUT    TYP  RCUT                                                     
     0     -8.9483097     23  2.600                                                                 
     0     -5.8232215     23  2.600                                                                 
     1     -2.5790793     23  2.600                                                                 
     1      5.2230115     23  2.600                                                                 
     2      1.3605826     23  2.600                                                                 
     3     -1.3605826      7  2.600                                                                 
  local pseudopotential read in
  partial core-charges read in
  partial kinetic energy density read in
  atomic valenz-charges read in
  non local Contribution for L=           0  read in
    real space projection operators read in
  non local Contribution for L=           0  read in
    real space projection operators read in
  non local Contribution for L=           1  read in
    real space projection operators read in
  non local Contribution for L=           1  read in
    real space projection operators read in
  non local Contribution for L=           2  read in
    real space projection operators read in
    PAW grid and wavefunctions read in
 
   number of l-projection  operators is LMAX  =           5
   number of lm-projection operators is LMMAX =          13
 
  PAW_PBE As 22Sep2009                  :
 energy of atom  1       EATOM= -170.1867
 kinetic energy error for atom=    0.0005 (will be added to EATOM!!)
  PAW_PBE Ga 08Apr2002                  :
 energy of atom  2       EATOM=  -58.8688
 kinetic energy error for atom=    0.0000 (will be added to EATOM!!)
 
 
 POSCAR: cubic gallium arsenide
  positions in direct lattice
  velocities in cartesian coordinates


 exchange-correlation table for PE
   RHO(1)=    0.500       N(1)  =     2000
   RHO(2)=  100.500       N(2)  =     4000
 


--------------------------------------------------------------------------------------------------------


 ion  position               nearest neighbor table
   1  0.000  0.000  0.000-   5 2.27   6 2.27   7 2.27   8 2.27
   2  0.500  0.500  0.000-   5 2.27   6 2.27   7 2.27   8 2.27
   3  0.500  0.000  0.500-   5 2.27   6 2.27   7 2.27   8 2.27
   4  0.000  0.500  0.500-   5 2.27   6 2.27   7 2.27   8 2.27
   5  0.250  0.250  0.250-   1 2.27   2 2.27   3 2.27   4 2.27
   6  0.750  0.250  0.750-   1 2.27   2 2.27   3 2.27   4 2.27
   7  0.750  0.750  0.250-   1 2.27   2 2.27   3 2.27   4 2.27
   8  0.250  0.750  0.750-   1 2.27   2 2.27   3 2.27   4 2.27
 
  LATTYP: Found a simple cubic cell.
 ALAT       =     5.2329699297
  
  Lattice vectors:
  
 A1 = (   5.2329699297,   0.0000000000,   0.0000000000)
 A2 = (   0.0000000000,   5.2329699297,   0.0000000000)
 A3 = (   0.0000000000,   0.0000000000,   5.2329699297)


Analysis of symmetry for initial positions (statically):
=====================================================================
 Subroutine PRICEL returns following result:
 
  LATTYP: Found a face centered cubic cell.
 ALAT       =     5.2329699297
  
  Lattice vectors:
  
 A1 = (   2.6164849649,  -2.6164849649,   0.0000000000)
 A2 = (   2.6164849649,   0.0000000000,   2.6164849649)
 A3 = (   0.0000000000,  -2.6164849649,   2.6164849649)
 
   4 primitive cells build up your supercell.
 

 Routine SETGRP: Setting up the symmetry group for a 
 simple cubic supercell.


 Subroutine GETGRP returns: Found 24 space group operations
 (whereof 24 operations were pure point group operations)
 out of a pool of 48 trial point group operations.


The static configuration has the point symmetry T_d .


Analysis of symmetry for dynamics (positions and initial velocities):
=====================================================================
 Subroutine PRICEL returns following result:
 
  LATTYP: Found a face centered cubic cell.
 ALAT       =     5.2329699297
  
  Lattice vectors:
  
 A1 = (   2.6164849649,  -2.6164849649,   0.0000000000)
 A2 = (   2.6164849649,   0.0000000000,   2.6164849649)
 A3 = (   0.0000000000,  -2.6164849649,   2.6164849649)
 
   4 primitive cells build up your supercell.
 

 Routine SETGRP: Setting up the symmetry group for a 
 simple cubic supercell.


 Subroutine GETGRP returns: Found 24 space group operations
 (whereof 24 operations were pure point group operations)
 out of a pool of 48 trial point group operations.


The dynamic configuration has the point symmetry T_d .


 Subroutine INISYM returns: Found 24 space group operations
 (whereof 24 operations are pure point group operations),
 and found     4 'primitive' translations


----------------------------------------------------------------------------------------

                                     Primitive cell                                     

  volume of cell :      35.8249

  direct lattice vectors                    reciprocal lattice vectors
     2.616484965 -2.616484965  0.000000000     0.191096072 -0.191096072 -0.191096072
     2.616484965  0.000000000  2.616484965     0.191096072  0.191096072  0.191096072
     0.000000000 -2.616484965  2.616484965    -0.191096072 -0.191096072  0.191096072

  length of vectors
     3.700268523  3.700268523  3.700268523     0.330988106  0.330988106  0.330988106

  position of ions in fractional coordinates (direct lattice)
     0.000000000  0.000000000  0.000000000
     0.750000000  0.750000000  0.750000000

  ion indices of the primitive-cell ions
   primitive index   ion index
                 1           1
                 2           5

----------------------------------------------------------------------------------------

 
 
 KPOINTS: Automatic mesh                          

Automatic generation of k-mesh.
 Grid dimensions read from file:
 generate k-points for:    5    5    5

 Generating k-lattice:

  Cartesian coordinates                     Fractional coordinates (reciprocal lattice)
     0.038219214  0.000000000  0.000000000     0.200000000  0.000000000  0.000000000
     0.000000000  0.038219214  0.000000000     0.000000000  0.200000000  0.000000000
     0.000000000  0.000000000  0.038219214     0.000000000  0.000000000  0.200000000

  Length of vectors
     0.038219214  0.038219214  0.038219214

  Shift w.r.t. Gamma in fractional coordinates (k-lattice)
     0.000000000  0.000000000  0.000000000

 TETIRR: Found     57 inequivalent tetrahedra from      750
 
 Subroutine IBZKPT returns following result:
 ===========================================
 
 Found     10 irreducible k-points:
 
 Following reciprocal coordinates:
            Coordinates               Weight
  0.000000  0.000000  0.000000      1.000000
  0.200000  0.000000  0.000000      6.000000
  0.400000  0.000000  0.000000      6.000000
  0.200000  0.200000  0.000000     12.000000
  0.400000  0.200000  0.000000     24.000000
  0.400000  0.400000  0.000000     12.000000
  0.200000  0.200000  0.200000      8.000000
  0.400000  0.200000  0.200000     24.000000
  0.400000  0.400000  0.200000     24.000000
  0.400000  0.400000  0.400000      8.000000
 
 Following cartesian coordinates:
            Coordinates               Weight
  0.000000  0.000000  0.000000      1.000000
  0.171986  0.000000  0.000000      6.000000
  0.343973  0.000000  0.000000      6.000000
  0.171986  0.171986  0.000000     12.000000
  0.343973  0.171986  0.000000     24.000000
  0.343973  0.343973  0.000000     12.000000
  0.171986  0.171986  0.171986      8.000000
  0.343973  0.171986  0.171986     24.000000
  0.343973  0.343973  0.171986     24.000000
  0.343973  0.343973  0.343973      8.000000
 


--------------------------------------------------------------------------------------------------------




 Dimension of arrays:
   k-points           NKPTS =     10   k-points in BZ     NKDIM =     10   number of bands    NBANDS=     24
   number of dos      NEDOS =    301   number of ions     NIONS =      8
   non local maximal  LDIM  =      5   non local SUM 2l+1 LMDIM =     13
   total plane-waves  NPLWV =  27000
   max r-space proj   IRMAX =      1   max aug-charges    IRDMAX=  13740
   dimension x,y,z NGX =    30 NGY =   30 NGZ =   30
   dimension x,y,z NGXF=    60 NGYF=   60 NGZF=   60
   support grid    NGXF=    60 NGYF=   60 NGZF=   60
   ions per type =               4   4
   NGX,Y,Z   is equivalent  to a cutoff of   9.53,  9.53,  9.53 a.u.
   NGXF,Y,Z  is equivalent  to a cutoff of  19.06, 19.06, 19.06 a.u.

 SYSTEM =  GaAs                                    
 POSCAR =  cubic gallium arsenide                  

 Startparameter for this run:
   NWRITE =      2    write-flag & timer
   PREC   = normal    normal or accurate (medium, high low for compatibility)
   ISTART =      1    job   : 0-new  1-cont  2-samecut
   ICHARG =      0    charge: 1-file 2-atom 10-const
   ISPIN  =      1    spin polarized calculation?
   LNONCOLLINEAR =      F non collinear calculations
   LSORBIT =      F    spin-orbit coupling
   INIWAV =      1    electr: 0-lowe 1-rand  2-diag
   LASPH  =      F    aspherical Exc in radial PAW
 Electronic Relaxation 1
   ENCUT  =  500.0 eV  36.75 Ry    6.06 a.u.   9.54  9.54  9.54*2*pi/ulx,y,z
   ENINI  =  500.0     initial cutoff
   ENAUG  =  462.8 eV  augmentation charge cutoff
   NELM   =     60;   NELMIN=  2; NELMDL=  0     # of ELM steps 
   EDIFF  = 0.1E-03   stopping-criterion for ELM
   LREAL  =      F    real-space projection
   NLSPLINE    = F    spline interpolate recip. space projectors
   LCOMPAT=      F    compatible to vasp.4.4
   GGA_COMPAT  = T    GGA compatible to vasp.4.4-vasp.4.6
   LMAXPAW     = -100 max onsite density
   LMAXMIX     =    2 max onsite mixed and CHGCAR
   VOSKOWN=      0    Vosko Wilk Nusair interpolation
   ROPT   =    0.00000   0.00000
 Ionic relaxation
   EDIFFG = 0.1E-02   stopping-criterion for IOM
   NSW    =      0    number of steps for IOM
   NBLOCK =      1;   KBLOCK =      1    inner block; outer block 
   IBRION =     -1    ionic relax: 0-MD 1-quasi-New 2-CG
   NFREE  =      1    steps in history (QN), initial steepest desc. (CG)
   ISIF   =      2    stress and relaxation
   IWAVPR =     10    prediction:  0-non 1-charg 2-wave 3-comb
   ISYM   =      2    0-nonsym 1-usesym 2-fastsym
   LCORR  =      T    Harris-Foulkes like correction to forces

   POTIM  = 0.5000    time-step for ionic-motion
   TEIN   =    0.0    initial temperature
   TEBEG  =    0.0;   TEEND  =   0.0 temperature during run
   SMASS  =  -3.00    Nose mass-parameter (am)
   estimated Nose-frequenzy (Omega)   =  0.10E-29 period in steps = 0.13E+47 mass=  -0.626E-27a.u.
   SCALEE = 1.0000    scale energy and forces
   NPACO  =    256;   APACO  = 10.0  distance and # of slots for P.C.
   PSTRESS=    0.0 pullay stress

  Mass of Ions in am
   POMASS =  74.92 69.72
  Ionic Valenz
   ZVAL   =   5.00  3.00
  Atomic Wigner-Seitz radii
   RWIGS  =  -1.00 -1.00
  virtual crystal weights 
   VCA    =   1.00  1.00
   NELECT =      32.0000    total number of electrons
   NUPDOWN=      -1.0000    fix difference up-down

 DOS related values:
   EMIN   =  10.00;   EMAX   =-10.00  energy-range for DOS
   EFERMI =   0.00;   METHOD = LEGACY      
   ISMEAR =    -5;   SIGMA  =   0.10  broadening in eV -4-tet -1-fermi 0-gaus

 Electronic relaxation 2 (details)
   IALGO  =     38    algorithm
   LDIAG  =      T    sub-space diagonalisation (order eigenvalues)
   LSUBROT=      F    optimize rotation matrix (better conditioning)
   TURBO    =      0    0=normal 1=particle mesh
   IRESTART =      0    0=no restart 2=restart with 2 vectors
   NREBOOT  =      0    no. of reboots
   NMIN     =      0    reboot dimension
   EREF     =   0.00    reference energy to select bands
   IMIX   =      4    mixing-type and parameters
     AMIX     =   0.40;   BMIX     =  1.00
     AMIX_MAG =   1.60;   BMIX_MAG =  1.00
     AMIN     =   0.10
     WC   =   100.;   INIMIX=   1;  MIXPRE=   1;  MAXMIX= -45

 Intra band minimization:
   WEIMIN = 0.0000     energy-eigenvalue tresh-hold
   EBREAK =  0.10E-05  absolut break condition
   DEPER  =   0.30     relativ break condition  

   TIME   =   0.40     timestep for ELM

  volume/ion in A,a.u.               =      17.91       120.88
  Fermi-wavevector in a.u.,A,eV,Ry     =   0.993215  1.876904 13.421820  0.986476
  Thomas-Fermi vector in A             =   2.125081
 
 Write flags
   LWAVE        =      T    write WAVECAR
   LDOWNSAMPLE  =      F    k-point downsampling of WAVECAR
   LCHARG       =      T    write CHGCAR
   LVTOT        =      F    write LOCPOT, total local potential
   LVHAR        =      F    write LOCPOT, Hartree potential only
   WRT_POTENTIAL= false  ! write potential to hdf5 file
   LELF         =      F    write electronic localiz. function (ELF)
   LORBIT       =      0    0 simple, 1 ext, 2 COOP (PROOUT), +10 PAW based schemes


 Dipole corrections
   LMONO      =      F    monopole corrections only (constant potential shift)
   LDIPOL     =      F    correct potential (dipole corrections)
   IDIPOL     =      0    1-x, 2-y, 3-z, 4-all directions 
   EPSILON    =  1.0000000 bulk dielectric constant
   LVACPOTAV  =      F  vacuum potentials using an averaging scheme for the charge density
   VACPOTFLAT =  0.1000000 required flatness to determine vacuum potential
 Exchange correlation treatment:
   GGA     = PE    functional components
   XC_C    = 1    coefficients multiplying the functional components
   LIBXC   =     F    Libxc                    
   VOSKOWN =     0    Vosko Wilk Nusair interpolation
   LHFCALC =     F    Hartree Fock is set to
   LHFONE  =     F    Hartree Fock one center treatment
   AEXX    =    0.0000 exact exchange contribution

 Parameters of functionals:
   PE:
     No parameter
 
 Van der Waals corrections
   IVDW    =     0    specifies the selected vdW correction

 Linear response parameters
   LEPSILON=     F    determine dielectric tensor
   LRPA    =     F    only Hartree local field effects (RPA)
   LNABLA  =     F    use nabla operator in PAW spheres
   LVEL    =     F    velocity operator in full k-point grid
   CSHIFT  =0.1000    complex shift for real part using Kramers Kronig
   OMEGAMAX=  -1.0    maximum frequency
   DEG_THRESHOLD= 0.2000000E-02 threshold for treating states as degnerate
   RTIME   =   -0.100 relaxation time in fs
  (WPLASMAI=    0.000 imaginary part of plasma frequency in eV, 0.658/RTIME)
   DFIELD  = 0.0000000 0.0000000 0.0000000 field for delta impulse in time
 
  Optional k-point grid parameters
   LKPOINTS_OPT  =     F    use optional k-point grid
   KPOINTS_OPT_MODE=     1    mode for optional k-point grid
 
 Orbital magnetization related:
   ORBITALMAG=     F  switch on orbital magnetization
   LCHIMAG   =     F  perturbation theory with respect to B field
   DQ        =  0.001000  dq finite difference perturbation B field
   LLRAUG    =     F  two centre corrections for induced B field
   LBONE     =     F  B-component reconstruction in AE one-centre
   LVGVCALC  =     T  calculate vGv susceptibility
   LVGVAPPL  =     F  apply vGv susceptibility instead of pGv for G=0

 Random number generation:
   RANDOM_GENERATOR = DEFAULT
   PCG_SEED         = not used


--------------------------------------------------------------------------------------------------------


 Static calculation
 charge density and potential will be updated during run
 non-spin polarized calculation
 Variant of blocked Davidson
 Davidson routine will perform the subspace rotation
 perform sub-space diagonalisation
    after iterative eigenvector-optimisation
 modified Broyden-mixing scheme, WC =      100.0
 initial mixing is a Kerker type mixing with AMIX =  0.4000 and BMIX =      1.0000
 Hartree-type preconditioning will be used
 using additional bands            8
 reciprocal scheme for non local part
 use partial core corrections
 calculate Harris-corrections to forces 
   (improved forces if not selfconsistent)
 use gradient corrections 
 use of overlap-Matrix (Vanderbilt PP)
 Fermi weights with tetrahedron method with Bloechl corrections


--------------------------------------------------------------------------------------------------------


  energy-cutoff  :      500.00
  volume of cell :      143.30
      direct lattice vectors                 reciprocal lattice vectors
     5.232969930  0.000000000  0.000000000     0.191096072  0.000000000  0.000000000
     0.000000000  5.232969930  0.000000000     0.000000000  0.191096072  0.000000000
     0.000000000  0.000000000  5.232969930     0.000000000  0.000000000  0.191096072

  length of vectors
     5.232969930  5.232969930  5.232969930     0.191096072  0.191096072  0.191096072


 
 old parameters found on file WAVECAR:
  energy-cutoff  :      500.00
  volume of cell :      151.47
      direct lattice vectors                 reciprocal lattice vectors
     5.330542292  0.000000000  0.000000000     0.187598174  0.000000000  0.000000000
     0.000000000  5.330542292  0.000000000     0.000000000  0.187598174  0.000000000
     0.000000000  0.000000000  5.330542292     0.000000000  0.000000000  0.187598174

  length of vectors

 
 k-points in units of 2pi/SCALE and weight: Automatic mesh                          
   0.00000000  0.00000000  0.00000000       0.008
   0.17198647  0.00000000  0.00000000       0.048
   0.34397293  0.00000000  0.00000000       0.048
   0.17198647  0.17198647  0.00000000       0.096
   0.34397293  0.17198647  0.00000000       0.192
   0.34397293  0.34397293  0.00000000       0.096
   0.17198647  0.17198647  0.17198647       0.064
   0.34397293  0.17198647  0.17198647       0.192
   0.34397293  0.34397293  0.17198647       0.192
   0.34397293  0.34397293  0.34397293       0.064
 
 k-points in reciprocal lattice and weights: Automatic mesh                          
   0.00000000  0.00000000  0.00000000       0.008
   0.20000000  0.00000000  0.00000000       0.048
   0.40000000  0.00000000  0.00000000       0.048
   0.20000000  0.20000000  0.00000000       0.096
   0.40000000  0.20000000  0.00000000       0.192
   0.40000000  0.40000000  0.00000000       0.096
   0.20000000  0.20000000  0.20000000       0.064
   0.40000000  0.20000000  0.20000000       0.192
   0.40000000  0.40000000  0.20000000       0.192
   0.40000000  0.40000000  0.40000000       0.064
 
 position of ions in fractional coordinates (direct lattice) 
   0.00000000  0.00000000  0.00000000
   0.50000000  0.50000000  0.00000000
   0.50000000  0.00000000  0.50000000
   0.00000000  0.50000000  0.50000000
   0.25000000  0.25000000  0.25000000
   0.75000000  0.25000000  0.75000000
   0.75000000  0.75000000  0.25000000
   0.25000000  0.75000000  0.75000000
 
 position of ions in cartesian coordinates  (Angst):
   0.00000000  0.00000000  0.00000000
   2.61648496  2.61648496  0.00000000
   2.61648496  0.00000000  2.61648496
   0.00000000  2.61648496  2.61648496
   1.30824248  1.30824248  1.30824248
   3.92472745  1.30824248  3.92472745
   3.92472745  3.92472745  1.30824248
   1.30824248  3.92472745  3.92472745
 


--------------------------------------------------------------------------------------------------------


 k-point     1 :   0.0000 0.0000 0.0000  plane waves:    3743
 k-point     2 :   0.2000 0.0000 0.0000  plane waves:    3651
 k-point     3 :   0.4000 0.0000 0.0000  plane waves:    3643
 k-point     4 :   0.2000 0.2000 0.0000  plane waves:    3643
 k-point     5 :   0.4000 0.2000 0.0000  plane waves:    3639
 k-point     6 :   0.4000 0.4000 0.0000  plane waves:    3636
 k-point     7 :   0.2000 0.2000 0.2000  plane waves:    3656
 k-point     8 :   0.4000 0.2000 0.2000  plane waves:    3627
 k-point     9 :   0.4000 0.4000 0.2000  plane waves:    3646
 k-point    10 :   0.4000 0.4000 0.4000  plane waves:    3620

 maximum and minimum number of plane-waves per node :      3743     3620

 maximum number of plane-waves:      3743
 maximum index in each direction: 
   IXMAX=    9   IYMAX=    9   IZMAX=    9
   IXMIN=   -9   IYMIN=   -9   IZMIN=   -9


 serial   3D FFT for wavefunctions
 parallel 3D FFT for charge:
    minimum data exchange during FFTs selected (reduces bandwidth)


 total amount of memory used by VASP MPI-rank0    44018. kBytes
=======================================================================

   base      :      30000. kBytes
   nonl-proj :       8266. kBytes
   fftplans  :       1096. kBytes
   grid      :       2745. kBytes
   one-center:         64. kBytes
   wavefun   :       1847. kBytes
 
     INWAV:  cpu time      0.0284: real time      0.0378
 Broyden mixing: mesh for mixing (old mesh)
   NGX = 19   NGY = 19   NGZ = 19
  (NGX  = 60   NGY  = 60   NGZ  = 60)
  gives a total of   6859 points

 charge density for first step will be calculated from the start-wavefunctions


--------------------------------------------------------------------------------------------------------


 Maximum index for augmentation-charges         1688 (set IRDMAX)


--------------------------------------------------------------------------------------------------------


 initial charge from wavefunction
 First call to EWALD:  gamma=   0.339
 Maximum number of real-space cells 3x 3x 3
 Maximum number of reciprocal cells 3x 3x 3

    FEWALD:  cpu time      0.0009: real time      0.0010


--------------------------------------- Ionic step        1  -------------------------------------------




--------------------------------------- Iteration      1(   1)  ---------------------------------------


    POTLOK:  cpu time      0.0138: real time      0.0165
    SETDIJ:  cpu time      0.0021: real time      0.0022
     EDDAV:  cpu time      0.2477: real time      0.2602
 BZINTS: Fermi energy:    5.172860;   32.000000 electrons
         Band energy:-0.369945E+02;  BLOECHL correction:    0.000000
       DOS:  cpu time      0.0004: real time      0.0004
    CHARGE:  cpu time      0.0126: real time      0.0128
    MIXING:  cpu time      0.0005: real time      0.0005
    --------------------------------------------
      LOOP:  cpu time      0.2772: real time      0.2926

 eigenvalue-minimisations  :   544
 total energy-change (2. order) :-0.2919729E+02  (-0.2610407E+00)
 number of electron      31.9999970 magnetization 
 augmentation part       -5.2788675 magnetization 

 Broyden mixing:
  rms(total) = 0.26174E+00    rms(broyden)= 0.26174E+00
  rms(prec ) = 0.35781E+00
  weight for this iteration     100.00

 Free energy of the ion-electron system (eV)
  ---------------------------------------------------
  alpha Z        PSCENC =        95.49126884
  Ewald energy   TEWEN  =      -990.31588622
  -Hartree energ DENC   =       -72.81247015
  -exchange      EXHF   =         0.00000000
  -V(xc)+E(xc)   XCENC  =      -118.33661155
  PAW double counting   =      2672.86546478    -2495.31421687
  entropy T*S    EENTRO =         0.00000000
  eigenvalues    EBANDS =       -36.99446976
  atomic energy  EATOM  =       916.21963040
  Solvation  Ediel_sol  =         0.00000000
  ---------------------------------------------------
  free energy    TOTEN  =       -29.19729053 eV

  energy without entropy =      -29.19729053  energy(sigma->0) =      -29.19729053


--------------------------------------------------------------------------------------------------------




--------------------------------------- Iteration      1(   2)  ---------------------------------------


    POTLOK:  cpu time      0.0143: real time      0.0152
    SETDIJ:  cpu time      0.0019: real time      0.0019
     EDDAV:  cpu time      0.2263: real time      0.2378
 BZINTS: Fermi energy:    5.113575;   32.000000 electrons
         Band energy:-0.392307E+02;  BLOECHL correction:    0.000000
       DOS:  cpu time      0.0004: real time      0.0004
    CHARGE:  cpu time      0.0124: real time      0.0126
    MIXING:  cpu time      0.0006: real time      0.0006
    --------------------------------------------
      LOOP:  cpu time      0.2558: real time      0.2685

 eigenvalue-minimisations  :   496
 total energy-change (2. order) : 0.6009785E-01  (-0.1441564E-01)
 number of electron      31.9999970 magnetization 
 augmentation part       -5.2820694 magnetization 

 Broyden mixing:
  rms(total) = 0.15839E+00    rms(broyden)= 0.15839E+00
  rms(prec ) = 0.20174E+00
  weight for this iteration     100.00

 eigenvalues of (default mixing * dielectric matrix)
  average eigenvalue GAMMA=   2.3608
  2.3608

 Free energy of the ion-electron system (eV)
  ---------------------------------------------------
  alpha Z        PSCENC =        95.49126884
  Ewald energy   TEWEN  =      -990.31588622
  -Hartree energ DENC   =       -70.62947507
  -exchange      EXHF   =         0.00000000
  -V(xc)+E(xc)   XCENC  =      -118.31588125
  PAW double counting   =      2824.97803029    -2647.33417706
  entropy T*S    EENTRO =         0.00000000
  eigenvalues    EBANDS =       -39.23070261
  atomic energy  EATOM  =       916.21963040
  Solvation  Ediel_sol  =         0.00000000
  ---------------------------------------------------
  free energy    TOTEN  =       -29.13719268 eV

  energy without entropy =      -29.13719268  energy(sigma->0) =      -29.13719268


--------------------------------------------------------------------------------------------------------




--------------------------------------- Iteration      1(   3)  ---------------------------------------


    POTLOK:  cpu time      0.0141: real time      0.0146
    SETDIJ:  cpu time      0.0019: real time      0.0019
     EDDAV:  cpu time      0.2311: real time      0.2429
 BZINTS: Fermi energy:    4.978287;   32.000000 electrons
         Band energy:-0.416267E+02;  BLOECHL correction:    0.000000
       DOS:  cpu time      0.0004: real time      0.0004
    CHARGE:  cpu time      0.0121: real time      0.0123
    MIXING:  cpu time      0.0006: real time      0.0006
    --------------------------------------------
      LOOP:  cpu time      0.2602: real time      0.2728

 eigenvalue-minimisations  :   512
 total energy-change (2. order) : 0.2053313E-01  (-0.9701082E-02)
 number of electron      31.9999969 magnetization 
 augmentation part       -5.3077830 magnetization 

 Broyden mixing:
  rms(total) = 0.20734E-01    rms(broyden)= 0.20734E-01
  rms(prec ) = 0.38351E-01
  weight for this iteration     100.00

 eigenvalues of (default mixing * dielectric matrix)
  average eigenvalue GAMMA=   1.4879
  0.9306  2.0453

 Free energy of the ion-electron system (eV)
  ---------------------------------------------------
  alpha Z        PSCENC =        95.49126884
  Ewald energy   TEWEN  =      -990.31588622
  -Hartree energ DENC   =       -68.37776514
  -exchange      EXHF   =         0.00000000
  -V(xc)+E(xc)   XCENC  =      -118.22560437
  PAW double counting   =      3019.90417767    -2842.18582928
  entropy T*S    EENTRO =         0.00000000
  eigenvalues    EBANDS =       -41.62665146
  atomic energy  EATOM  =       916.21963040
  Solvation  Ediel_sol  =         0.00000000
  ---------------------------------------------------
  free energy    TOTEN  =       -29.11665955 eV

  energy without entropy =      -29.11665955  energy(sigma->0) =      -29.11665955


--------------------------------------------------------------------------------------------------------




--------------------------------------- Iteration      1(   4)  ---------------------------------------


    POTLOK:  cpu time      0.0141: real time      0.0146
    SETDIJ:  cpu time      0.0019: real time      0.0019
     EDDAV:  cpu time      0.2289: real time      0.2407
 BZINTS: Fermi energy:    4.985382;   32.000000 electrons
         Band energy:-0.413193E+02;  BLOECHL correction:    0.000000
       DOS:  cpu time      0.0004: real time      0.0004
    CHARGE:  cpu time      0.0122: real time      0.0124
    MIXING:  cpu time      0.0006: real time      0.0006
    --------------------------------------------
      LOOP:  cpu time      0.2580: real time      0.2705

 eigenvalue-minimisations  :   512
 total energy-change (2. order) : 0.1093784E-02  (-0.4746767E-03)
 number of electron      31.9999969 magnetization 
 augmentation part       -5.3068375 magnetization 

 Broyden mixing:
  rms(total) = 0.11810E-01    rms(broyden)= 0.11810E-01
  rms(prec ) = 0.17958E-01
  weight for this iteration     100.00

 eigenvalues of (default mixing * dielectric matrix)
  average eigenvalue GAMMA=   1.6500
  2.2674  1.3413  1.3413

 Free energy of the ion-electron system (eV)
  ---------------------------------------------------
  alpha Z        PSCENC =        95.49126884
  Ewald energy   TEWEN  =      -990.31588622
  -Hartree energ DENC   =       -68.68425459
  -exchange      EXHF   =         0.00000000
  -V(xc)+E(xc)   XCENC  =      -118.20621027
  PAW double counting   =      3008.86140127    -2831.16216892
  entropy T*S    EENTRO =         0.00000000
  eigenvalues    EBANDS =       -41.31934627
  atomic energy  EATOM  =       916.21963040
  Solvation  Ediel_sol  =         0.00000000
  ---------------------------------------------------
  free energy    TOTEN  =       -29.11556577 eV

  energy without entropy =      -29.11556577  energy(sigma->0) =      -29.11556577


--------------------------------------------------------------------------------------------------------




--------------------------------------- Iteration      1(   5)  ---------------------------------------


    POTLOK:  cpu time      0.0141: real time      0.0147
    SETDIJ:  cpu time      0.0019: real time      0.0019
     EDDAV:  cpu time      0.2408: real time      0.2530
 BZINTS: Fermi energy:    4.982625;   32.000000 electrons
         Band energy:-0.413865E+02;  BLOECHL correction:    0.000000
       DOS:  cpu time      0.0004: real time      0.0004
    CHARGE:  cpu time      0.0121: real time      0.0123
    MIXING:  cpu time      0.0006: real time      0.0006
    --------------------------------------------
      LOOP:  cpu time      0.2699: real time      0.2829

 eigenvalue-minimisations  :   552
 total energy-change (2. order) : 0.2111183E-03  (-0.8521577E-04)
 number of electron      31.9999969 magnetization 
 augmentation part       -5.3086040 magnetization 

 Broyden mixing:
  rms(total) = 0.42823E-02    rms(broyden)= 0.42823E-02
  rms(prec ) = 0.45191E-02
  weight for this iteration     100.00

 eigenvalues of (default mixing * dielectric matrix)
  average eigenvalue GAMMA=   1.4621
  1.9059  1.4631  1.4631  1.0165

 Free energy of the ion-electron system (eV)
  ---------------------------------------------------
  alpha Z        PSCENC =        95.49126884
  Ewald energy   TEWEN  =      -990.31588622
  -Hartree energ DENC   =       -68.63875951
  -exchange      EXHF   =         0.00000000
  -V(xc)+E(xc)   XCENC  =      -118.17750144
  PAW double counting   =      3023.10162626    -2845.40921681
  entropy T*S    EENTRO =         0.00000000
  eigenvalues    EBANDS =       -41.38651616
  atomic energy  EATOM  =       916.21963040
  Solvation  Ediel_sol  =         0.00000000
  ---------------------------------------------------
  free energy    TOTEN  =       -29.11535465 eV

  energy without entropy =      -29.11535465  energy(sigma->0) =      -29.11535465


--------------------------------------------------------------------------------------------------------




--------------------------------------- Iteration      1(   6)  ---------------------------------------


    POTLOK:  cpu time      0.0139: real time      0.0145
    SETDIJ:  cpu time      0.0019: real time      0.0019
     EDDAV:  cpu time      0.1664: real time      0.1752
 BZINTS: Fermi energy:    4.982992;   32.000000 electrons
         Band energy:-0.413695E+02;  BLOECHL correction:    0.000000
       DOS:  cpu time      0.0004: real time      0.0004
    --------------------------------------------
      LOOP:  cpu time      0.1826: real time      0.1920

 eigenvalue-minimisations  :   264
 total energy-change (2. order) :-0.2758582E-05  (-0.2569029E-05)
 number of electron      31.9999969 magnetization 
 augmentation part       -5.3086040 magnetization 

 Free energy of the ion-electron system (eV)
  ---------------------------------------------------
  alpha Z        PSCENC =        95.49126884
  Ewald energy   TEWEN  =      -990.31588622
  -Hartree energ DENC   =       -68.65304169
  -exchange      EXHF   =         0.00000000
  -V(xc)+E(xc)   XCENC  =      -118.17856728
  PAW double counting   =      3019.46458154    -2841.77380302
  entropy T*S    EENTRO =         0.00000000
  eigenvalues    EBANDS =       -41.36953998
  atomic energy  EATOM  =       916.21963040
  Solvation  Ediel_sol  =         0.00000000
  ---------------------------------------------------
  free energy    TOTEN  =       -29.11535741 eV

  energy without entropy =      -29.11535741  energy(sigma->0) =      -29.11535741


--------------------------------------------------------------------------------------------------------




 average (electrostatic) potential at core
  the test charge radii are     1.0621  1.2767
  (the norm of the test charge is              1.0000)
       1 -49.6278       2 -49.6278       3 -49.6278       4 -49.6278       5 -12.7018
       6 -12.7018       7 -12.7018       8 -12.7018
 
 
 
 E-fermi :   4.9830     XC(G=0): -10.1662     alpha+bet :-10.7945

 val. band max:        4.9570525920   @ k =   0.0000   0.0000   0.0000
 cond. band min:       5.8723474042   @ k =   0.0000   0.0000   0.0000
 fundamental gap:      0.9152948123
 Fermi energy:         4.9829918496

 k-point     1 :       0.0000    0.0000    0.0000
  band No.  band energies     occupation 
      1      -9.7025      2.00000
      2      -6.3069      2.00000
      3      -6.3069      2.00000
      4      -6.3069      2.00000
      5      -3.0893      2.00000
      6      -3.0893      2.00000
      7      -3.0893      2.00000
      8       1.3376      2.00000
      9       1.3376      2.00000
     10       1.3376      2.00000
     11       1.3376      2.00000
     12       1.3376      2.00000
     13       1.3376      2.00000
     14       4.9571      2.00000
     15       4.9571      2.00000
     16       4.9571      2.00000
     17       5.8723      0.00000
     18       5.8723      0.00000
     19       5.8723      0.00000
     20       6.3796      0.00000
     21       6.3796      0.00000
     22       6.3796      0.00000
     23       7.4095      0.00000
     24       8.7264      0.00000

 k-point     2 :       0.2000    0.0000    0.0000
  band No.  band energies     occupation 
      1      -9.5139      2.00000
      2      -6.9832      2.00000
      3      -6.2719      2.00000
      4      -6.2719      2.00000
      5      -2.9880      2.00000
      6      -2.9880      2.00000
      7      -2.1619      2.00000
      8       0.8708      2.00000
      9       0.8708      2.00000
     10       0.9356      2.00000
     11       0.9356      2.00000
     12       1.5483      2.00000
     13       1.5483      2.00000
     14       3.6661      2.00000
     15       4.2793      2.00000
     16       4.2793      2.00000
     17       5.9420      0.00000
     18       6.8203      0.00000
     19       6.8203      0.00000
     20       6.8272      0.00000
     21       7.3355      0.00000
     22       7.3355      0.00000
     23       8.1158      0.00000
     24       8.6313      0.00000

 k-point     3 :       0.4000    0.0000    0.0000
  band No.  band energies     occupation 
      1      -8.9569      2.00000
      2      -8.0693      2.00000
      3      -6.2132      2.00000
      4      -6.2132      2.00000
      5      -2.7927      2.00000
      6      -2.7927      2.00000
      7      -0.3521      2.00000
      8       0.2213      2.00000
      9       0.2213      2.00000
     10       0.4255      2.00000
     11       0.4255      2.00000
     12       1.6654      2.00000
     13       2.1653      2.00000
     14       2.1653      2.00000
     15       3.1323      2.00000
     16       3.1323      2.00000
     17       6.3455      0.00000
     18       7.1255      0.00000
     19       7.9370      0.00000
     20       8.9304      0.00000
     21       8.9304      0.00000
     22       9.2226      0.00000
     23       9.5259      0.00000
     24       9.5259      0.00000

 k-point     4 :       0.2000    0.2000    0.0000
  band No.  band energies     occupation 
      1      -9.3283      2.00000
      2      -6.8875      2.00000
      3      -6.8875      2.00000
      4      -6.2965      2.00000
      5      -2.8950      2.00000
      6      -2.2170      2.00000
      7      -2.2170      2.00000
      8      -0.0313      2.00000
      9       0.9772      2.00000
     10       0.9772      2.00000
     11       1.3605      2.00000
     12       1.3605      2.00000
     13       1.6944      2.00000
     14       2.3839      2.00000
     15       3.5907      2.00000
     16       4.7316      2.00000
     17       6.4524      0.00000
     18       6.9410      0.00000
     19       6.9410      0.00000
     20       7.6958      0.00000
     21       7.6958      0.00000
     22       8.2886      0.00000
     23       8.9295      0.00000
     24       9.1379      0.00000

 k-point     5 :       0.4000    0.2000    0.0000
  band No.  band energies     occupation 
      1      -8.7823      2.00000
      2      -7.9200      2.00000
      3      -6.6520      2.00000
      4      -6.4159      2.00000
      5      -2.6706      2.00000
      6      -2.4079      2.00000
      7      -0.7580      2.00000
      8      -0.3557      2.00000
      9       0.0867      2.00000
     10       0.7957      2.00000
     11       1.2847      2.00000
     12       1.5212      2.00000
     13       1.5936      2.00000
     14       2.3714      2.00000
     15       2.4504      2.00000
     16       3.7505      2.00000
     17       7.3869      0.00000
     18       7.7437      0.00000
     19       8.1585      0.00000
     20       8.6441      0.00000
     21       9.0625      0.00000
     22       9.1869      0.00000
     23       9.7681      0.00000
     24      10.4019      0.00000

 k-point     6 :       0.4000    0.4000    0.0000
  band No.  band energies     occupation 
      1      -8.2756      2.00000
      2      -7.5028      2.00000
      3      -7.5028      2.00000
      4      -6.9283      2.00000
      5      -2.2598      2.00000
      6      -1.5568      2.00000
      7      -1.5568      2.00000
      8      -0.4581      2.00000
      9      -0.2408      2.00000
     10       0.4832      2.00000
     11       0.4832      2.00000
     12       1.3407      2.00000
     13       2.6660      2.00000
     14       2.7396      2.00000
     15       2.7396      2.00000
     16       3.8894      2.00000
     17       7.4611      0.00000
     18       8.5133      0.00000
     19       8.8845      0.00000
     20       8.8845      0.00000
     21       9.7146      0.00000
     22       9.7146      0.00000
     23      10.2324      0.00000
     24      10.4852      0.00000

 k-point     7 :       0.2000    0.2000    0.2000
  band No.  band energies     occupation 
      1      -9.1467      2.00000
      2      -6.8296      2.00000
      3      -6.8296      2.00000
      4      -6.8296      2.00000
      5      -2.3721      2.00000
      6      -2.3721      2.00000
      7      -2.3721      2.00000
      8       0.4543      2.00000
      9       0.4543      2.00000
     10       0.4543      2.00000
     11       1.2539      2.00000
     12       1.8888      2.00000
     13       1.8888      2.00000
     14       1.8888      2.00000
     15       4.2469      2.00000
     16       4.2469      2.00000
     17       6.6898      0.00000
     18       6.6898      0.00000
     19       6.6898      0.00000
     20       7.4549      0.00000
     21       9.1580      0.00000
     22       9.1580      0.00000
     23       9.1580      0.00000
     24       9.6223      0.00000

 k-point     8 :       0.4000    0.2000    0.2000
  band No.  band energies     occupation 
      1      -8.6150      2.00000
      2      -7.7868      2.00000
      3      -6.7283      2.00000
      4      -6.7283      2.00000
      5      -2.6557      2.00000
      6      -2.6557      2.00000
      7      -1.3643      2.00000
      8      -0.1581      2.00000
      9       0.2859      2.00000
     10       0.2859      2.00000
     11       1.7637      2.00000
     12       1.8923      2.00000
     13       1.8923      2.00000
     14       2.4518      2.00000
     15       3.3070      2.00000
     16       3.3891      2.00000
     17       7.3475      0.00000
     18       7.8926      0.00000
     19       7.9582      0.00000
     20       7.9582      0.00000
     21       9.2641      0.00000
     22       9.7556      0.00000
     23      10.3179      0.00000
     24      10.3179      0.00000

 k-point     9 :       0.4000    0.4000    0.2000
  band No.  band energies     occupation 
      1      -8.1356      2.00000
      2      -7.4320      2.00000
      3      -7.4320      2.00000
      4      -7.0072      2.00000
      5      -2.7556      2.00000
      6      -2.2620      2.00000
      7      -2.2620      2.00000
      8      -1.3828      2.00000
      9       0.7805      2.00000
     10       1.4177      2.00000
     11       1.4177      2.00000
     12       2.4478      2.00000
     13       2.7898      2.00000
     14       2.8369      2.00000
     15       2.8369      2.00000
     16       3.7953      2.00000
     17       7.6294      0.00000
     18       7.7799      0.00000
     19       8.3628      0.00000
     20       8.3628      0.00000
     21       9.1553      0.00000
     22       9.1553      0.00000
     23       9.8196      0.00000
     24       9.8753      0.00000

 k-point    10 :       0.4000    0.4000    0.4000
  band No.  band energies     occupation 
      1      -7.7600      2.00000
      2      -7.3051      2.00000
      3      -7.3051      2.00000
      4      -7.3051      2.00000
      5      -2.9907      2.00000
      6      -2.9907      2.00000
      7      -2.9907      2.00000
      8      -2.4640      2.00000
      9       2.5082      2.00000
     10       2.5082      2.00000
     11       2.5082      2.00000
     12       3.1164      2.00000
     13       3.1164      2.00000
     14       3.1164      2.00000
     15       3.5102      2.00000
     16       3.5102      2.00000
     17       6.8090      0.00000
     18       7.5256      0.00000
     19       7.5256      0.00000
     20       7.5256      0.00000
     21       9.3017      0.00000
     22       9.3017      0.00000
     23       9.3017      0.00000
     24       9.6941      0.00000


--------------------------------------------------------------------------------------------------------


 soft charge-density along one line, spin component           1
         0         1         2         3         4         5         6         7         8         9
 total charge-density along one line
 
 pseudopotential strength for first ion, spin component:           1
 23.153  27.671  -0.000  -0.000   0.000   0.000   0.000  -0.000
 27.671  33.076  -0.000  -0.000   0.000   0.000   0.000  -0.000
 -0.000  -0.000   5.473   0.000   0.000 -10.819  -0.000  -0.000
 -0.000  -0.000   0.000   5.473   0.000  -0.000 -10.819  -0.000
  0.000   0.000   0.000   0.000   5.473  -0.000  -0.000 -10.819
  0.000   0.000 -10.819  -0.000  -0.000  21.940   0.000   0.000
  0.000   0.000  -0.000 -10.819  -0.000   0.000  21.940   0.000
 -0.000  -0.000  -0.000  -0.000 -10.819   0.000   0.000  21.940
  0.000   0.000   0.000   0.005  -0.000  -0.000  -0.008   0.000
  0.000   0.000  -0.000  -0.000   0.005   0.000   0.000  -0.008
  0.000   0.000   0.000  -0.000  -0.000  -0.000   0.000   0.000
  0.000   0.000   0.005   0.000  -0.000  -0.008  -0.000   0.000
 -0.000  -0.000   0.000  -0.000   0.000  -0.000   0.000  -0.000
 total augmentation occupancy for first ion, spin component:           1
  6.952  -3.363   0.000  -0.000  -0.000  -0.000   0.000   0.000  -0.000  -0.000  -0.000  -0.000   0.000
 -3.363   1.980  -0.000   0.000   0.000   0.000   0.000  -0.000   0.000  -0.000   0.000   0.000  -0.000
 -0.000  -0.000   1.684   0.000   0.000   0.075  -0.000  -0.000  -0.000  -0.000   0.000   0.125   0.000
 -0.000   0.000  -0.000   1.684  -0.000  -0.000   0.075  -0.000   0.125   0.000   0.000  -0.000  -0.000
 -0.000  -0.000  -0.000   0.000   1.684   0.000   0.000   0.075   0.000   0.125  -0.000  -0.000   0.000
  0.000   0.000   0.075   0.000   0.000   0.004   0.000   0.000  -0.000   0.000  -0.000   0.006   0.000
  0.000   0.000  -0.000   0.075  -0.000  -0.000   0.004   0.000   0.006  -0.000  -0.000   0.000   0.000
 -0.000   0.000  -0.000  -0.000   0.075   0.000  -0.000   0.004  -0.000   0.006  -0.000   0.000   0.000
  0.000   0.000   0.000   0.125  -0.000   0.000   0.006   0.000   0.021   0.000  -0.000  -0.000  -0.000
 -0.000   0.000  -0.000  -0.000   0.125   0.000  -0.000   0.006  -0.000   0.021   0.000  -0.000   0.000
 -0.000   0.000  -0.000  -0.000  -0.000   0.000   0.000   0.000  -0.000   0.000   0.008   0.000   0.000
  0.000   0.000   0.125   0.000  -0.000   0.006  -0.000  -0.000  -0.000  -0.000   0.000   0.021   0.000
 -0.000  -0.000  -0.000  -0.000   0.000  -0.000   0.000   0.000   0.000   0.000   0.000  -0.000   0.008


------------------------ aborting loop because EDIFF is reached ----------------------------------------


    CHARGE:  cpu time      0.0122: real time      0.0125
    FORLOC:  cpu time      0.0010: real time      0.0010
    FORNL :  cpu time      0.0465: real time      0.0468
    STRESS:  cpu time      0.2657: real time      0.2672
    FORCOR:  cpu time      0.0142: real time      0.0145
    FORHAR:  cpu time      0.0037: real time      0.0038
    MIXING:  cpu time      0.0005: real time      0.0005
    OFIELD:  cpu time      0.0000: real time      0.0000

  FORCE on cell =-STRESS in cart. coord.  units (eV):
  Direction    XX          YY          ZZ          XY          YZ          ZX
  --------------------------------------------------------------------------------------
  Alpha Z    95.49127    95.49127    95.49127
  Ewald    -330.10582  -330.10582  -330.10582     0.00000    -0.00000     0.00000
  Hartree    22.87991    22.87991    22.87991    -0.00000    -0.00000    -0.00000
  E(xc)    -127.81452  -127.81452  -127.81452    -0.00000     0.00000    -0.00000
  Local    -117.07662  -117.07662  -117.07662    -0.00000    -0.00000     0.00000
  n-local   197.97952   199.74171   196.71109    -2.10355    -1.16051    -0.97262
  augment     9.25487     9.25487     9.25487     0.00000     0.00000     0.00000
  Kinetic   273.20142   284.93351   283.65496    -4.78642    -4.79058    -3.06622
  Fock        0.00000     0.00000     0.00000     0.00000     0.00000     0.00000
  -------------------------------------------------------------------------------------
  Total      31.36983    31.36983    31.36983     0.00000     0.00000     0.00000
  in kB     350.73415   350.73415   350.73415     0.00000     0.00000     0.00000
  external pressure =      350.73 kB  Pullay stress =        0.00 kB


 VOLUME and BASIS-vectors are now :
 -----------------------------------------------------------------------------
  energy-cutoff  :      500.00
  volume of cell :      143.30
      direct lattice vectors                 reciprocal lattice vectors
     5.232969930  0.000000000  0.000000000     0.191096072  0.000000000  0.000000000
     0.000000000  5.232969930  0.000000000     0.000000000  0.191096072  0.000000000
     0.000000000  0.000000000  5.232969930     0.000000000  0.000000000  0.191096072

  length of vectors
     5.232969930  5.232969930  5.232969930     0.191096072  0.191096072  0.191096072


 FORCES acting on ions
    electron-ion (+dipol)            ewald-force                    non-local-force                 convergence-correction
 -----------------------------------------------------------------------------------------------
   0.581E-14 -.293E-14 0.184E-14   -.178E-13 -.107E-13 -.355E-14   0.132E-16 -.136E-16 -.313E-16   -.259E-14 0.209E-14 -.157E-14
   0.151E-13 0.290E-12 -.229E-12   -.178E-13 -.107E-13 -.355E-14   -.154E-16 0.147E-16 -.178E-16   0.179E-14 -.410E-15 -.190E-14
   0.208E-13 0.269E-14 0.224E-14   -.178E-13 -.107E-13 -.355E-14   -.422E-16 -.139E-16 -.176E-16   0.250E-14 0.206E-14 -.287E-14
   0.955E-14 0.150E-13 0.234E-13   -.178E-13 -.107E-13 -.355E-14   0.121E-16 0.148E-16 -.170E-16   -.206E-14 -.846E-15 -.267E-14
   -.203E-13 -.423E-13 -.109E-15   0.169E-13 0.681E-14 0.294E-14   0.487E-18 0.386E-18 0.386E-18   -.318E-14 0.657E-15 0.676E-14
   -.232E-13 0.130E-12 0.148E-12   0.186E-13 0.683E-14 0.733E-14   0.178E-17 -.170E-17 0.619E-18   0.168E-14 0.494E-15 -.488E-14
   -.128E-13 0.136E-13 0.209E-12   0.173E-13 0.741E-14 0.337E-14   0.880E-17 -.203E-17 -.115E-17   0.162E-14 0.258E-14 0.673E-14
   -.169E-13 -.653E-14 0.171E-13   0.182E-13 0.743E-14 0.776E-14   0.361E-17 -.165E-17 -.207E-17   -.307E-14 0.221E-14 -.473E-14
 -----------------------------------------------------------------------------------------------
   -.219E-13 0.399E-12 0.172E-12   -.409E-16 -.142E-13 0.719E-14   -.177E-16 -.304E-17 -.859E-16   -.331E-14 0.884E-14 -.512E-14
 
 
 POSITION                                       TOTAL-FORCE (eV/Angst)
 -----------------------------------------------------------------------------------
      0.00000      0.00000      0.00000        -0.000000     -0.000000      0.000000
      2.61648      2.61648      0.00000         0.000000     -0.000000      0.000000
      2.61648      0.00000      2.61648        -0.000000     -0.000000      0.000000
      0.00000      2.61648      2.61648         0.000000     -0.000000     -0.000000
      1.30824      1.30824      1.30824        -0.000000     -0.000000     -0.000000
      3.92473      1.30824      3.92473         0.000000      0.000000     -0.000000
      3.92473      3.92473      1.30824        -0.000000      0.000000     -0.000000
      1.30824      3.92473      3.92473        -0.000000      0.000000     -0.000000
 -----------------------------------------------------------------------------------
    total drift:                               -0.000000      0.000000      0.000000


--------------------------------------------------------------------------------------------------------



  FREE ENERGIE OF THE ION-ELECTRON SYSTEM (eV)
  ---------------------------------------------------
  free  energy   TOTEN  =       -29.11535741 eV

  energy  without entropy=      -29.11535741  energy(sigma->0) =      -29.11535741
 


--------------------------------------------------------------------------------------------------------


    POTLOK:  cpu time      0.0158: real time      0.0164


--------------------------------------------------------------------------------------------------------


 writing wavefunctions
     LOOP+:  cpu time      2.0752: real time      2.1872


--------------------------------------------------------------------------------------------------------



 plasma frequency squared (from intraband transitions) (eV^2)
  --------------------------------------------------------------------------------------
       0.000       0.000       0.000
       0.000       0.000       0.000
       0.000       0.000       0.000

 electrical conductivity sigma (Mega S m-1) (frequency dependency in vasprun.xml)
  --------------------------------------------------------------------------------------
       0.000       0.000       0.000
       0.000       0.000       0.000
       0.000       0.000       0.000

 plasma frequency squared (from interband transitions, int dw w eps(2)(w)) (eV^2)
  --------------------------------------------------------------------------------------
     241.450       0.000      -0.000       0.000       0.000       0.000
      -0.000       0.000     241.450       0.000      -0.000       0.000
       0.000       0.000      -0.000       0.000     241.450       0.000
  --------------------------------------------------------------------------------------
 sumrule: sum of plasma frequencies squared should yield (valence only):     307.913

 Anomalous Hall contribution (eV) 2/pi Imag((f_n-f_m)<u_m| d/dk_a u_n> <u_m| d/dk_b u_n>^*) 
  --------------------------------------------------------------------------------------
       0.000       0.000       0.000
       0.000       0.000       0.000
       0.000       0.000       0.000

  frequency dependent IMAGINARY DIELECTRIC FUNCTION (independent particle, no local field effects) density-density
     E(ev)      X         Y         Z        XY        YZ        ZX
  --------------------------------------------------------------------------------------------------------------
    0.000000    0.000000    0.000000    0.000000    0.000000    0.000000    0.000000
    0.024249    0.001974    0.001974    0.001974   -0.000000   -0.000000    0.000000
    0.048499    0.003949    0.003949    0.003949   -0.000000   -0.000000    0.000000
    0.072748    0.005925    0.005925    0.005925   -0.000000   -0.000000    0.000000
    0.096998    0.007904    0.007904    0.007904   -0.000000   -0.000000    0.000000
    0.121247    0.009886    0.009886    0.009886   -0.000000   -0.000000    0.000000
    0.145497    0.011873    0.011873    0.011873   -0.000000   -0.000000    0.000000
    0.169746    0.013864    0.013864    0.013864   -0.000000   -0.000000    0.000000
    0.193996    0.015861    0.015861    0.015861   -0.000000   -0.000000    0.000000
    0.218245    0.017865    0.017865    0.017865   -0.000000   -0.000000    0.000000
    0.242495    0.019876    0.019876    0.019876   -0.000000   -0.000000    0.000000
    0.266744    0.021896    0.021896    0.021896   -0.000000   -0.000000    0.000000
    0.290994    0.023925    0.023925    0.023925   -0.000000   -0.000000    0.000000
    0.315243    0.025964    0.025964    0.025964   -0.000000   -0.000000    0.000000
    0.339493    0.028015    0.028015    0.028015   -0.000000   -0.000000    0.000000
    0.363742    0.030077    0.030077    0.030077   -0.000000   -0.000000    0.000000
    0.387992    0.032152    0.032152    0.032152   -0.000000   -0.000000    0.000000
    0.412241    0.034242    0.034242    0.034242   -0.000000   -0.000000    0.000000
    0.436491    0.036346    0.036346    0.036346   -0.000000   -0.000000    0.000000
    0.460740    0.038466    0.038466    0.038466   -0.000000   -0.000000    0.000000
    0.484989    0.040604    0.040604    0.040604   -0.000000   -0.000000    0.000000
    0.509239    0.042759    0.042759    0.042759   -0.000000   -0.000000    0.000000
    0.533488    0.044934    0.044934    0.044934   -0.000000   -0.000000    0.000000
    0.557738    0.047129    0.047129    0.047129   -0.000000   -0.000000    0.000000
    0.581987    0.049346    0.049346    0.049346   -0.000000   -0.000000    0.000000
    0.606237    0.051586    0.051586    0.051586   -0.000000   -0.000000    0.000000
    0.630486    0.053849    0.053849    0.053849   -0.000000   -0.000000    0.000000
    0.654736    0.056138    0.056138    0.056138   -0.000000   -0.000000    0.000000
    0.678985    0.058454    0.058454    0.058454   -0.000000   -0.000000    0.000000
    0.703235    0.060798    0.060798    0.060798   -0.000000   -0.000000    0.000000
    0.727484    0.063173    0.063173    0.063173   -0.000000   -0.000000    0.000000
    0.751734    0.065578    0.065578    0.065578   -0.000000   -0.000000    0.000000
    0.775983    0.068017    0.068017    0.068017   -0.000000   -0.000000    0.000000
    0.800233    0.070490    0.070490    0.070490   -0.000000   -0.000000    0.000000
    0.824482    0.073001    0.073001    0.073001   -0.000000   -0.000000    0.000000
    0.848732    0.075551    0.075551    0.075551   -0.000000   -0.000000    0.000000
    0.872981    0.078142    0.078142    0.078142   -0.000000   -0.000000    0.000000
    0.897231    0.080777    0.080777    0.080777   -0.000000   -0.000000    0.000000
    0.921480    0.083459    0.083459    0.083459   -0.000000   -0.000000    0.000000
    0.945729    0.086190    0.086190    0.086190   -0.000000   -0.000000    0.000000
    0.969979    0.088974    0.088974    0.088974   -0.000000   -0.000000    0.000000
    0.994228    0.091815    0.091815    0.091815   -0.000000   -0.000000    0.000000
    1.018478    0.094714    0.094714    0.094714   -0.000000   -0.000000    0.000000
    1.042727    0.097675    0.097675    0.097675   -0.000000   -0.000000    0.000000
    1.066977    0.100702    0.100702    0.100702   -0.000000   -0.000000    0.000000
    1.091226    0.103798    0.103798    0.103798   -0.000000   -0.000000    0.000000
    1.115476    0.106967    0.106967    0.106967   -0.000000   -0.000000    0.000000
    1.139725    0.110213    0.110213    0.110213   -0.000000   -0.000000    0.000000
    1.163975    0.113540    0.113540    0.113540   -0.000000   -0.000000    0.000000
    1.188224    0.116952    0.116952    0.116952   -0.000000   -0.000000    0.000000
    1.212474    0.120456    0.120456    0.120456   -0.000000   -0.000000    0.000000
    1.236723    0.124057    0.124057    0.124057   -0.000000   -0.000000    0.000000
    1.260973    0.127762    0.127762    0.127762   -0.000000   -0.000000    0.000000
    1.285222    0.131579    0.131579    0.131579   -0.000000   -0.000000    0.000000
    1.309472    0.135517    0.135517    0.135517   -0.000000   -0.000000    0.000000
    1.333721    0.139588    0.139588    0.139588   -0.000000   -0.000000    0.000000
    1.357970    0.143804    0.143804    0.143804   -0.000000   -0.000000    0.000000
    1.382220    0.148184    0.148184    0.148184   -0.000000   -0.000000    0.000000
    1.406469    0.152746    0.152746    0.152746   -0.000000   -0.000000    0.000000
    1.430719    0.157513    0.157513    0.157513   -0.000000   -0.000000    0.000000
    1.454968    0.162510    0.162510    0.162510   -0.000000   -0.000000    0.000000
    1.479218    0.167761    0.167761    0.167761   -0.000000   -0.000000    0.000000
    1.503467    0.173288    0.173288    0.173288   -0.000000   -0.000000    0.000000
    1.527717    0.179111    0.179111    0.179111   -0.000000   -0.000000    0.000000
    1.551966    0.185245    0.185245    0.185245   -0.000000   -0.000000    0.000000
    1.576216    0.191705    0.191705    0.191705   -0.000000   -0.000000    0.000000
    1.600465    0.198505    0.198505    0.198505   -0.000000   -0.000000    0.000000
    1.624715    0.205657    0.205657    0.205657   -0.000000   -0.000000    0.000000
    1.648964    0.213173    0.213173    0.213173   -0.000000   -0.000000    0.000000
    1.673214    0.221064    0.221064    0.221064   -0.000000   -0.000000    0.000000
    1.697463    0.229343    0.229343    0.229343   -0.000000   -0.000000    0.000000
    1.721713    0.238022    0.238022    0.238022   -0.000000   -0.000000    0.000000
    1.745962    0.247114    0.247114    0.247114   -0.000000   -0.000000    0.000000
    1.770212    0.256632    0.256632    0.256632   -0.000000   -0.000000    0.000000
    1.794461    0.266592    0.266592    0.266592   -0.000000   -0.000000    0.000000
    1.818710    0.277010    0.277010    0.277010   -0.000000   -0.000000    0.000000
    1.842960    0.287905    0.287905    0.287905   -0.000000   -0.000000    0.000000
    1.867209    0.299297    0.299297    0.299297   -0.000000   -0.000000    0.000000
    1.891459    0.311208    0.311208    0.311208   -0.000000   -0.000000    0.000000
    1.915708    0.323666    0.323666    0.323666   -0.000000   -0.000000    0.000000
    1.939958    0.336702    0.336702    0.336702   -0.000000   -0.000000    0.000000
    1.964207    0.350352    0.350352    0.350352   -0.000000   -0.000000    0.000000
    1.988457    0.364659    0.364659    0.364659   -0.000000   -0.000000    0.000000
    2.012706    0.379677    0.379677    0.379677   -0.000000   -0.000000    0.000000
    2.036956    0.395470    0.395470    0.395470   -0.000000   -0.000000    0.000000
    2.061205    0.412121    0.412121    0.412121   -0.000000   -0.000000    0.000000
    2.085455    0.429732    0.429732    0.429732   -0.000000   -0.000000    0.000000
    2.109704    0.448438    0.448438    0.448438   -0.000000   -0.000000    0.000000
    2.133954    0.468411    0.468411    0.468411   -0.000000   -0.000000    0.000000
    2.158203    0.489866    0.489866    0.489866   -0.000000   -0.000000    0.000000
    2.182453    0.513057    0.513057    0.513057   -0.000000   -0.000000    0.000000
    2.206702    0.538241    0.538241    0.538241   -0.000000   -0.000000    0.000000
    2.230952    0.565614    0.565614    0.565614   -0.000000   -0.000000    0.000000
    2.255201    0.595271    0.595271    0.595271   -0.000000   -0.000000    0.000000
    2.279450    0.627214    0.627214    0.627214   -0.000000   -0.000000    0.000000
    2.303700    0.661399    0.661399    0.661399   -0.000000   -0.000000    0.000000
    2.327949    0.697774    0.697774    0.697774   -0.000000   -0.000000    0.000000
    2.352199    0.736292    0.736292    0.736292   -0.000000   -0.000000    0.000000
    2.376448    0.776917    0.776917    0.776917   -0.000000   -0.000000    0.000000
    2.400698    0.819614    0.819614    0.819614   -0.000000   -0.000000    0.000000
    2.424947    0.864354    0.864354    0.864354   -0.000000   -0.000000    0.000000
    2.449197    0.911118    0.911118    0.911118   -0.000000   -0.000000    0.000000
    2.473446    0.959916    0.959916    0.959916   -0.000000    0.000000    0.000000
    2.497696    1.010811    1.010811    1.010811   -0.000000    0.000000    0.000000
    2.521945    1.063938    1.063938    1.063938   -0.000000    0.000000    0.000000
    2.546195    1.119504    1.119504    1.119504   -0.000000    0.000000    0.000000
    2.570444    1.177775    1.177775    1.177775   -0.000000   -0.000000    0.000000
    2.594694    1.239032    1.239032    1.239032   -0.000000   -0.000000    0.000000
    2.618943    1.303534    1.303534    1.303534   -0.000000   -0.000000    0.000000
    2.643193    1.371499    1.371499    1.371499   -0.000000   -0.000000    0.000000
    2.667442    1.443100    1.443100    1.443100   -0.000000   -0.000000    0.000000
    2.691692    1.518469    1.518469    1.518469   -0.000000   -0.000000    0.000000
    2.715941    1.597703    1.597703    1.597703   -0.000000   -0.000000    0.000000
    2.740190    1.680867    1.680867    1.680867   -0.000000    0.000000    0.000000
    2.764440    1.767994    1.767994    1.767994   -0.000000    0.000000    0.000000
    2.788689    1.859086    1.859086    1.859086    0.000000    0.000000    0.000000
    2.812939    1.954098    1.954098    1.954098    0.000000    0.000000    0.000000
    2.837188    2.052931    2.052931    2.052931    0.000000    0.000000    0.000000
    2.861438    2.155409    2.155409    2.155409    0.000000    0.000000    0.000000
    2.885687    2.261270    2.261270    2.261270    0.000000    0.000000    0.000000
    2.909937    2.370179    2.370179    2.370179    0.000000    0.000000    0.000000
    2.934186    2.481853    2.481853    2.481853    0.000000    0.000000    0.000000
    2.958436    2.596375    2.596375    2.596375    0.000000    0.000000    0.000000
    2.982685    2.714688    2.714688    2.714688    0.000000    0.000000    0.000000
    3.006935    2.838941    2.838941    2.838941   -0.000000    0.000000    0.000000
    3.031184    2.972293    2.972293    2.972293   -0.000000    0.000000    0.000000
    3.055434    3.118287    3.118287    3.118287   -0.000000    0.000000    0.000000
    3.079683    3.280213    3.280213    3.280213   -0.000000    0.000000    0.000000
    3.103933    3.461005    3.461005    3.461005   -0.000000    0.000000    0.000000
    3.128182    3.663868    3.663868    3.663868   -0.000000    0.000000    0.000000
    3.152432    3.893275    3.893275    3.893275   -0.000000   -0.000000    0.000000
    3.176681    4.155825    4.155825    4.155825   -0.000000   -0.000000    0.000000
    3.200930    4.460627    4.460627    4.460627   -0.000000   -0.000000    0.000000
    3.225180    4.818256    4.818256    4.818256   -0.000000   -0.000000    0.000000
    3.249429    5.235645    5.235645    5.235645   -0.000000   -0.000000    0.000000
    3.273679    5.702532    5.702532    5.702532   -0.000000   -0.000000    0.000000
    3.297928    6.171366    6.171366    6.171366   -0.000000   -0.000000    0.000000
    3.322178    6.560019    6.560019    6.560019   -0.000000   -0.000000    0.000000
    3.346427    6.812122    6.812122    6.812122   -0.000000   -0.000000    0.000000
    3.370677    6.950781    6.950781    6.950781   -0.000000   -0.000000    0.000000
    3.394926    7.040332    7.040332    7.040332   -0.000000   -0.000000    0.000000
    3.419176    7.127064    7.127064    7.127064   -0.000000   -0.000000    0.000000
    3.443425    7.228477    7.228477    7.228477   -0.000000   -0.000000    0.000000
    3.467675    7.346627    7.346627    7.346627   -0.000000   -0.000000    0.000000
    3.491924    7.478847    7.478847    7.478847   -0.000000   -0.000000   -0.000000
    3.516174    7.622266    7.622266    7.622266   -0.000000   -0.000000   -0.000000
    3.540423    7.775036    7.775036    7.775036   -0.000000   -0.000000   -0.000000
    3.564673    7.936290    7.936290    7.936290   -0.000000   -0.000000   -0.000000
    3.588922    8.105741    8.105741    8.105741   -0.000000   -0.000000   -0.000000
    3.613171    8.283393    8.283393    8.283393   -0.000000   -0.000000   -0.000000
    3.637421    8.469458    8.469458    8.469458   -0.000000   -0.000000   -0.000000
    3.661670    8.664272    8.664272    8.664272   -0.000000   -0.000000   -0.000000
    3.685920    8.867950    8.867950    8.867950   -0.000000   -0.000000   -0.000000
    3.710169    9.080033    9.080033    9.080033   -0.000000   -0.000000   -0.000000
    3.734419    9.299821    9.299821    9.299821   -0.000000   -0.000000   -0.000000
    3.758668    9.527501    9.527501    9.527501   -0.000000   -0.000000   -0.000000
    3.782918    9.765432    9.765432    9.765432   -0.000000   -0.000000   -0.000000
    3.807167   10.020077   10.020077   10.020077   -0.000000   -0.000000   -0.000000
    3.831417   10.305732   10.305732   10.305732   -0.000000   -0.000000   -0.000000
    3.855666   10.648531   10.648531   10.648531   -0.000000   -0.000000   -0.000000
    3.879916   11.085665   11.085665   11.085665   -0.000000   -0.000000   -0.000000
    3.904165   11.657577   11.657577   11.657577   -0.000000   -0.000000    0.000000
    3.928415   12.394081   12.394081   12.394081   -0.000000   -0.000000    0.000000
    3.952664   13.286751   13.286751   13.286751   -0.000000   -0.000000    0.000000
    3.976914   14.246462   14.246462   14.246462   -0.000000   -0.000000    0.000000
    4.001163   15.101220   15.101220   15.101220   -0.000000   -0.000000    0.000000
    4.025413   15.709371   15.709371   15.709371   -0.000000   -0.000000    0.000000
    4.049662   16.076180   16.076180   16.076180   -0.000000   -0.000000   -0.000000
    4.073911   16.301487   16.301487   16.301487   -0.000000   -0.000000   -0.000000
    4.098161   16.472145   16.472145   16.472145   -0.000000   -0.000000   -0.000000
    4.122410   16.632745   16.632745   16.632745   -0.000000   -0.000000    0.000000
    4.146660   16.802038   16.802038   16.802038   -0.000000   -0.000000    0.000000
    4.170909   16.989105   16.989105   16.989105   -0.000000   -0.000000    0.000000
    4.195159   17.200824   17.200824   17.200824   -0.000000   -0.000000    0.000000
    4.219408   17.444412   17.444412   17.444412   -0.000000   -0.000000    0.000000
    4.243658   17.728503   17.728503   17.728503   -0.000000   -0.000000    0.000000
    4.267907   18.064222   18.064222   18.064222   -0.000000   -0.000000    0.000000
    4.292157   18.465865   18.465865   18.465865   -0.000000   -0.000000    0.000000
    4.316406   18.949470   18.949470   18.949470   -0.000000   -0.000000    0.000000
    4.340656   19.525986   19.525986   19.525986   -0.000000    0.000000    0.000000
    4.364905   20.185056   20.185056   20.185056   -0.000000    0.000000    0.000000
    4.389155   20.872986   20.872986   20.872986   -0.000000    0.000000    0.000000
    4.413404   21.494528   21.494528   21.494528    0.000000    0.000000    0.000000
    4.437654   21.973612   21.973612   21.973612    0.000000    0.000000    0.000000
    4.461903   22.310885   22.310885   22.310885    0.000000    0.000000   -0.000000
    4.486153   22.550956   22.550956   22.550956    0.000000    0.000000   -0.000000
    4.510402   22.727312   22.727312   22.727312    0.000000    0.000000    0.000000
    4.534651   22.855155   22.855155   22.855155    0.000000   -0.000000    0.000000
    4.558901   22.949072   22.949072   22.949072    0.000000   -0.000000    0.000000
[...]
   18.963088    0.276959    0.276959    0.276959    0.000000   -0.000000    0.000000
   18.987337    0.279221    0.279221    0.279221    0.000000   -0.000000    0.000000
   19.011587    0.281507    0.281507    0.281507    0.000000   -0.000000    0.000000
   19.035836    0.283812    0.283812    0.283812    0.000000   -0.000000    0.000000
   19.060086    0.286133    0.286133    0.286133    0.000000   -0.000000    0.000000
   19.084335    0.288466    0.288466    0.288466    0.000000   -0.000000    0.000000
   19.108585    0.290806    0.290806    0.290806    0.000000   -0.000000    0.000000
   19.132834    0.293151    0.293151    0.293151    0.000000   -0.000000    0.000000
   19.157084    0.295494    0.295494    0.295494    0.000000   -0.000000    0.000000
   19.181333    0.297829    0.297829    0.297829    0.000000   -0.000000    0.000000
   19.205583    0.300149    0.300149    0.300149    0.000000   -0.000000    0.000000
   19.229832    0.302449    0.302449    0.302449    0.000000   -0.000000    0.000000
   19.254082    0.304725    0.304725    0.304725    0.000000   -0.000000    0.000000
   19.278331    0.306974    0.306974    0.306974    0.000000   -0.000000    0.000000
   19.302581    0.309198    0.309198    0.309198    0.000000   -0.000000    0.000000
   19.326830    0.311396    0.311396    0.311396    0.000000   -0.000000    0.000000
   19.351080    0.313570    0.313570    0.313570    0.000000   -0.000000    0.000000
   19.375329    0.315721    0.315721    0.315721    0.000000   -0.000000    0.000000
   19.399578    0.317851    0.317851    0.317851    0.000000   -0.000000    0.000000
   19.423828    0.319960    0.319960    0.319960    0.000000   -0.000000    0.000000
   19.448077    0.322051    0.322051    0.322051    0.000000   -0.000000    0.000000
   19.472327    0.324122    0.324122    0.324122    0.000000   -0.000000    0.000000
   19.496576    0.326177    0.326177    0.326177    0.000000   -0.000000    0.000000
   19.520826    0.328214    0.328214    0.328214    0.000000   -0.000000    0.000000
   19.545075    0.330236    0.330236    0.330236    0.000000   -0.000000    0.000000
   19.569325    0.332242    0.332242    0.332242    0.000000   -0.000000    0.000000
   19.593574    0.334233    0.334233    0.334233    0.000000   -0.000000    0.000000
   19.617824    0.336210    0.336210    0.336210    0.000000   -0.000000    0.000000
   19.642073    0.338173    0.338173    0.338173    0.000000   -0.000000    0.000000
   19.666323    0.340123    0.340123    0.340123    0.000000   -0.000000    0.000000
   19.690572    0.342060    0.342060    0.342060    0.000000   -0.000000    0.000000
   19.714822    0.343984    0.343984    0.343984    0.000000   -0.000000    0.000000
   19.739071    0.345895    0.345895    0.345895    0.000000   -0.000000    0.000000
   19.763321    0.347794    0.347794    0.347794    0.000000   -0.000000    0.000000
   19.787570    0.349682    0.349682    0.349682    0.000000   -0.000000    0.000000
   19.811820    0.351558    0.351558    0.351558    0.000000   -0.000000    0.000000
   19.836069    0.353423    0.353423    0.353423    0.000000   -0.000000    0.000000
   19.860318    0.355277    0.355277    0.355277    0.000000   -0.000000    0.000000
   19.884568    0.357120    0.357120    0.357120    0.000000   -0.000000    0.000000
   19.908817    0.358952    0.358952    0.358952    0.000000   -0.000000    0.000000
   19.933067    0.360775    0.360775    0.360775    0.000000   -0.000000    0.000000
   19.957316    0.362586    0.362586    0.362586    0.000000   -0.000000    0.000000
   19.981566    0.364388    0.364388    0.364388    0.000000   -0.000000    0.000000
   20.005815    0.366180    0.366180    0.366180    0.000000   -0.000000    0.000000
   20.030065    0.367962    0.367962    0.367962    0.000000   -0.000000    0.000000
   20.054314    0.369735    0.369735    0.369735    0.000000   -0.000000    0.000000
   20.078564    0.371498    0.371498    0.371498    0.000000   -0.000000    0.000000
   20.102813    0.373252    0.373252    0.373252    0.000000   -0.000000    0.000000
   20.127063    0.374996    0.374996    0.374996    0.000000   -0.000000    0.000000
   20.151312    0.376732    0.376732    0.376732    0.000000   -0.000000    0.000000
   20.175562    0.378459    0.378459    0.378459    0.000000   -0.000000    0.000000
   20.199811    0.380177    0.380177    0.380177    0.000000   -0.000000    0.000000
   20.224061    0.381886    0.381886    0.381886    0.000000   -0.000000    0.000000
   20.248310    0.383587    0.383587    0.383587    0.000000   -0.000000    0.000000
   20.272560    0.385279    0.385279    0.385279    0.000000   -0.000000    0.000000
   20.296809    0.386963    0.386963    0.386963    0.000000   -0.000000    0.000000
   20.321058    0.388638    0.388638    0.388638    0.000000   -0.000000    0.000000
   20.345308    0.390305    0.390305    0.390305    0.000000   -0.000000    0.000000
   20.369557    0.391965    0.391965    0.391965    0.000000   -0.000000    0.000000
   20.393807    0.393616    0.393616    0.393616    0.000000   -0.000000    0.000000
   20.418056    0.395259    0.395259    0.395259    0.000000   -0.000000    0.000000
   20.442306    0.396895    0.396895    0.396895    0.000000   -0.000000    0.000000
   20.466555    0.398522    0.398522    0.398522    0.000000   -0.000000    0.000000
   20.490805    0.400142    0.400142    0.400142    0.000000   -0.000000    0.000000
   20.515054    0.401755    0.401755    0.401755    0.000000   -0.000000    0.000000
   20.539304    0.403360    0.403360    0.403360    0.000000   -0.000000    0.000000
   20.563553    0.404957    0.404957    0.404957    0.000000   -0.000000    0.000000
   20.587803    0.406547    0.406547    0.406547    0.000000   -0.000000    0.000000
   20.612052    0.408130    0.408130    0.408130    0.000000   -0.000000    0.000000
   20.636302    0.409705    0.409705    0.409705    0.000000   -0.000000    0.000000
   20.660551    0.411273    0.411273    0.411273    0.000000   -0.000000    0.000000
   20.684801    0.412835    0.412835    0.412835    0.000000   -0.000000    0.000000
   20.709050    0.414389    0.414389    0.414389    0.000000   -0.000000    0.000000
   20.733300    0.415936    0.415936    0.415936    0.000000   -0.000000    0.000000
   20.757549    0.417476    0.417476    0.417476    0.000000   -0.000000    0.000000
   20.781798    0.419009    0.419009    0.419009    0.000000   -0.000000    0.000000
   20.806048    0.420536    0.420536    0.420536    0.000000   -0.000000    0.000000
   20.830297    0.422055    0.422055    0.422055    0.000000   -0.000000    0.000000
   20.854547    0.423568    0.423568    0.423568    0.000000   -0.000000    0.000000
   20.878796    0.425075    0.425075    0.425075    0.000000   -0.000000    0.000000
   20.903046    0.426574    0.426574    0.426574    0.000000   -0.000000    0.000000
   20.927295    0.428067    0.428067    0.428067    0.000000   -0.000000    0.000000
   20.951545    0.429554    0.429554    0.429554    0.000000   -0.000000    0.000000
   20.975794    0.431034    0.431034    0.431034    0.000000   -0.000000    0.000000
   21.000044    0.432508    0.432508    0.432508    0.000000   -0.000000    0.000000
   21.024293    0.433976    0.433976    0.433976    0.000000   -0.000000    0.000000
   21.048543    0.435437    0.435437    0.435437    0.000000   -0.000000    0.000000
   21.072792    0.436892    0.436892    0.436892    0.000000   -0.000000    0.000000
   21.097042    0.438340    0.438340    0.438340    0.000000   -0.000000    0.000000
   21.121291    0.439783    0.439783    0.439783    0.000000   -0.000000    0.000000
   21.145541    0.441219    0.441219    0.441219    0.000000   -0.000000    0.000000
   21.169790    0.442650    0.442650    0.442650    0.000000   -0.000000    0.000000
   21.194039    0.444074    0.444074    0.444074    0.000000   -0.000000    0.000000
   21.218289    0.445492    0.445492    0.445492    0.000000   -0.000000    0.000000
   21.242538    0.446905    0.446905    0.446905    0.000000   -0.000000    0.000000
   21.266788    0.448311    0.448311    0.448311    0.000000   -0.000000    0.000000
   21.291037    0.449712    0.449712    0.449712    0.000000   -0.000000    0.000000
   21.315287    0.451107    0.451107    0.451107    0.000000   -0.000000    0.000000
   21.339536    0.452496    0.452496    0.452496    0.000000   -0.000000    0.000000
   21.363786    0.453879    0.453879    0.453879    0.000000   -0.000000    0.000000
   21.388035    0.455257    0.455257    0.455257    0.000000   -0.000000    0.000000
   21.412285    0.456628    0.456628    0.456628    0.000000   -0.000000    0.000000
   21.436534    0.457995    0.457995    0.457995    0.000000   -0.000000    0.000000
   21.460784    0.459355    0.459355    0.459355    0.000000   -0.000000    0.000000
   21.485033    0.460711    0.460711    0.460711    0.000000   -0.000000    0.000000
   21.509283    0.462060    0.462060    0.462060    0.000000   -0.000000    0.000000
   21.533532    0.463404    0.463404    0.463404    0.000000   -0.000000    0.000000
   21.557782    0.464743    0.464743    0.464743    0.000000   -0.000000    0.000000
   21.582031    0.466076    0.466076    0.466076    0.000000   -0.000000    0.000000
   21.606281    0.467404    0.467404    0.467404    0.000000   -0.000000    0.000000
   21.630530    0.468727    0.468727    0.468727    0.000000   -0.000000    0.000000
   21.654779    0.470044    0.470044    0.470044    0.000000   -0.000000    0.000000
   21.679029    0.471356    0.471356    0.471356    0.000000   -0.000000    0.000000
   21.703278    0.472663    0.472663    0.472663    0.000000   -0.000000    0.000000
   21.727528    0.473965    0.473965    0.473965    0.000000   -0.000000    0.000000
   21.751777    0.475261    0.475261    0.475261    0.000000   -0.000000    0.000000
   21.776027    0.476552    0.476552    0.476552    0.000000   -0.000000    0.000000
   21.800276    0.477838    0.477838    0.477838    0.000000   -0.000000    0.000000
   21.824526    0.479119    0.479119    0.479119    0.000000   -0.000000    0.000000
   21.848775    0.480395    0.480395    0.480395    0.000000   -0.000000    0.000000
   21.873025    0.481666    0.481666    0.481666    0.000000   -0.000000    0.000000
   21.897274    0.482932    0.482932    0.482932    0.000000   -0.000000    0.000000
   21.921524    0.484194    0.484194    0.484194    0.000000   -0.000000    0.000000
   21.945773    0.485450    0.485450    0.485450    0.000000   -0.000000    0.000000
   21.970023    0.486701    0.486701    0.486701    0.000000   -0.000000    0.000000
   21.994272    0.487947    0.487947    0.487947    0.000000   -0.000000    0.000000
   22.018522    0.489189    0.489189    0.489189    0.000000   -0.000000    0.000000
   22.042771    0.490426    0.490426    0.490426    0.000000   -0.000000    0.000000
   22.067021    0.491658    0.491658    0.491658    0.000000   -0.000000    0.000000
   22.091270    0.492885    0.492885    0.492885    0.000000   -0.000000    0.000000
   22.115519    0.494107    0.494107    0.494107    0.000000   -0.000000    0.000000
   22.139769    0.495325    0.495325    0.495325    0.000000   -0.000000    0.000000
   22.164018    0.496538    0.496538    0.496538    0.000000   -0.000000    0.000000
   22.188268    0.497747    0.497747    0.497747    0.000000   -0.000000    0.000000
   22.212517    0.498951    0.498951    0.498951    0.000000   -0.000000    0.000000
   22.236767    0.500150    0.500150    0.500150    0.000000   -0.000000    0.000000
   22.261016    0.501345    0.501345    0.501345    0.000000   -0.000000    0.000000
   22.285266    0.502535    0.502535    0.502535    0.000000   -0.000000    0.000000
   22.309515    0.503720    0.503720    0.503720    0.000000   -0.000000    0.000000
   22.333765    0.504902    0.504902    0.504902    0.000000   -0.000000    0.000000
   22.358014    0.506078    0.506078    0.506078    0.000000   -0.000000    0.000000
   22.382264    0.507251    0.507251    0.507251    0.000000   -0.000000    0.000000
   22.406513    0.508418    0.508418    0.508418    0.000000   -0.000000    0.000000
   22.430763    0.509582    0.509582    0.509582    0.000000   -0.000000    0.000000
   22.455012    0.510741    0.510741    0.510741    0.000000   -0.000000    0.000000
   22.479262    0.511896    0.511896    0.511896    0.000000   -0.000000    0.000000
   22.503511    0.513046    0.513046    0.513046    0.000000   -0.000000    0.000000
   22.527761    0.514193    0.514193    0.514193    0.000000   -0.000000    0.000000
   22.552010    0.515334    0.515334    0.515334    0.000000   -0.000000    0.000000
   22.576259    0.516472    0.516472    0.516472    0.000000   -0.000000    0.000000
   22.600509    0.517606    0.517606    0.517606    0.000000   -0.000000    0.000000
   22.624758    0.518735    0.518735    0.518735    0.000000   -0.000000    0.000000
   22.649008    0.519860    0.519860    0.519860    0.000000   -0.000000    0.000000
   22.673257    0.520981    0.520981    0.520981    0.000000   -0.000000    0.000000
   22.697507    0.522098    0.522098    0.522098    0.000000   -0.000000    0.000000
   22.721756    0.523210    0.523210    0.523210    0.000000   -0.000000    0.000000
   22.746006    0.524319    0.524319    0.524319    0.000000   -0.000000    0.000000
   22.770255    0.525424    0.525424    0.525424    0.000000   -0.000000    0.000000
   22.794505    0.526524    0.526524    0.526524    0.000000   -0.000000    0.000000
   22.818754    0.527621    0.527621    0.527621    0.000000   -0.000000    0.000000
   22.843004    0.528713    0.528713    0.528713    0.000000   -0.000000    0.000000
   22.867253    0.529802    0.529802    0.529802    0.000000   -0.000000    0.000000
   22.891503    0.530886    0.530886    0.530886    0.000000   -0.000000    0.000000
   22.915752    0.531967    0.531967    0.531967    0.000000   -0.000000    0.000000
   22.940002    0.533044    0.533044    0.533044    0.000000   -0.000000    0.000000
   22.964251    0.534116    0.534116    0.534116    0.000000   -0.000000    0.000000
   22.988501    0.535185    0.535185    0.535185    0.000000   -0.000000    0.000000
   23.012750    0.536251    0.536251    0.536251    0.000000   -0.000000    0.000000
   23.036999    0.537312    0.537312    0.537312    0.000000   -0.000000    0.000000
   23.061249    0.538369    0.538369    0.538369    0.000000   -0.000000    0.000000
   23.085498    0.539423    0.539423    0.539423    0.000000   -0.000000    0.000000
   23.109748    0.540473    0.540473    0.540473    0.000000   -0.000000    0.000000
   23.133997    0.541519    0.541519    0.541519    0.000000   -0.000000    0.000000
   23.158247    0.542561    0.542561    0.542561    0.000000   -0.000000    0.000000
   23.182496    0.543600    0.543600    0.543600    0.000000   -0.000000    0.000000
   23.206746    0.544635    0.544635    0.544635    0.000000   -0.000000    0.000000
   23.230995    0.545667    0.545667    0.545667    0.000000   -0.000000    0.000000
   23.255245    0.546694    0.546694    0.546694    0.000000   -0.000000    0.000000
   23.279494    0.547718    0.547718    0.547718    0.000000   -0.000000    0.000000
   23.303744    0.548739    0.548739    0.548739    0.000000   -0.000000    0.000000
   23.327993    0.549755    0.549755    0.549755    0.000000   -0.000000    0.000000
   23.352243    0.550769    0.550769    0.550769    0.000000   -0.000000    0.000000
   23.376492    0.551778    0.551778    0.551778    0.000000   -0.000000    0.000000
   23.400742    0.552784    0.552784    0.552784    0.000000   -0.000000    0.000000
   23.424991    0.553787    0.553787    0.553787    0.000000   -0.000000    0.000000
   23.449240    0.554786    0.554786    0.554786    0.000000   -0.000000    0.000000
   23.473490    0.555782    0.555782    0.555782    0.000000   -0.000000    0.000000
   23.497739    0.556774    0.556774    0.556774    0.000000   -0.000000    0.000000
   23.521989    0.557762    0.557762    0.557762    0.000000   -0.000000    0.000000
   23.546238    0.558748    0.558748    0.558748    0.000000   -0.000000    0.000000
   23.570488    0.559729    0.559729    0.559729    0.000000   -0.000000    0.000000
   23.594737    0.560708    0.560708    0.560708    0.000000   -0.000000    0.000000
   23.618987    0.561683    0.561683    0.561683    0.000000   -0.000000    0.000000
   23.643236    0.562654    0.562654    0.562654    0.000000   -0.000000    0.000000
   23.667486    0.563623    0.563623    0.563623    0.000000   -0.000000    0.000000
   23.691735    0.564587    0.564587    0.564587    0.000000   -0.000000    0.000000
   23.715985    0.565549    0.565549    0.565549    0.000000   -0.000000    0.000000
   23.740234    0.566507    0.566507    0.566507    0.000000   -0.000000    0.000000
   23.764484    0.567462    0.567462    0.567462    0.000000   -0.000000    0.000000
   23.788733    0.568414    0.568414    0.568414    0.000000   -0.000000    0.000000
   23.812983    0.569362    0.569362    0.569362    0.000000   -0.000000    0.000000
   23.837232    0.570308    0.570308    0.570308    0.000000   -0.000000    0.000000
   23.861482    0.571249    0.571249    0.571249    0.000000   -0.000000    0.000000
   23.885731    0.572188    0.572188    0.572188    0.000000   -0.000000    0.000000
   23.909980    0.573124    0.573124    0.573124    0.000000   -0.000000    0.000000
   23.934230    0.574056    0.574056    0.574056    0.000000   -0.000000    0.000000
   23.958479    0.574985    0.574985    0.574985    0.000000   -0.000000    0.000000
   23.982729    0.575911    0.575911    0.575911    0.000000   -0.000000    0.000000
   24.006978    0.576834    0.576834    0.576834    0.000000   -0.000000    0.000000
   24.031228    0.577754    0.577754    0.577754    0.000000   -0.000000    0.000000
   24.055477    0.578671    0.578671    0.578671    0.000000   -0.000000    0.000000
   24.079727    0.579584    0.579584    0.579584    0.000000   -0.000000    0.000000
   24.103976    0.580495    0.580495    0.580495    0.000000   -0.000000    0.000000
   24.128226    0.581402    0.581402    0.581402    0.000000   -0.000000    0.000000
   24.152475    0.582306    0.582306    0.582306    0.000000   -0.000000    0.000000
   24.176725    0.583208    0.583208    0.583208    0.000000   -0.000000    0.000000
   24.200974    0.584106    0.584106    0.584106    0.000000   -0.000000    0.000000
   24.225224    0.585001    0.585001    0.585001    0.000000   -0.000000    0.000000
 
 The outermost node in the dielectric function lies at epsilon=  16.9


--------------------------------------------------------------------------------------------------------


    OPTICS:  cpu time      0.1753: real time      0.1888
    4ORBIT:  cpu time      0.0000: real time      0.0000
 BZINTS: Fermi energy:    4.982992;   32.000000 electrons
         Band energy:-0.413695E+02;  BLOECHL correction:    0.000000

 total amount of memory used by VASP MPI-rank0    44018. kBytes
=======================================================================

   base      :      30000. kBytes
   nonl-proj :       8266. kBytes
   fftplans  :       1096. kBytes
   grid      :       2745. kBytes
   one-center:         64. kBytes
   wavefun   :       1847. kBytes
 
  
  
 General timing and accounting informations for this job:
 ========================================================
  
                  Total CPU time used (sec):        4.050
                            User time (sec):        2.390
                          System time (sec):        1.660
                         Elapsed time (sec):        4.836
  
                   Maximum memory used (kb):      135764.
                   Average memory used (kb):          N/A
  
                          Minor page faults:        13388
                          Major page faults:           55
                 Voluntary context switches:         1991
