 vasp.6.4.3 19Mar24 (build Aug 29 2024 15:27:20) complex                        
  
 executed on             LinuxIFC date 2025.03.19  11:27:37
 running    8 mpi-ranks, on    1 nodes
 distrk:  each k-point on    8 cores,    1 groups
 distr:  one band on NCORE=   1 cores,    8 groups


--------------------------------------------------------------------------------------------------------


 INCAR:
   SYSTEM = GaAs
   PREC = Normal
   ENCUT = 500
   ISMEAR = -5
   SIGMA = 0.1
   IBRION = 2
   LOPTICS = .TRUE.

 POTCAR:    PAW_PBE As 22Sep2009                  
 POTCAR:    PAW_PBE Ga 08Apr2002                  
 -----------------------------------------------------------------------------
|                                                                             |
|           W    W    AA    RRRRR   N    N  II  N    N   GGGG   !!!           |
|           W    W   A  A   R    R  NN   N  II  NN   N  G    G  !!!           |
|           W    W  A    A  R    R  N N  N  II  N N  N  G       !!!           |
|           W WW W  AAAAAA  RRRRR   N  N N  II  N  N N  G  GGG   !            |
|           WW  WW  A    A  R   R   N   NN  II  N   NN  G    G                |
|           W    W  A    A  R    R  N    N  II  N    N   GGGG   !!!           |
|                                                                             |
|     For optimal performance we recommend to set                             |
|       NCORE = 2 up to number-of-cores-per-socket                            |
|     NCORE specifies how many cores store one orbital (NPAR=cpu/NCORE).      |
|     This setting can greatly improve the performance of VASP for DFT.       |
|     The default, NCORE=1 might be grossly inefficient on modern             |
|     multi-core architectures or massively parallel machines. Do your        |
|     own testing! More info at https://www.vasp.at/wiki/index.php/NCORE      |
|     Unfortunately you need to use the default for GW and RPA                |
|     calculations (for HF NCORE is supported but not extensively tested      |
|     yet).                                                                   |
|                                                                             |
 -----------------------------------------------------------------------------

 POTCAR:    PAW_PBE As 22Sep2009                  
   VRHFIN =As: s2p3                                                                                 
   LEXCH  = PE                                                                                      
   EATOM  =   170.1867 eV,   12.5084 Ry                                                             
                                                                                                    
   TITEL  = PAW_PBE As 22Sep2009                                                                    
   LULTRA =        F    use ultrasoft PP ?                                                          
   IUNSCR =        1    unscreen: 0-lin 1-nonlin 2-no                                               
   RPACOR =    1.900    partial core radius                                                         
   POMASS =   74.922; ZVAL   =    5.000    mass and valenz                                          
   RCORE  =    2.100    outmost cutoff radius                                                       
   RWIGS  =    2.300; RWIGS  =    1.217    wigner-seitz radius (au A)                               
   ENMAX  =  208.702; ENMIN  =  156.526 eV                                                          
   ICORE  =        3    local potential                                                             
   LCOR   =        T    correct aug charges                                                         
   LPAW   =        T    paw PP                                                                      
   EAUG   =  462.758                                                                                
   DEXC   =    0.000                                                                                
   RMAX   =    2.144    core radius for proj-oper                                                   
   RAUG   =    1.300    factor for augmentation sphere                                              
   RDEP   =    2.140    radius for radial grids                                                     
   RDEPT  =    1.956    core radius for aug-charge                                                  
                                                                                                    
   Atomic configuration                                                                             
   10 entries                                                                                       
     n  l   j            E        occ.                                                              
     1  0  0.50    -11718.0418   2.0000                                                             
     2  0  0.50     -1486.5454   2.0000                                                             
     2  1  1.50     -1303.3889   6.0000                                                             
     3  0  0.50      -190.2849   2.0000                                                             
     3  1  1.50      -133.6555   6.0000                                                             
     3  2  2.50       -40.6443  10.0000                                                             
     4  0  0.50       -14.4936   2.0000                                                             
     4  1  0.50        -5.1947   3.0000                                                             
     4  2  1.50        -5.4423   0.0000                                                             
     4  3  2.50        -5.4423   0.0000                                                             
   Description                                                                                      
     l       E           TYP  RCUT    TYP  RCUT                                                     
     0    -14.4935570     23  2.100                                                                 
     0    -11.9212055     23  2.100                                                                 
     1     -5.1947127     23  2.100                                                                 
     1     27.2116520     23  2.100                                                                 
     2     -5.4423304     23  2.100                                                                 
     3     -1.3605826      7  2.100                                                                 
  local pseudopotential read in
  partial core-charges read in
  partial kinetic energy density read in
  atomic valenz-charges read in
  non local Contribution for L=           0  read in
    real space projection operators read in
  non local Contribution for L=           0  read in
    real space projection operators read in
  non local Contribution for L=           1  read in
    real space projection operators read in
  non local Contribution for L=           1  read in
    real space projection operators read in
  non local Contribution for L=           2  read in
    real space projection operators read in
    PAW grid and wavefunctions read in
 
   number of l-projection  operators is LMAX  =           5
   number of lm-projection operators is LMMAX =          13
 
 POTCAR:    PAW_PBE Ga 08Apr2002                  
   VRHFIN =Ga: s2p1                                                                                 
   LEXCH  = PE                                                                                      
   EATOM  =    58.8688 eV,    4.3267 Ry                                                             
                                                                                                    
   TITEL  = PAW_PBE Ga 08Apr2002                                                                    
   LULTRA =        F    use ultrasoft PP ?                                                          
   IUNSCR =        1    unscreen: 0-lin 1-nonlin 2-no                                               
   RPACOR =    2.170    partial core radius                                                         
   POMASS =   69.723; ZVAL   =    3.000    mass and valenz                                          
   RCORE  =    2.600    outmost cutoff radius                                                       
   RWIGS  =    2.650; RWIGS  =    1.402    wigner-seitz radius (au A)                               
   ENMAX  =  134.678; ENMIN  =  101.009 eV                                                          
   ICORE  =        3    local potential                                                             
   LCOR   =        T    correct aug charges                                                         
   LPAW   =        T    paw PP                                                                      
   EAUG   =  320.264                                                                                
   DEXC   =    0.000                                                                                
   RMAX   =    2.658    core radius for proj-oper                                                   
   RAUG   =    1.300    factor for augmentation sphere                                              
   RDEP   =    2.684    radius for radial grids                                                     
   RDEPT  =    2.308    core radius for aug-charge                                                  
                                                                                                    
   Atomic configuration                                                                             
   10 entries                                                                                       
     n  l   j            E        occ.                                                              
     1  0  0.50    -10228.7830   2.0000                                                             
     2  0  0.50     -1262.1604   2.0000                                                             
     2  1  1.50     -1098.6333   6.0000                                                             
     3  0  0.50      -148.1110   2.0000                                                             
     3  1  1.50       -98.8436   6.0000                                                             
     3  2  2.50       -19.1549  10.0000                                                             
     4  0  0.50        -8.9483   2.0000                                                             
     4  1  0.50        -2.5791   1.0000                                                             
     4  2  1.50         5.4423   0.0000                                                             
     4  3  2.50        -2.7416   0.0000                                                             
   Description                                                                                      
     l       E           TYP  RCUT    TYP  RCUT                                                     
     0     -8.9483097     23  2.600                                                                 
     0     -5.8232215     23  2.600                                                                 
     1     -2.5790793     23  2.600                                                                 
     1      5.2230115     23  2.600                                                                 
     2      1.3605826     23  2.600                                                                 
     3     -1.3605826      7  2.600                                                                 
  local pseudopotential read in
  partial core-charges read in
  partial kinetic energy density read in
  atomic valenz-charges read in
  non local Contribution for L=           0  read in
    real space projection operators read in
  non local Contribution for L=           0  read in
    real space projection operators read in
  non local Contribution for L=           1  read in
    real space projection operators read in
  non local Contribution for L=           1  read in
    real space projection operators read in
  non local Contribution for L=           2  read in
    real space projection operators read in
    PAW grid and wavefunctions read in
 
   number of l-projection  operators is LMAX  =           5
   number of lm-projection operators is LMMAX =          13
 
  PAW_PBE As 22Sep2009                  :
 energy of atom  1       EATOM= -170.1867
 kinetic energy error for atom=    0.0005 (will be added to EATOM!!)
  PAW_PBE Ga 08Apr2002                  :
 energy of atom  2       EATOM=  -58.8688
 kinetic energy error for atom=    0.0000 (will be added to EATOM!!)
 
 
 POSCAR: cubic gallium arsenide
  positions in direct lattice
  velocities in cartesian coordinates


 exchange-correlation table for PE
   RHO(1)=    0.500       N(1)  =     2000
   RHO(2)=  100.500       N(2)  =     4000
 


--------------------------------------------------------------------------------------------------------


 ion  position               nearest neighbor table
   1  0.000  0.000  0.000-   5 2.32   6 2.32   7 2.32   8 2.32
   2  0.500  0.500  0.000-   5 2.32   6 2.32   7 2.32   8 2.32
   3  0.500  0.000  0.500-   5 2.32   6 2.32   7 2.32   8 2.32
   4  0.000  0.500  0.500-   5 2.32   6 2.32   7 2.32   8 2.32
   5  0.250  0.250  0.250-   1 2.32   2 2.32   3 2.32   4 2.32
   6  0.750  0.250  0.750-   1 2.32   2 2.32   3 2.32   4 2.32
   7  0.750  0.750  0.250-   1 2.32   2 2.32   3 2.32   4 2.32
   8  0.250  0.750  0.750-   1 2.32   2 2.32   3 2.32   4 2.32
 
  LATTYP: Found a simple cubic cell.
 ALAT       =     5.3585993994
  
  Lattice vectors:
  
 A1 = (   5.3585993994,   0.0000000000,   0.0000000000)
 A2 = (   0.0000000000,   5.3585993994,   0.0000000000)
 A3 = (   0.0000000000,   0.0000000000,   5.3585993994)


Analysis of symmetry for initial positions (statically):
=====================================================================
 Subroutine PRICEL returns following result:
 
  LATTYP: Found a face centered cubic cell.
 ALAT       =     5.3585993994
  
  Lattice vectors:
  
 A1 = (   2.6792996997,  -2.6792996997,   0.0000000000)
 A2 = (   2.6792996997,   0.0000000000,   2.6792996997)
 A3 = (   0.0000000000,  -2.6792996997,   2.6792996997)
 
   4 primitive cells build up your supercell.
 

 Routine SETGRP: Setting up the symmetry group for a 
 simple cubic supercell.


 Subroutine GETGRP returns: Found 24 space group operations
 (whereof 24 operations were pure point group operations)
 out of a pool of 48 trial point group operations.


The static configuration has the point symmetry T_d .


Analysis of symmetry for dynamics (positions and initial velocities):
=====================================================================
 Subroutine PRICEL returns following result:
 
  LATTYP: Found a face centered cubic cell.
 ALAT       =     5.3585993994
  
  Lattice vectors:
  
 A1 = (   2.6792996997,  -2.6792996997,   0.0000000000)
 A2 = (   2.6792996997,   0.0000000000,   2.6792996997)
 A3 = (   0.0000000000,  -2.6792996997,   2.6792996997)
 
   4 primitive cells build up your supercell.
 

 Routine SETGRP: Setting up the symmetry group for a 
 simple cubic supercell.


 Subroutine GETGRP returns: Found 24 space group operations
 (whereof 24 operations were pure point group operations)
 out of a pool of 48 trial point group operations.


The dynamic configuration has the point symmetry T_d .


 Subroutine INISYM returns: Found 24 space group operations
 (whereof 24 operations are pure point group operations),
 and found     4 'primitive' translations


----------------------------------------------------------------------------------------

                                     Primitive cell                                     

  volume of cell :      38.4675

  direct lattice vectors                    reciprocal lattice vectors
     2.679299700 -2.679299700  0.000000000     0.186615928 -0.186615928 -0.186615928
     2.679299700  0.000000000  2.679299700     0.186615928  0.186615928  0.186615928
     0.000000000 -2.679299700  2.679299700    -0.186615928 -0.186615928  0.186615928

  length of vectors
     3.789101973  3.789101973  3.789101973     0.323228269  0.323228269  0.323228269

  position of ions in fractional coordinates (direct lattice)
     0.000000000  0.000000000  0.000000000
     0.750000000  0.750000000  0.750000000

  ion indices of the primitive-cell ions
   primitive index   ion index
                 1           1
                 2           5

----------------------------------------------------------------------------------------

 
 
 KPOINTS: Automatic mesh                          

Automatic generation of k-mesh.
 Grid dimensions read from file:
 generate k-points for:    5    5    5

 Generating k-lattice:

  Cartesian coordinates                     Fractional coordinates (reciprocal lattice)
     0.037323186  0.000000000  0.000000000     0.200000000  0.000000000  0.000000000
     0.000000000  0.037323186  0.000000000     0.000000000  0.200000000  0.000000000
     0.000000000  0.000000000  0.037323186     0.000000000  0.000000000  0.200000000

  Length of vectors
     0.037323186  0.037323186  0.037323186

  Shift w.r.t. Gamma in fractional coordinates (k-lattice)
     0.000000000  0.000000000  0.000000000

 TETIRR: Found     57 inequivalent tetrahedra from      750
 
 Subroutine IBZKPT returns following result:
 ===========================================
 
 Found     10 irreducible k-points:
 
 Following reciprocal coordinates:
            Coordinates               Weight
  0.000000  0.000000  0.000000      1.000000
  0.200000  0.000000  0.000000      6.000000
  0.400000  0.000000  0.000000      6.000000
  0.200000  0.200000  0.000000     12.000000
  0.400000  0.200000  0.000000     24.000000
  0.400000  0.400000  0.000000     12.000000
  0.200000  0.200000  0.200000      8.000000
  0.400000  0.200000  0.200000     24.000000
  0.400000  0.400000  0.200000     24.000000
  0.400000  0.400000  0.400000      8.000000
 
 Following cartesian coordinates:
            Coordinates               Weight
  0.000000  0.000000  0.000000      1.000000
  0.167954  0.000000  0.000000      6.000000
  0.335909  0.000000  0.000000      6.000000
  0.167954  0.167954  0.000000     12.000000
  0.335909  0.167954  0.000000     24.000000
  0.335909  0.335909  0.000000     12.000000
  0.167954  0.167954  0.167954      8.000000
  0.335909  0.167954  0.167954     24.000000
  0.335909  0.335909  0.167954     24.000000
  0.335909  0.335909  0.335909      8.000000
 


--------------------------------------------------------------------------------------------------------




 Dimension of arrays:
   k-points           NKPTS =     10   k-points in BZ     NKDIM =     10   number of bands    NBANDS=     24
   number of dos      NEDOS =    301   number of ions     NIONS =      8
   non local maximal  LDIM  =      5   non local SUM 2l+1 LMDIM =     13
   total plane-waves  NPLWV =  27000
   max r-space proj   IRMAX =      1   max aug-charges    IRDMAX=  12809
   dimension x,y,z NGX =    30 NGY =   30 NGZ =   30
   dimension x,y,z NGXF=    60 NGYF=   60 NGZF=   60
   support grid    NGXF=    60 NGYF=   60 NGZF=   60
   ions per type =               4   4
   NGX,Y,Z   is equivalent  to a cutoff of   9.31,  9.31,  9.31 a.u.
   NGXF,Y,Z  is equivalent  to a cutoff of  18.61, 18.61, 18.61 a.u.

 SYSTEM =  GaAs                                    
 POSCAR =  cubic gallium arsenide                  

 Startparameter for this run:
   NWRITE =      2    write-flag & timer
   PREC   = normal    normal or accurate (medium, high low for compatibility)
   ISTART =      1    job   : 0-new  1-cont  2-samecut
   ICHARG =      0    charge: 1-file 2-atom 10-const
   ISPIN  =      1    spin polarized calculation?
   LNONCOLLINEAR =      F non collinear calculations
   LSORBIT =      F    spin-orbit coupling
   INIWAV =      1    electr: 0-lowe 1-rand  2-diag
   LASPH  =      F    aspherical Exc in radial PAW
 Electronic Relaxation 1
   ENCUT  =  500.0 eV  36.75 Ry    6.06 a.u.   9.77  9.77  9.77*2*pi/ulx,y,z
   ENINI  =  500.0     initial cutoff
   ENAUG  =  462.8 eV  augmentation charge cutoff
   NELM   =     60;   NELMIN=  2; NELMDL=  0     # of ELM steps 
   EDIFF  = 0.1E-03   stopping-criterion for ELM
   LREAL  =      F    real-space projection
   NLSPLINE    = F    spline interpolate recip. space projectors
   LCOMPAT=      F    compatible to vasp.4.4
   GGA_COMPAT  = T    GGA compatible to vasp.4.4-vasp.4.6
   LMAXPAW     = -100 max onsite density
   LMAXMIX     =    2 max onsite mixed and CHGCAR
   VOSKOWN=      0    Vosko Wilk Nusair interpolation
   ROPT   =    0.00000   0.00000
 Ionic relaxation
   EDIFFG = 0.1E-02   stopping-criterion for IOM
   NSW    =      0    number of steps for IOM
   NBLOCK =      1;   KBLOCK =      1    inner block; outer block 
   IBRION =     -1    ionic relax: 0-MD 1-quasi-New 2-CG
   NFREE  =      1    steps in history (QN), initial steepest desc. (CG)
   ISIF   =      2    stress and relaxation
   IWAVPR =     10    prediction:  0-non 1-charg 2-wave 3-comb
   ISYM   =      2    0-nonsym 1-usesym 2-fastsym
   LCORR  =      T    Harris-Foulkes like correction to forces

   POTIM  = 0.5000    time-step for ionic-motion
   TEIN   =    0.0    initial temperature
   TEBEG  =    0.0;   TEEND  =   0.0 temperature during run
   SMASS  =  -3.00    Nose mass-parameter (am)
   estimated Nose-frequenzy (Omega)   =  0.10E-29 period in steps = 0.13E+47 mass=  -0.656E-27a.u.
   SCALEE = 1.0000    scale energy and forces
   NPACO  =    256;   APACO  = 10.0  distance and # of slots for P.C.
   PSTRESS=    0.0 pullay stress

  Mass of Ions in am
   POMASS =  74.92 69.72
  Ionic Valenz
   ZVAL   =   5.00  3.00
  Atomic Wigner-Seitz radii
   RWIGS  =  -1.00 -1.00
  virtual crystal weights 
   VCA    =   1.00  1.00
   NELECT =      32.0000    total number of electrons
   NUPDOWN=      -1.0000    fix difference up-down

 DOS related values:
   EMIN   =  10.00;   EMAX   =-10.00  energy-range for DOS
   EFERMI =   0.00;   METHOD = LEGACY      
   ISMEAR =    -5;   SIGMA  =   0.10  broadening in eV -4-tet -1-fermi 0-gaus

 Electronic relaxation 2 (details)
   IALGO  =     38    algorithm
   LDIAG  =      T    sub-space diagonalisation (order eigenvalues)
   LSUBROT=      F    optimize rotation matrix (better conditioning)
   TURBO    =      0    0=normal 1=particle mesh
   IRESTART =      0    0=no restart 2=restart with 2 vectors
   NREBOOT  =      0    no. of reboots
   NMIN     =      0    reboot dimension
   EREF     =   0.00    reference energy to select bands
   IMIX   =      4    mixing-type and parameters
     AMIX     =   0.40;   BMIX     =  1.00
     AMIX_MAG =   1.60;   BMIX_MAG =  1.00
     AMIN     =   0.10
     WC   =   100.;   INIMIX=   1;  MIXPRE=   1;  MAXMIX= -45

 Intra band minimization:
   WEIMIN = 0.0000     energy-eigenvalue tresh-hold
   EBREAK =  0.10E-05  absolut break condition
   DEPER  =   0.30     relativ break condition  

   TIME   =   0.40     timestep for ELM

  volume/ion in A,a.u.               =      19.23       129.80
  Fermi-wavevector in a.u.,A,eV,Ry     =   0.969930  1.832901 12.799863  0.940763
  Thomas-Fermi vector in A             =   2.100023
 
 Write flags
   LWAVE        =      T    write WAVECAR
   LDOWNSAMPLE  =      F    k-point downsampling of WAVECAR
   LCHARG       =      T    write CHGCAR
   LVTOT        =      F    write LOCPOT, total local potential
   LVHAR        =      F    write LOCPOT, Hartree potential only
   WRT_POTENTIAL= false  ! write potential to hdf5 file
   LELF         =      F    write electronic localiz. function (ELF)
   LORBIT       =      0    0 simple, 1 ext, 2 COOP (PROOUT), +10 PAW based schemes


 Dipole corrections
   LMONO      =      F    monopole corrections only (constant potential shift)
   LDIPOL     =      F    correct potential (dipole corrections)
   IDIPOL     =      0    1-x, 2-y, 3-z, 4-all directions 
   EPSILON    =  1.0000000 bulk dielectric constant
   LVACPOTAV  =      F  vacuum potentials using an averaging scheme for the charge density
   VACPOTFLAT =  0.1000000 required flatness to determine vacuum potential
 Exchange correlation treatment:
   GGA     = PE    functional components
   XC_C    = 1    coefficients multiplying the functional components
   LIBXC   =     F    Libxc                    
   VOSKOWN =     0    Vosko Wilk Nusair interpolation
   LHFCALC =     F    Hartree Fock is set to
   LHFONE  =     F    Hartree Fock one center treatment
   AEXX    =    0.0000 exact exchange contribution

 Parameters of functionals:
   PE:
     No parameter
 
 Van der Waals corrections
   IVDW    =     0    specifies the selected vdW correction

 Linear response parameters
   LEPSILON=     F    determine dielectric tensor
   LRPA    =     F    only Hartree local field effects (RPA)
   LNABLA  =     F    use nabla operator in PAW spheres
   LVEL    =     F    velocity operator in full k-point grid
   CSHIFT  =0.1000    complex shift for real part using Kramers Kronig
   OMEGAMAX=  -1.0    maximum frequency
   DEG_THRESHOLD= 0.2000000E-02 threshold for treating states as degnerate
   RTIME   =   -0.100 relaxation time in fs
  (WPLASMAI=    0.000 imaginary part of plasma frequency in eV, 0.658/RTIME)
   DFIELD  = 0.0000000 0.0000000 0.0000000 field for delta impulse in time
 
  Optional k-point grid parameters
   LKPOINTS_OPT  =     F    use optional k-point grid
   KPOINTS_OPT_MODE=     1    mode for optional k-point grid
 
 Orbital magnetization related:
   ORBITALMAG=     F  switch on orbital magnetization
   LCHIMAG   =     F  perturbation theory with respect to B field
   DQ        =  0.001000  dq finite difference perturbation B field
   LLRAUG    =     F  two centre corrections for induced B field
   LBONE     =     F  B-component reconstruction in AE one-centre
   LVGVCALC  =     T  calculate vGv susceptibility
   LVGVAPPL  =     F  apply vGv susceptibility instead of pGv for G=0

 Random number generation:
   RANDOM_GENERATOR = DEFAULT
   PCG_SEED         = not used


--------------------------------------------------------------------------------------------------------


 Static calculation
 charge density and potential will be updated during run
 non-spin polarized calculation
 Variant of blocked Davidson
 Davidson routine will perform the subspace rotation
 perform sub-space diagonalisation
    after iterative eigenvector-optimisation
 modified Broyden-mixing scheme, WC =      100.0
 initial mixing is a Kerker type mixing with AMIX =  0.4000 and BMIX =      1.0000
 Hartree-type preconditioning will be used
 using additional bands            8
 reciprocal scheme for non local part
 use partial core corrections
 calculate Harris-corrections to forces 
   (improved forces if not selfconsistent)
 use gradient corrections 
 use of overlap-Matrix (Vanderbilt PP)
 Fermi weights with tetrahedron method with Bloechl corrections


--------------------------------------------------------------------------------------------------------


  energy-cutoff  :      500.00
  volume of cell :      153.87
      direct lattice vectors                 reciprocal lattice vectors
     5.358599399  0.000000000  0.000000000     0.186615928  0.000000000  0.000000000
     0.000000000  5.358599399  0.000000000     0.000000000  0.186615928  0.000000000
     0.000000000  0.000000000  5.358599399     0.000000000  0.000000000  0.186615928

  length of vectors
     5.358599399  5.358599399  5.358599399     0.186615928  0.186615928  0.186615928


 
 old parameters found on file WAVECAR:
  energy-cutoff  :      500.00
  volume of cell :      151.47
      direct lattice vectors                 reciprocal lattice vectors
     5.330542292  0.000000000  0.000000000     0.187598174  0.000000000  0.000000000
     0.000000000  5.330542292  0.000000000     0.000000000  0.187598174  0.000000000
     0.000000000  0.000000000  5.330542292     0.000000000  0.000000000  0.187598174

  length of vectors

 
 k-points in units of 2pi/SCALE and weight: Automatic mesh                          
   0.00000000  0.00000000  0.00000000       0.008
   0.16795434  0.00000000  0.00000000       0.048
   0.33590867  0.00000000  0.00000000       0.048
   0.16795434  0.16795434  0.00000000       0.096
   0.33590867  0.16795434  0.00000000       0.192
   0.33590867  0.33590867  0.00000000       0.096
   0.16795434  0.16795434  0.16795434       0.064
   0.33590867  0.16795434  0.16795434       0.192
   0.33590867  0.33590867  0.16795434       0.192
   0.33590867  0.33590867  0.33590867       0.064
 
 k-points in reciprocal lattice and weights: Automatic mesh                          
   0.00000000  0.00000000  0.00000000       0.008
   0.20000000  0.00000000  0.00000000       0.048
   0.40000000  0.00000000  0.00000000       0.048
   0.20000000  0.20000000  0.00000000       0.096
   0.40000000  0.20000000  0.00000000       0.192
   0.40000000  0.40000000  0.00000000       0.096
   0.20000000  0.20000000  0.20000000       0.064
   0.40000000  0.20000000  0.20000000       0.192
   0.40000000  0.40000000  0.20000000       0.192
   0.40000000  0.40000000  0.40000000       0.064
 
 position of ions in fractional coordinates (direct lattice) 
   0.00000000  0.00000000  0.00000000
   0.50000000  0.50000000  0.00000000
   0.50000000  0.00000000  0.50000000
   0.00000000  0.50000000  0.50000000
   0.25000000  0.25000000  0.25000000
   0.75000000  0.25000000  0.75000000
   0.75000000  0.75000000  0.25000000
   0.25000000  0.75000000  0.75000000
 
 position of ions in cartesian coordinates  (Angst):
   0.00000000  0.00000000  0.00000000
   2.67929970  2.67929970  0.00000000
   2.67929970  0.00000000  2.67929970
   0.00000000  2.67929970  2.67929970
   1.33964985  1.33964985  1.33964985
   4.01894955  1.33964985  4.01894955
   4.01894955  4.01894955  1.33964985
   1.33964985  4.01894955  4.01894955
 


--------------------------------------------------------------------------------------------------------


 k-point     1 :   0.0000 0.0000 0.0000  plane waves:    3887
 k-point     2 :   0.2000 0.0000 0.0000  plane waves:    3911
 k-point     3 :   0.4000 0.0000 0.0000  plane waves:    3904
 k-point     4 :   0.2000 0.2000 0.0000  plane waves:    3898
 k-point     5 :   0.4000 0.2000 0.0000  plane waves:    3909
 k-point     6 :   0.4000 0.4000 0.0000  plane waves:    3900
 k-point     7 :   0.2000 0.2000 0.2000  plane waves:    3905
 k-point     8 :   0.4000 0.2000 0.2000  plane waves:    3914
 k-point     9 :   0.4000 0.4000 0.2000  plane waves:    3904
 k-point    10 :   0.4000 0.4000 0.4000  plane waves:    3906

 maximum and minimum number of plane-waves per node :      3914     3887

 maximum number of plane-waves:      3914
 maximum index in each direction: 
   IXMAX=    9   IYMAX=    9   IZMAX=    9
   IXMIN=  -10   IYMIN=  -10   IZMIN=  -10


 serial   3D FFT for wavefunctions
 parallel 3D FFT for charge:
    minimum data exchange during FFTs selected (reduces bandwidth)


 total amount of memory used by VASP MPI-rank0    44491. kBytes
=======================================================================

   base      :      30000. kBytes
   nonl-proj :       8655. kBytes
   fftplans  :       1096. kBytes
   grid      :       2745. kBytes
   one-center:         64. kBytes
   wavefun   :       1931. kBytes
 
     INWAV:  cpu time      0.0280: real time      0.0326
 Broyden mixing: mesh for mixing (old mesh)
   NGX = 19   NGY = 19   NGZ = 19
  (NGX  = 60   NGY  = 60   NGZ  = 60)
  gives a total of   6859 points

 charge density for first step will be calculated from the start-wavefunctions


--------------------------------------------------------------------------------------------------------


 Maximum index for augmentation-charges         1540 (set IRDMAX)


--------------------------------------------------------------------------------------------------------


 initial charge from wavefunction
 First call to EWALD:  gamma=   0.331
 Maximum number of real-space cells 3x 3x 3
 Maximum number of reciprocal cells 3x 3x 3

    FEWALD:  cpu time      0.0009: real time      0.0009


--------------------------------------- Ionic step        1  -------------------------------------------




--------------------------------------- Iteration      1(   1)  ---------------------------------------


    POTLOK:  cpu time      0.0128: real time      0.0155
    SETDIJ:  cpu time      0.0020: real time      0.0020
     EDDAV:  cpu time      0.2358: real time      0.2471
 BZINTS: Fermi energy:    4.203669;   32.000000 electrons
         Band energy:-0.559612E+02;  BLOECHL correction:    0.000000
       DOS:  cpu time      0.0004: real time      0.0004
    CHARGE:  cpu time      0.0116: real time      0.0117
    MIXING:  cpu time      0.0005: real time      0.0005
    --------------------------------------------
      LOOP:  cpu time      0.2629: real time      0.2772

 eigenvalue-minimisations  :   552
 total energy-change (2. order) :-0.3100042E+02  (-0.2090559E-01)
 number of electron      32.0000025 magnetization 
 augmentation part       -5.2555650 magnetization 

 Broyden mixing:
  rms(total) = 0.81184E-01    rms(broyden)= 0.81184E-01
  rms(prec ) = 0.10609E+00
  weight for this iteration     100.00

 Free energy of the ion-electron system (eV)
  ---------------------------------------------------
  alpha Z        PSCENC =        88.93127286
  Ewald energy   TEWEN  =      -967.09846497
  -Hartree energ DENC   =       -72.23206031
  -exchange      EXHF   =         0.00000000
  -V(xc)+E(xc)   XCENC  =      -119.00049277
  PAW double counting   =      2749.66252385    -2571.52166009
  entropy T*S    EENTRO =         0.00000000
  eigenvalues    EBANDS =       -55.96116450
  atomic energy  EATOM  =       916.21963040
  Solvation  Ediel_sol  =         0.00000000
  ---------------------------------------------------
  free energy    TOTEN  =       -31.00041554 eV

  energy without entropy =      -31.00041554  energy(sigma->0) =      -31.00041554


--------------------------------------------------------------------------------------------------------




--------------------------------------- Iteration      1(   2)  ---------------------------------------


    POTLOK:  cpu time      0.0134: real time      0.0146
    SETDIJ:  cpu time      0.0018: real time      0.0018
     EDDAV:  cpu time      0.2161: real time      0.2267
 BZINTS: Fermi energy:    4.220232;   32.000000 electrons
         Band energy:-0.553044E+02;  BLOECHL correction:    0.000000
       DOS:  cpu time      0.0004: real time      0.0004
    CHARGE:  cpu time      0.0115: real time      0.0117
    MIXING:  cpu time      0.0005: real time      0.0005
    --------------------------------------------
      LOOP:  cpu time      0.2437: real time      0.2557

 eigenvalue-minimisations  :   496
 total energy-change (2. order) : 0.5059244E-02  (-0.1102776E-02)
 number of electron      32.0000024 magnetization 
 augmentation part       -5.2544365 magnetization 

 Broyden mixing:
  rms(total) = 0.48988E-01    rms(broyden)= 0.48988E-01
  rms(prec ) = 0.60002E-01
  weight for this iteration     100.00

 eigenvalues of (default mixing * dielectric matrix)
  average eigenvalue GAMMA=   2.3888
  2.3888

 Free energy of the ion-electron system (eV)
  ---------------------------------------------------
  alpha Z        PSCENC =        88.93127286
  Ewald energy   TEWEN  =      -967.09846497
  -Hartree energ DENC   =       -72.85300703
  -exchange      EXHF   =         0.00000000
  -V(xc)+E(xc)   XCENC  =      -119.00597396
  PAW double counting   =      2706.00390546    -2527.88828424
  entropy T*S    EENTRO =         0.00000000
  eigenvalues    EBANDS =       -55.30443481
  atomic energy  EATOM  =       916.21963040
  Solvation  Ediel_sol  =         0.00000000
  ---------------------------------------------------
  free energy    TOTEN  =       -30.99535629 eV

  energy without entropy =      -30.99535629  energy(sigma->0) =      -30.99535629


--------------------------------------------------------------------------------------------------------




--------------------------------------- Iteration      1(   3)  ---------------------------------------


    POTLOK:  cpu time      0.0126: real time      0.0132
    SETDIJ:  cpu time      0.0018: real time      0.0018
     EDDAV:  cpu time      0.2189: real time      0.2296
 BZINTS: Fermi energy:    4.238318;   32.000000 electrons
         Band energy:-0.545994E+02;  BLOECHL correction:    0.000000
       DOS:  cpu time      0.0004: real time      0.0004
    CHARGE:  cpu time      0.0115: real time      0.0117
    MIXING:  cpu time      0.0005: real time      0.0005
    --------------------------------------------
      LOOP:  cpu time      0.2457: real time      0.2571

 eigenvalue-minimisations  :   512
 total energy-change (2. order) : 0.1659917E-02  (-0.8177162E-03)
 number of electron      32.0000024 magnetization 
 augmentation part       -5.2471533 magnetization 

 Broyden mixing:
  rms(total) = 0.53326E-02    rms(broyden)= 0.53326E-02
  rms(prec ) = 0.11253E-01
  weight for this iteration     100.00

 eigenvalues of (default mixing * dielectric matrix)
  average eigenvalue GAMMA=   1.5377
  1.0210  2.0544

 Free energy of the ion-electron system (eV)
  ---------------------------------------------------
  alpha Z        PSCENC =        88.93127286
  Ewald energy   TEWEN  =      -967.09846497
  -Hartree energ DENC   =       -73.51250988
  -exchange      EXHF   =         0.00000000
  -V(xc)+E(xc)   XCENC  =      -119.02923808
  PAW double counting   =      2652.11852054    -2474.02346507
  entropy T*S    EENTRO =         0.00000000
  eigenvalues    EBANDS =       -54.59944218
  atomic energy  EATOM  =       916.21963040
  Solvation  Ediel_sol  =         0.00000000
  ---------------------------------------------------
  free energy    TOTEN  =       -30.99369637 eV

  energy without entropy =      -30.99369637  energy(sigma->0) =      -30.99369637


--------------------------------------------------------------------------------------------------------




--------------------------------------- Iteration      1(   4)  ---------------------------------------


    POTLOK:  cpu time      0.0123: real time      0.0128
    SETDIJ:  cpu time      0.0017: real time      0.0018
     EDDAV:  cpu time      0.2152: real time      0.2257
 BZINTS: Fermi energy:    4.235986;   32.000000 electrons
         Band energy:-0.547037E+02;  BLOECHL correction:    0.000000
       DOS:  cpu time      0.0004: real time      0.0004
    CHARGE:  cpu time      0.0116: real time      0.0117
    MIXING:  cpu time      0.0005: real time      0.0005
    --------------------------------------------
      LOOP:  cpu time      0.2417: real time      0.2529

 eigenvalue-minimisations  :   496
 total energy-change (2. order) : 0.1171206E-03  (-0.4965042E-04)
 number of electron      32.0000024 magnetization 
 augmentation part       -5.2474332 magnetization 

 Broyden mixing:
  rms(total) = 0.30743E-02    rms(broyden)= 0.30742E-02
  rms(prec ) = 0.46335E-02
  weight for this iteration     100.00

 eigenvalues of (default mixing * dielectric matrix)
  average eigenvalue GAMMA=   1.6452
  2.2826  1.3266  1.3266

 Free energy of the ion-electron system (eV)
  ---------------------------------------------------
  alpha Z        PSCENC =        88.93127286
  Ewald energy   TEWEN  =      -967.09846497
  -Hartree energ DENC   =       -73.40755838
  -exchange      EXHF   =         0.00000000
  -V(xc)+E(xc)   XCENC  =      -119.03594667
  PAW double counting   =      2655.21511376    -2477.11395547
  entropy T*S    EENTRO =         0.00000000
  eigenvalues    EBANDS =       -54.70367077
  atomic energy  EATOM  =       916.21963040
  Solvation  Ediel_sol  =         0.00000000
  ---------------------------------------------------
  free energy    TOTEN  =       -30.99357925 eV

  energy without entropy =      -30.99357925  energy(sigma->0) =      -30.99357925


--------------------------------------------------------------------------------------------------------




--------------------------------------- Iteration      1(   5)  ---------------------------------------


    POTLOK:  cpu time      0.0125: real time      0.0130
    SETDIJ:  cpu time      0.0017: real time      0.0017
     EDDAV:  cpu time      0.1522: real time      0.1600
 BZINTS: Fermi energy:    4.237018;   32.000000 electrons
         Band energy:-0.546749E+02;  BLOECHL correction:    0.000000
       DOS:  cpu time      0.0004: real time      0.0004
    --------------------------------------------
      LOOP:  cpu time      0.1668: real time      0.1751

 eigenvalue-minimisations  :   240
 total energy-change (2. order) : 0.1987996E-04  (-0.5598911E-05)
 number of electron      32.0000024 magnetization 
 augmentation part       -5.2474332 magnetization 

 Free energy of the ion-electron system (eV)
  ---------------------------------------------------
  alpha Z        PSCENC =        88.93127286
  Ewald energy   TEWEN  =      -967.09846497
  -Hartree energ DENC   =       -73.43081105
  -exchange      EXHF   =         0.00000000
  -V(xc)+E(xc)   XCENC  =      -119.04278691
  PAW double counting   =      2650.93257047    -2472.83004659
  entropy T*S    EENTRO =         0.00000000
  eigenvalues    EBANDS =       -54.67492357
  atomic energy  EATOM  =       916.21963040
  Solvation  Ediel_sol  =         0.00000000
  ---------------------------------------------------
  free energy    TOTEN  =       -30.99355937 eV

  energy without entropy =      -30.99355937  energy(sigma->0) =      -30.99355937


--------------------------------------------------------------------------------------------------------




 average (electrostatic) potential at core
  the test charge radii are     1.0621  1.2767
  (the norm of the test charge is              1.0000)
       1 -50.2215       2 -50.2215       3 -50.2215       4 -50.2215       5 -13.3180
       6 -13.3180       7 -13.3180       8 -13.3180
 
 
 
 E-fermi :   4.2370     XC(G=0):  -9.8595     alpha+bet :-10.0530

 val. band max:        4.2125841404   @ k =   0.0000   0.0000   0.0000
 cond. band min:       5.3216396104   @ k =   0.0000   0.0000   0.0000
 fundamental gap:      1.1090554700
 Fermi energy:         4.2370184246

 k-point     1 :       0.0000    0.0000    0.0000
  band No.  band energies     occupation 
      1      -9.7819      2.00000
      2      -6.7284      2.00000
      3      -6.7284      2.00000
      4      -6.7284      2.00000
      5      -3.4036      2.00000
      6      -3.4036      2.00000
      7      -3.4036      2.00000
      8       0.9185      2.00000
      9       0.9185      2.00000
     10       0.9185      2.00000
     11       0.9185      2.00000
     12       0.9185      2.00000
     13       0.9185      2.00000
     14       4.2126      2.00000
     15       4.2126      2.00000
     16       4.2126      2.00000
     17       5.3216      0.00000
     18       5.3216      0.00000
     19       5.3216      0.00000
     20       5.7455      0.00000
     21       5.7455      0.00000
     22       5.7455      0.00000
     23       6.0765      0.00000
     24       7.9986      0.00000

 k-point     2 :       0.2000    0.0000    0.0000
  band No.  band energies     occupation 
      1      -9.6074      2.00000
      2      -7.3080      2.00000
      3      -6.7013      2.00000
      4      -6.7013      2.00000
      5      -3.3152      2.00000
      6      -3.3152      2.00000
      7      -2.5912      2.00000
      8       0.4942      2.00000
      9       0.4942      2.00000
     10       0.5638      2.00000
     11       0.5638      2.00000
     12       1.1131      2.00000
     13       1.1131      2.00000
     14       2.8687      2.00000
     15       3.6135      2.00000
     16       3.6135      2.00000
     17       5.3639      0.00000
     18       6.1936      0.00000
     19       6.2002      0.00000
     20       6.2002      0.00000
     21       6.6352      0.00000
     22       6.6352      0.00000
     23       7.2559      0.00000
     24       7.5305      0.00000

 k-point     3 :       0.4000    0.0000    0.0000
  band No.  band energies     occupation 
      1      -9.0938      2.00000
      2      -8.2817      2.00000
      3      -6.6560      2.00000
      4      -6.6560      2.00000
      5      -3.1481      2.00000
      6      -3.1481      2.00000
      7      -0.9407      2.00000
      8      -0.0934      2.00000
      9      -0.0934      2.00000
     10       0.1101      2.00000
     11       0.1101      2.00000
     12       0.9454      2.00000
     13       1.6826      2.00000
     14       1.6826      2.00000
     15       2.5717      2.00000
     16       2.5717      2.00000
     17       5.7312      0.00000
     18       6.4644      0.00000
     19       7.2344      0.00000
     20       8.1902      0.00000
     21       8.1902      0.00000
     22       8.2409      0.00000
     23       8.6695      0.00000
     24       8.6695      0.00000

 k-point     4 :       0.2000    0.2000    0.0000
  band No.  band energies     occupation 
      1      -9.4363      2.00000
      2      -7.2272      2.00000
      3      -7.2272      2.00000
      4      -6.7257      2.00000
      5      -3.2321      2.00000
      6      -2.6397      2.00000
      7      -2.6397      2.00000
      8      -0.3190      2.00000
      9       0.5912      2.00000
     10       0.5912      2.00000
     11       0.9531      2.00000
     12       0.9531      2.00000
     13       1.2462      2.00000
     14       1.6958      2.00000
     15       2.9949      2.00000
     16       4.0061      2.00000
     17       5.8416      0.00000
     18       6.2962      0.00000
     19       6.2962      0.00000
     20       6.9926      0.00000
     21       6.9926      0.00000
     22       7.1798      0.00000
     23       8.1480      0.00000
     24       8.3226      0.00000

 k-point     5 :       0.4000    0.2000    0.0000
  band No.  band energies     occupation 
      1      -8.9344      2.00000
      2      -8.1484      2.00000
      3      -7.0297      2.00000
      4      -6.8310      2.00000
      5      -3.0317      2.00000
      6      -2.8028      2.00000
      7      -1.2964      2.00000
      8      -0.6186      2.00000
      9      -0.2230      2.00000
     10       0.1802      2.00000
     11       0.8896      2.00000
     12       1.0917      2.00000
     13       1.1634      2.00000
     14       1.8682      2.00000
     15       1.9495      2.00000
     16       3.1113      2.00000
     17       6.7000      0.00000
     18       7.0371      0.00000
     19       7.4044      0.00000
     20       7.8613      0.00000
     21       8.1173      0.00000
     22       8.2980      0.00000
     23       8.8916      0.00000
     24       9.5330      0.00000

 k-point     6 :       0.4000    0.4000    0.0000
  band No.  band energies     occupation 
      1      -8.4735      2.00000
      2      -7.7783      2.00000
      3      -7.7783      2.00000
      4      -7.2747      2.00000
      5      -2.6506      2.00000
      6      -2.0114      2.00000
      7      -2.0114      2.00000
      8      -0.9808      2.00000
      9      -0.5266      2.00000
     10       0.1339      2.00000
     11       0.1339      2.00000
     12       0.9247      2.00000
     13       2.1353      2.00000
     14       2.2053      2.00000
     15       2.2053      2.00000
     16       3.2454      2.00000
     17       6.7536      0.00000
     18       7.5603      0.00000
     19       8.0071      0.00000
     20       8.0071      0.00000
     21       8.8932      0.00000
     22       8.8932      0.00000
     23       9.4137      0.00000
     24       9.5688      0.00000

 k-point     7 :       0.2000    0.2000    0.2000
  band No.  band energies     occupation 
      1      -9.2694      2.00000
      2      -7.1814      2.00000
      3      -7.1814      2.00000
      4      -7.1814      2.00000
      5      -2.7628      2.00000
      6      -2.7628      2.00000
      7      -2.7628      2.00000
      8       0.1090      2.00000
      9       0.1090      2.00000
     10       0.1090      2.00000
     11       0.6727      2.00000
     12       1.4254      2.00000
     13       1.4254      2.00000
     14       1.4254      2.00000
     15       3.5760      2.00000
     16       3.5760      2.00000
     17       6.0611      0.00000
     18       6.0611      0.00000
     19       6.0611      0.00000
     20       6.4554      0.00000
     21       8.3617      0.00000
     22       8.3617      0.00000
     23       8.3617      0.00000
     24       8.8271      0.00000

 k-point     8 :       0.4000    0.2000    0.2000
  band No.  band energies     occupation 
      1      -8.7825      2.00000
      2      -8.0311      2.00000
      3      -7.1024      2.00000
      4      -7.1024      2.00000
      5      -2.9858      2.00000
      6      -2.9858      2.00000
      7      -1.8097      2.00000
      8      -0.6576      2.00000
      9      -0.0732      2.00000
     10      -0.0732      2.00000
     11       1.2735      2.00000
     12       1.4392      2.00000
     13       1.4392      2.00000
     14       1.9433      2.00000
     15       2.7261      2.00000
     16       2.7584      2.00000
     17       6.6487      0.00000
     18       6.9639      0.00000
     19       7.2253      0.00000
     20       7.2253      0.00000
     21       8.4218      0.00000
     22       8.8483      0.00000
     23       9.4162      0.00000
     24       9.4162      0.00000

 k-point     9 :       0.4000    0.4000    0.2000
  band No.  band energies     occupation 
      1      -8.3494      2.00000
      2      -7.7208      2.00000
      3      -7.7208      2.00000
      4      -7.3514      2.00000
      5      -3.0451      2.00000
      6      -2.6009      2.00000
      7      -2.6009      2.00000
      8      -1.7827      2.00000
      9       0.3620      2.00000
     10       0.9456      2.00000
     11       0.9456      2.00000
     12       1.9082      2.00000
     13       2.2477      2.00000
     14       2.2927      2.00000
     15       2.2927      2.00000
     16       3.1587      2.00000
     17       6.7874      0.00000
     18       6.8701      0.00000
     19       7.4346      0.00000
     20       7.4346      0.00000
     21       8.4343      0.00000
     22       8.4343      0.00000
     23       9.0656      0.00000
     24       9.1105      0.00000

 k-point    10 :       0.4000    0.4000    0.4000
  band No.  band energies     occupation 
      1      -8.0184      2.00000
      2      -7.6197      2.00000
      3      -7.6197      2.00000
      4      -7.6197      2.00000
      5      -3.2350      2.00000
      6      -3.2350      2.00000
      7      -3.2350      2.00000
      8      -2.7584      2.00000
      9       1.9453      2.00000
     10       1.9453      2.00000
     11       1.9453      2.00000
     12       2.5434      2.00000
     13       2.5434      2.00000
     14       2.5434      2.00000
     15       2.8995      2.00000
     16       2.8995      2.00000
     17       5.8325      0.00000
     18       6.5647      0.00000
     19       6.5647      0.00000
     20       6.5647      0.00000
     21       8.5880      0.00000
     22       8.5880      0.00000
     23       8.5880      0.00000
     24       8.9597      0.00000


--------------------------------------------------------------------------------------------------------


 soft charge-density along one line, spin component           1
         0         1         2         3         4         5         6         7         8         9
 total charge-density along one line
 
 pseudopotential strength for first ion, spin component:           1
 23.317  27.868  -0.000  -0.000   0.000   0.000   0.000  -0.000
 27.868  33.314  -0.000  -0.000   0.000   0.000   0.000  -0.000
 -0.000  -0.000   5.500   0.000   0.000 -10.880  -0.000  -0.000
 -0.000  -0.000   0.000   5.500   0.000  -0.000 -10.880  -0.000
  0.000   0.000   0.000   0.000   5.500  -0.000  -0.000 -10.880
  0.000   0.000 -10.880  -0.000  -0.000  22.083   0.000   0.000
  0.000   0.000  -0.000 -10.880  -0.000   0.000  22.083   0.000
 -0.000  -0.000  -0.000  -0.000 -10.880   0.000   0.000  22.083
  0.000   0.000   0.000   0.003  -0.000  -0.000  -0.006   0.000
  0.000   0.000  -0.000  -0.000   0.003   0.000   0.000  -0.006
  0.000   0.000   0.000  -0.000  -0.000  -0.000   0.000   0.000
  0.000   0.000   0.003   0.000  -0.000  -0.006  -0.000   0.000
 -0.000  -0.000   0.000  -0.000   0.000  -0.000   0.000  -0.000
 total augmentation occupancy for first ion, spin component:           1
  6.401  -2.991   0.000   0.000   0.000  -0.000  -0.000   0.000   0.000  -0.000  -0.000   0.000  -0.000
 -2.991   1.749   0.000   0.000   0.000   0.000   0.000   0.000  -0.000   0.000   0.000  -0.000  -0.000
 -0.000   0.000   1.617   0.000   0.000   0.070  -0.000  -0.000   0.000  -0.000  -0.000   0.118   0.000
 -0.000   0.000   0.000   1.617  -0.000  -0.000   0.070  -0.000   0.118  -0.000  -0.000  -0.000  -0.000
 -0.000  -0.000  -0.000  -0.000   1.617   0.000   0.000   0.070  -0.000   0.118  -0.000   0.000   0.000
  0.000  -0.000   0.070  -0.000  -0.000   0.004   0.000   0.000  -0.000  -0.000   0.000   0.006  -0.000
  0.000   0.000  -0.000   0.070  -0.000   0.000   0.004   0.000   0.006  -0.000  -0.000  -0.000   0.000
  0.000   0.000   0.000  -0.000   0.070   0.000   0.000   0.004  -0.000   0.006   0.000   0.000   0.000
  0.000  -0.000   0.000   0.118  -0.000  -0.000   0.006  -0.000   0.018   0.000   0.000  -0.000  -0.000
  0.000  -0.000  -0.000   0.000   0.118  -0.000   0.000   0.006   0.000   0.018   0.000  -0.000   0.000
 -0.000   0.000  -0.000   0.000  -0.000   0.000   0.000   0.000  -0.000  -0.000   0.007  -0.000   0.000
  0.000  -0.000   0.118  -0.000  -0.000   0.006   0.000   0.000  -0.000  -0.000   0.000   0.018  -0.000
 -0.000  -0.000  -0.000   0.000   0.000   0.000   0.000  -0.000   0.000   0.000   0.000  -0.000   0.007


------------------------ aborting loop because EDIFF is reached ----------------------------------------


    CHARGE:  cpu time      0.0116: real time      0.0118
    FORLOC:  cpu time      0.0009: real time      0.0009
    FORNL :  cpu time      0.0473: real time      0.0477
    STRESS:  cpu time      0.2703: real time      0.2721
    FORCOR:  cpu time      0.0126: real time      0.0129
    FORHAR:  cpu time      0.0031: real time      0.0032
    MIXING:  cpu time      0.0005: real time      0.0005
    OFIELD:  cpu time      0.0000: real time      0.0000

  FORCE on cell =-STRESS in cart. coord.  units (eV):
  Direction    XX          YY          ZZ          XY          YZ          ZX
  --------------------------------------------------------------------------------------
  Alpha Z    88.93127    88.93127    88.93127
  Ewald    -322.36666  -322.36666  -322.36666    -0.00000    -0.00000    -0.00000
  Hartree    24.47556    24.47556    24.47556    -0.00000    -0.00000    -0.00000
  E(xc)    -125.49349  -125.49349  -125.49349    -0.00000     0.00000    -0.00000
  Local    -117.59511  -117.59511  -117.59511    -0.00000     0.00000    -0.00000
  n-local   191.02930   192.90028   189.96144    -2.05116    -1.16785    -0.96681
  augment     8.62111     8.62111     8.62111     0.00000    -0.00000     0.00000
  Kinetic   266.73413   278.20600   276.35999    -4.79846    -4.70563    -3.06305
  Fock        0.00000     0.00000     0.00000     0.00000     0.00000     0.00000
  -------------------------------------------------------------------------------------
  Total      21.63640    21.63640    21.63640     0.00000    -0.00000     0.00000
  in kB     225.28990   225.28990   225.28990     0.00000    -0.00000     0.00000
  external pressure =      225.29 kB  Pullay stress =        0.00 kB


 VOLUME and BASIS-vectors are now :
 -----------------------------------------------------------------------------
  energy-cutoff  :      500.00
  volume of cell :      153.87
      direct lattice vectors                 reciprocal lattice vectors
     5.358599399  0.000000000  0.000000000     0.186615928  0.000000000  0.000000000
     0.000000000  5.358599399  0.000000000     0.000000000  0.186615928  0.000000000
     0.000000000  0.000000000  5.358599399     0.000000000  0.000000000  0.186615928

  length of vectors
     5.358599399  5.358599399  5.358599399     0.186615928  0.186615928  0.186615928


 FORCES acting on ions
    electron-ion (+dipol)            ewald-force                    non-local-force                 convergence-correction
 -----------------------------------------------------------------------------------------------
   -.133E-13 0.397E-14 0.550E-14   0.355E-14 0.000E+00 0.711E-14   -.159E-16 -.755E-17 0.482E-16   -.884E-14 0.337E-14 -.426E-14
   -.261E-14 0.288E-12 -.230E-12   0.355E-14 0.355E-14 0.711E-14   0.764E-17 -.206E-16 0.420E-16   0.650E-14 -.475E-15 -.451E-14
   0.117E-15 0.635E-14 -.122E-13   0.355E-14 0.000E+00 0.711E-14   -.103E-16 0.570E-17 0.208E-16   0.648E-14 0.233E-14 0.119E-14
   -.197E-13 0.143E-13 0.220E-13   0.355E-14 0.355E-14 0.711E-14   0.437E-17 0.343E-16 0.420E-16   -.934E-14 0.215E-15 0.130E-14
   0.146E-13 -.467E-13 0.192E-13   -.481E-14 -.401E-14 -.391E-14   -.153E-17 -.179E-17 0.428E-17   0.196E-14 -.462E-15 -.654E-14
   0.217E-13 0.130E-12 0.150E-12   -.327E-14 -.402E-14 -.339E-14   0.321E-18 0.279E-18 0.464E-18   -.158E-14 -.274E-15 0.337E-14
   0.274E-13 0.171E-13 0.235E-12   -.348E-14 -.305E-14 -.376E-14   0.233E-18 0.118E-17 0.789E-18   -.165E-14 -.692E-15 -.613E-14
   0.178E-13 -.555E-14 0.852E-14   -.271E-14 -.306E-14 -.324E-14   0.725E-17 0.557E-17 -.143E-17   0.206E-14 -.677E-15 0.309E-14
 -----------------------------------------------------------------------------------------------
   0.460E-13 0.407E-12 0.199E-12   -.575E-16 -.703E-14 0.141E-13   -.791E-17 0.170E-16 0.157E-15   -.441E-14 0.333E-14 -.125E-13
 
 
 POSITION                                       TOTAL-FORCE (eV/Angst)
 -----------------------------------------------------------------------------------
      0.00000      0.00000      0.00000         0.000000     -0.000000      0.000000
      2.67930      2.67930      0.00000         0.000000     -0.000000      0.000000
      2.67930      0.00000      2.67930         0.000000     -0.000000      0.000000
      0.00000      2.67930      2.67930         0.000000     -0.000000      0.000000
      1.33965      1.33965      1.33965        -0.000000      0.000000     -0.000000
      4.01895      1.33965      4.01895        -0.000000      0.000000     -0.000000
      4.01895      4.01895      1.33965        -0.000000     -0.000000     -0.000000
      1.33965      4.01895      4.01895        -0.000000      0.000000      0.000000
 -----------------------------------------------------------------------------------
    total drift:                                0.000000      0.000000      0.000000


--------------------------------------------------------------------------------------------------------



  FREE ENERGIE OF THE ION-ELECTRON SYSTEM (eV)
  ---------------------------------------------------
  free  energy   TOTEN  =       -30.99355937 eV

  energy  without entropy=      -30.99355937  energy(sigma->0) =      -30.99355937
 


--------------------------------------------------------------------------------------------------------


    POTLOK:  cpu time      0.0142: real time      0.0145


--------------------------------------------------------------------------------------------------------


 writing wavefunctions
     LOOP+:  cpu time      1.7292: real time      1.8229


--------------------------------------------------------------------------------------------------------



 plasma frequency squared (from intraband transitions) (eV^2)
  --------------------------------------------------------------------------------------
       0.000       0.000       0.000
       0.000       0.000       0.000
       0.000       0.000       0.000

 electrical conductivity sigma (Mega S m-1) (frequency dependency in vasprun.xml)
  --------------------------------------------------------------------------------------
       0.000       0.000       0.000
       0.000       0.000       0.000
       0.000       0.000       0.000

 plasma frequency squared (from interband transitions, int dw w eps(2)(w)) (eV^2)
  --------------------------------------------------------------------------------------
     224.286       0.000       0.000       0.000       0.000       0.000
       0.000       0.000     224.286       0.000       0.000       0.000
       0.000       0.000       0.000       0.000     224.286       0.000
  --------------------------------------------------------------------------------------
 sumrule: sum of plasma frequencies squared should yield (valence only):     286.760

 Anomalous Hall contribution (eV) 2/pi Imag((f_n-f_m)<u_m| d/dk_a u_n> <u_m| d/dk_b u_n>^*) 
  --------------------------------------------------------------------------------------
       0.000       0.000       0.000
       0.000       0.000       0.000
       0.000       0.000       0.000

  frequency dependent IMAGINARY DIELECTRIC FUNCTION (independent particle, no local field effects) density-density
     E(ev)      X         Y         Z        XY        YZ        ZX
  --------------------------------------------------------------------------------------------------------------
    0.000000    0.000000    0.000000    0.000000    0.000000    0.000000    0.000000
    0.023244    0.002269    0.002269    0.002269    0.000000   -0.000000    0.000000
    0.046488    0.004539    0.004539    0.004539    0.000000   -0.000000    0.000000
    0.069732    0.006812    0.006812    0.006812    0.000000   -0.000000    0.000000
    0.092977    0.009087    0.009087    0.009087    0.000000   -0.000000    0.000000
    0.116221    0.011366    0.011366    0.011366    0.000000   -0.000000    0.000000
    0.139465    0.013650    0.013650    0.013650    0.000000   -0.000000    0.000000
    0.162709    0.015940    0.015940    0.015940    0.000000   -0.000000    0.000000
    0.185953    0.018237    0.018237    0.018237    0.000000   -0.000000    0.000000
    0.209197    0.020542    0.020542    0.020542    0.000000   -0.000000    0.000000
    0.232441    0.022856    0.022856    0.022856    0.000000   -0.000000    0.000000
    0.255685    0.025180    0.025180    0.025180    0.000000   -0.000000    0.000000
    0.278930    0.027516    0.027516    0.027516    0.000000   -0.000000    0.000000
    0.302174    0.029863    0.029863    0.029863    0.000000   -0.000000    0.000000
    0.325418    0.032224    0.032224    0.032224    0.000000   -0.000000    0.000000
    0.348662    0.034600    0.034600    0.034600    0.000000   -0.000000    0.000000
    0.371906    0.036991    0.036991    0.036991    0.000000   -0.000000    0.000000
    0.395150    0.039399    0.039399    0.039399    0.000000   -0.000000    0.000000
    0.418394    0.041824    0.041824    0.041824    0.000000   -0.000000    0.000000
    0.441638    0.044269    0.044269    0.044269    0.000000   -0.000000    0.000000
    0.464883    0.046735    0.046735    0.046735    0.000000   -0.000000    0.000000
    0.488127    0.049222    0.049222    0.049222    0.000000   -0.000000    0.000000
    0.511371    0.051732    0.051732    0.051732    0.000000   -0.000000    0.000000
    0.534615    0.054266    0.054266    0.054266    0.000000   -0.000000    0.000000
    0.557859    0.056826    0.056826    0.056826    0.000000   -0.000000    0.000000
    0.581103    0.059414    0.059414    0.059414    0.000000   -0.000000    0.000000
    0.604347    0.062030    0.062030    0.062030    0.000000   -0.000000    0.000000
    0.627591    0.064676    0.064676    0.064676    0.000000   -0.000000    0.000000
    0.650836    0.067354    0.067354    0.067354    0.000000   -0.000000    0.000000
    0.674080    0.070065    0.070065    0.070065    0.000000   -0.000000    0.000000
    0.697324    0.072812    0.072812    0.072812    0.000000   -0.000000    0.000000
    0.720568    0.075595    0.075595    0.075595    0.000000   -0.000000    0.000000
    0.743812    0.078417    0.078417    0.078417    0.000000   -0.000000    0.000000
    0.767056    0.081280    0.081280    0.081280    0.000000   -0.000000    0.000000
    0.790300    0.084185    0.084185    0.084185    0.000000   -0.000000    0.000000
    0.813545    0.087135    0.087135    0.087135    0.000000   -0.000000    0.000000
    0.836789    0.090132    0.090132    0.090132    0.000000   -0.000000    0.000000
    0.860033    0.093179    0.093179    0.093179    0.000000   -0.000000    0.000000
    0.883277    0.096276    0.096276    0.096276    0.000000   -0.000000    0.000000
    0.906521    0.099428    0.099428    0.099428    0.000000   -0.000000    0.000000
    0.929765    0.102637    0.102637    0.102637    0.000000   -0.000000    0.000000
    0.953009    0.105906    0.105906    0.105906    0.000000   -0.000000    0.000000
    0.976253    0.109237    0.109237    0.109237    0.000000   -0.000000    0.000000
    0.999498    0.112634    0.112634    0.112634    0.000000   -0.000000    0.000000
    1.022742    0.116101    0.116101    0.116101    0.000000   -0.000000    0.000000
    1.045986    0.119640    0.119640    0.119640    0.000000   -0.000000    0.000000
    1.069230    0.123257    0.123257    0.123257    0.000000   -0.000000    0.000000
    1.092474    0.126955    0.126955    0.126955    0.000000   -0.000000    0.000000
    1.115718    0.130739    0.130739    0.130739    0.000000   -0.000000    0.000000
    1.138962    0.134614    0.134614    0.134614    0.000000   -0.000000    0.000000
    1.162206    0.138585    0.138585    0.138585    0.000000   -0.000000    0.000000
    1.185451    0.142659    0.142659    0.142659    0.000000   -0.000000    0.000000
    1.208695    0.146840    0.146840    0.146840    0.000000   -0.000000    0.000000
    1.231939    0.151135    0.151135    0.151135    0.000000   -0.000000    0.000000
    1.255183    0.155551    0.155551    0.155551    0.000000   -0.000000    0.000000
    1.278427    0.160096    0.160096    0.160096    0.000000   -0.000000    0.000000
    1.301671    0.164777    0.164777    0.164777    0.000000   -0.000000    0.000000
    1.324915    0.169604    0.169604    0.169604    0.000000   -0.000000    0.000000
    1.348159    0.174586    0.174586    0.174586    0.000000   -0.000000    0.000000
    1.371404    0.179735    0.179735    0.179735    0.000000   -0.000000    0.000000
    1.394648    0.185064    0.185064    0.185064    0.000000   -0.000000    0.000000
    1.417892    0.190588    0.190588    0.190588    0.000000   -0.000000    0.000000
    1.441136    0.196325    0.196325    0.196325    0.000000   -0.000000    0.000000
    1.464380    0.202297    0.202297    0.202297    0.000000   -0.000000    0.000000
    1.487624    0.208528    0.208528    0.208528    0.000000   -0.000000    0.000000
    1.510868    0.215051    0.215051    0.215051    0.000000   -0.000000    0.000000
    1.534113    0.221899    0.221899    0.221899    0.000000   -0.000000    0.000000
    1.557357    0.229112    0.229112    0.229112    0.000000   -0.000000    0.000000
    1.580601    0.236728    0.236728    0.236728    0.000000   -0.000000    0.000000
    1.603845    0.244787    0.244787    0.244787    0.000000   -0.000000    0.000000
    1.627089    0.253321    0.253321    0.253321    0.000000   -0.000000    0.000000
    1.650333    0.262365    0.262365    0.262365    0.000000   -0.000000    0.000000
    1.673577    0.271947    0.271947    0.271947    0.000000   -0.000000    0.000000
    1.696821    0.282099    0.282099    0.282099    0.000000   -0.000000    0.000000
    1.720066    0.292850    0.292850    0.292850    0.000000   -0.000000    0.000000
    1.743310    0.304233    0.304233    0.304233    0.000000   -0.000000    0.000000
    1.766554    0.316283    0.316283    0.316283    0.000000   -0.000000    0.000000
    1.789798    0.329039    0.329039    0.329039    0.000000   -0.000000    0.000000
    1.813042    0.342548    0.342548    0.342548    0.000000   -0.000000    0.000000
    1.836286    0.356860    0.356860    0.356860    0.000000   -0.000000    0.000000
    1.859530    0.372035    0.372035    0.372035    0.000000   -0.000000    0.000000
    1.882774    0.388135    0.388135    0.388135    0.000000   -0.000000    0.000000
    1.906019    0.405224    0.405224    0.405224    0.000000   -0.000000    0.000000
    1.929263    0.423365    0.423365    0.423365    0.000000   -0.000000    0.000000
    1.952507    0.442618    0.442618    0.442618    0.000000   -0.000000    0.000000
    1.975751    0.463043    0.463043    0.463043    0.000000   -0.000000    0.000000
    1.998995    0.484697    0.484697    0.484697    0.000000   -0.000000    0.000000
    2.022239    0.507643    0.507643    0.507643    0.000000   -0.000000    0.000000
    2.045483    0.531945    0.531945    0.531945    0.000000   -0.000000    0.000000
    2.068728    0.557675    0.557675    0.557675    0.000000   -0.000000    0.000000
    2.091972    0.584915    0.584915    0.584915    0.000000   -0.000000    0.000000
    2.115216    0.613760    0.613760    0.613760    0.000000   -0.000000    0.000000
    2.138460    0.644322    0.644322    0.644322    0.000000   -0.000000    0.000000
    2.161704    0.676739    0.676739    0.676739    0.000000   -0.000000    0.000000
    2.184948    0.711178    0.711178    0.711178    0.000000   -0.000000    0.000000
    2.208192    0.747849    0.747849    0.747849    0.000000   -0.000000    0.000000
    2.231436    0.787008    0.787008    0.787008    0.000000   -0.000000    0.000000
    2.254681    0.828955    0.828955    0.828955    0.000000   -0.000000    0.000000
    2.277925    0.874014    0.874014    0.874014    0.000000   -0.000000    0.000000
    2.301169    0.922476    0.922476    0.922476    0.000000   -0.000000    0.000000
    2.324413    0.974554    0.974554    0.974554    0.000000   -0.000000    0.000000
    2.347657    1.030369    1.030369    1.030369    0.000000   -0.000000    0.000000
    2.370901    1.089982    1.089982    1.089982    0.000000   -0.000000    0.000000
    2.394145    1.153451    1.153451    1.153451    0.000000   -0.000000    0.000000
    2.417389    1.220858    1.220858    1.220858    0.000000   -0.000000    0.000000
    2.440634    1.292328    1.292328    1.292328    0.000000   -0.000000    0.000000
    2.463878    1.368037    1.368037    1.368037    0.000000   -0.000000    0.000000
    2.487122    1.448235    1.448235    1.448235    0.000000   -0.000000    0.000000
    2.510366    1.533268    1.533268    1.533268    0.000000   -0.000000    0.000000
    2.533610    1.623619    1.623619    1.623619    0.000000   -0.000000    0.000000
    2.556854    1.719954    1.719954    1.719954    0.000000   -0.000000    0.000000
    2.580098    1.823141    1.823141    1.823141    0.000000   -0.000000    0.000000
    2.603342    1.934263    1.934263    1.934263    0.000000   -0.000000    0.000000
    2.626587    2.054591    2.054591    2.054591    0.000000   -0.000000    0.000000
    2.649831    2.185578    2.185578    2.185578    0.000000   -0.000000    0.000000
    2.673075    2.328895    2.328895    2.328895    0.000000   -0.000000    0.000000
    2.696319    2.486529    2.486529    2.486529    0.000000   -0.000000    0.000000
    2.719563    2.660957    2.660957    2.660957    0.000000   -0.000000    0.000000
    2.742807    2.855387    2.855387    2.855387    0.000000   -0.000000    0.000000
    2.766051    3.074095    3.074095    3.074095    0.000000   -0.000000    0.000000
    2.789296    3.322831    3.322831    3.322831    0.000000   -0.000000    0.000000
    2.812540    3.609231    3.609231    3.609231    0.000000   -0.000000    0.000000
    2.835784    3.942859    3.942859    3.942859    0.000000   -0.000000    0.000000
    2.859028    4.333784    4.333784    4.333784    0.000000   -0.000000    0.000000
    2.882272    4.787163    4.787163    4.787163    0.000000   -0.000000    0.000000
    2.905516    5.290301    5.290301    5.290301    0.000000   -0.000000    0.000000
    2.928760    5.795887    5.795887    5.795887    0.000000   -0.000000    0.000000
    2.952004    6.228728    6.228728    6.228728    0.000000   -0.000000    0.000000
    2.975249    6.541927    6.541927    6.541927    0.000000   -0.000000    0.000000
    2.998493    6.762093    6.762093    6.762093    0.000000   -0.000000    0.000000
    3.021737    6.951389    6.951389    6.951389    0.000000   -0.000000    0.000000
    3.044981    7.148801    7.148801    7.148801    0.000000   -0.000000    0.000000
    3.068225    7.358094    7.358094    7.358094    0.000000   -0.000000    0.000000
    3.091469    7.565616    7.565616    7.565616    0.000000   -0.000000    0.000000
    3.114713    7.758313    7.758313    7.758313    0.000000   -0.000000    0.000000
    3.137957    7.932505    7.932505    7.932505    0.000000   -0.000000    0.000000
    3.161202    8.094575    8.094575    8.094575    0.000000   -0.000000    0.000000
    3.184446    8.256387    8.256387    8.256387    0.000000   -0.000000   -0.000000
    3.207690    8.428938    8.428938    8.428938    0.000000   -0.000000   -0.000000
    3.230934    8.618522    8.618522    8.618522    0.000000   -0.000000   -0.000000
    3.254178    8.827078    8.827078    8.827078    0.000000   -0.000000   -0.000000
    3.277422    9.054516    9.054516    9.054516    0.000000   -0.000000    0.000000
    3.300666    9.300649    9.300649    9.300649    0.000000   -0.000000    0.000000
    3.323910    9.566238    9.566238    9.566238    0.000000   -0.000000    0.000000
    3.347155    9.853560    9.853560    9.853560   -0.000000   -0.000000    0.000000
    3.370399   10.166812   10.166812   10.166812   -0.000000   -0.000000    0.000000
    3.393643   10.512479   10.512479   10.512479   -0.000000   -0.000000    0.000000
    3.416887   10.899519   10.899519   10.899519   -0.000000   -0.000000    0.000000
    3.440131   11.338764   11.338764   11.338764   -0.000000   -0.000000    0.000000
    3.463375   11.840069   11.840069   11.840069   -0.000000   -0.000000    0.000000
    3.486619   12.405394   12.405394   12.405394   -0.000000   -0.000000    0.000000
    3.509864   13.018625   13.018625   13.018625    0.000000   -0.000000    0.000000
    3.533108   13.638588   13.638588   13.638588    0.000000   -0.000000    0.000000
    3.556352   14.202151   14.202151   14.202151    0.000000   -0.000000    0.000000
    3.579596   14.638192   14.638192   14.638192   -0.000000   -0.000000    0.000000
    3.602840   14.890521   14.890521   14.890521   -0.000000   -0.000000   -0.000000
    3.626084   14.943545   14.943545   14.943545   -0.000000   -0.000000   -0.000000
    3.649328   14.833293   14.833293   14.833293    0.000000   -0.000000   -0.000000
    3.672572   14.627450   14.627450   14.627450    0.000000    0.000000   -0.000000
    3.695817   14.388432   14.388432   14.388432    0.000000    0.000000   -0.000000
    3.719061   14.153980   14.153980   14.153980    0.000000    0.000000   -0.000000
    3.742305   13.942041   13.942041   13.942041    0.000000    0.000000   -0.000000
    3.765549   13.762732   13.762732   13.762732    0.000000    0.000000   -0.000000
    3.788793   13.626066   13.626066   13.626066    0.000000    0.000000   -0.000000
    3.812037   13.544403   13.544403   13.544403    0.000000    0.000000   -0.000000
    3.835281   13.531627   13.531627   13.531627    0.000000    0.000000   -0.000000
    3.858525   13.599685   13.599685   13.599685    0.000000    0.000000   -0.000000
    3.881770   13.752906   13.752906   13.752906    0.000000    0.000000    0.000000
    3.905014   13.984868   13.984868   13.984868    0.000000   -0.000000    0.000000
    3.928258   14.285259   14.285259   14.285259    0.000000   -0.000000   -0.000000
    3.951502   14.650424   14.650424   14.650424    0.000000   -0.000000   -0.000000
    3.974746   15.080859   15.080859   15.080859    0.000000   -0.000000   -0.000000
    3.997990   15.564487   15.564487   15.564487    0.000000   -0.000000   -0.000000
    4.021234   16.057877   16.057877   16.057877    0.000000   -0.000000   -0.000000
    4.044478   16.490968   16.490968   16.490968    0.000000   -0.000000   -0.000000
    4.067723   16.817224   16.817224   16.817224    0.000000   -0.000000   -0.000000
    4.090967   17.055999   17.055999   17.055999    0.000000   -0.000000   -0.000000
    4.114211   17.262922   17.262922   17.262922    0.000000   -0.000000   -0.000000
    4.137455   17.481308   17.481308   17.481308   -0.000000   -0.000000   -0.000000
    4.160699   17.730886   17.730886   17.730886    0.000000   -0.000000   -0.000000
    4.183943   18.018437   18.018437   18.018437    0.000000   -0.000000   -0.000000
    4.207187   18.348070   18.348070   18.348070    0.000000   -0.000000    0.000000
    4.230432   18.725342   18.725342   18.725342    0.000000   -0.000000    0.000000
    4.253676   19.154471   19.154471   19.154471    0.000000   -0.000000    0.000000
    4.276920   19.630439   19.630439   19.630439    0.000000   -0.000000    0.000000
    4.300164   20.134636   20.134636   20.134636    0.000000   -0.000000    0.000000
    4.323408   20.643225   20.643225   20.643225    0.000000   -0.000000    0.000000
    4.346652   21.140790   21.140790   21.140790    0.000000    0.000000    0.000000
    4.369896   21.624063   21.624063   21.624063    0.000000    0.000000    0.000000
    4.393140   22.098284   22.098284   22.098284    0.000000    0.000000    0.000000
    4.416385   22.574904   22.574904   22.574904    0.000000   -0.000000    0.000000
    4.439629   23.070721   23.070721   23.070721    0.000000   -0.000000    0.000000
    4.462873   23.605294   23.605294   23.605294    0.000000   -0.000000    0.000000
    4.486117   24.194184   24.194184   24.194184    0.000000   -0.000000    0.000000
    4.509361   24.837546   24.837546   24.837546    0.000000   -0.000000    0.000000
    4.532605   25.508052   25.508052   25.508052    0.000000   -0.000000    0.000000
    4.555849   26.147127   26.147127   26.147127    0.000000   -0.000000    0.000000
    4.579093   26.679163   26.679163   26.679163    0.000000   -0.000000    0.000000
    4.602338   27.041260   27.041260   27.041260    0.000000   -0.000000    0.000000
    4.625582   27.208414   27.208414   27.208414    0.000000   -0.000000    0.000000
    4.648826   27.193178   27.193178   27.193178    0.000000   -0.000000    0.000000
    4.672070   27.021445   27.021445   27.021445    0.000000   -0.000000    0.000000
    4.695314   26.712901   26.712901   26.712901    0.000000   -0.000000    0.000000
    4.718558   26.282772   26.282772   26.282772    0.000000   -0.000000    0.000000
    4.741802   25.752194   25.752194   25.752194    0.000000   -0.000000    0.000000
    4.765047   25.151954   25.151954   25.151954    0.000000    0.000000    0.000000
    4.788291   24.519617   24.519617   24.519617    0.000000    0.000000    0.000000
    4.811535   23.897085   23.897085   23.897085    0.000000    0.000000    0.000000
    4.834779   23.328059   23.328059   23.328059    0.000000    0.000000    0.000000
    4.858023   22.848222   22.848222   22.848222    0.000000    0.000000    0.000000
    4.881267   22.472781   22.472781   22.472781    0.000000    0.000000    0.000000
    4.904511   22.196146   22.196146   22.196146    0.000000    0.000000    0.000000
    4.927755   22.002582   22.002582   22.002582    0.000000    0.000000    0.000000
[...]
   18.176909    0.274278    0.274278    0.274278    0.000000   -0.000000    0.000000
   18.200153    0.276476    0.276476    0.276476    0.000000   -0.000000    0.000000
   18.223397    0.278713    0.278713    0.278713    0.000000   -0.000000    0.000000
   18.246641    0.280984    0.280984    0.280984    0.000000   -0.000000    0.000000
   18.269886    0.283285    0.283285    0.283285    0.000000   -0.000000    0.000000
   18.293130    0.285611    0.285611    0.285611    0.000000   -0.000000    0.000000
   18.316374    0.287956    0.287956    0.287956    0.000000   -0.000000    0.000000
   18.339618    0.290317    0.290317    0.290317    0.000000   -0.000000    0.000000
   18.362862    0.292689    0.292689    0.292689    0.000000   -0.000000    0.000000
   18.386106    0.295069    0.295069    0.295069    0.000000   -0.000000    0.000000
   18.409350    0.297451    0.297451    0.297451    0.000000   -0.000000    0.000000
   18.432595    0.299831    0.299831    0.299831    0.000000   -0.000000    0.000000
   18.455839    0.302202    0.302202    0.302202    0.000000   -0.000000    0.000000
   18.479083    0.304559    0.304559    0.304559    0.000000   -0.000000    0.000000
   18.502327    0.306895    0.306895    0.306895    0.000000   -0.000000    0.000000
   18.525571    0.309205    0.309205    0.309205    0.000000   -0.000000    0.000000
   18.548815    0.311488    0.311488    0.311488    0.000000   -0.000000    0.000000
   18.572059    0.313743    0.313743    0.313743    0.000000   -0.000000    0.000000
   18.595303    0.315971    0.315971    0.315971    0.000000   -0.000000    0.000000
   18.618548    0.318172    0.318172    0.318172    0.000000   -0.000000    0.000000
   18.641792    0.320348    0.320348    0.320348    0.000000   -0.000000    0.000000
   18.665036    0.322500    0.322500    0.322500    0.000000   -0.000000    0.000000
   18.688280    0.324630    0.324630    0.324630    0.000000   -0.000000    0.000000
   18.711524    0.326739    0.326739    0.326739    0.000000   -0.000000    0.000000
   18.734768    0.328827    0.328827    0.328827    0.000000   -0.000000    0.000000
   18.758012    0.330897    0.330897    0.330897    0.000000   -0.000000    0.000000
   18.781256    0.332948    0.332948    0.332948    0.000000   -0.000000    0.000000
   18.804501    0.334981    0.334981    0.334981    0.000000   -0.000000    0.000000
   18.827745    0.336999    0.336999    0.336999    0.000000   -0.000000    0.000000
   18.850989    0.339000    0.339000    0.339000    0.000000   -0.000000    0.000000
   18.874233    0.340985    0.340985    0.340985    0.000000   -0.000000    0.000000
   18.897477    0.342956    0.342956    0.342956    0.000000   -0.000000    0.000000
   18.920721    0.344912    0.344912    0.344912    0.000000   -0.000000    0.000000
   18.943965    0.346854    0.346854    0.346854    0.000000   -0.000000    0.000000
   18.967210    0.348783    0.348783    0.348783    0.000000   -0.000000    0.000000
   18.990454    0.350698    0.350698    0.350698    0.000000   -0.000000    0.000000
   19.013698    0.352601    0.352601    0.352601    0.000000   -0.000000    0.000000
   19.036942    0.354491    0.354491    0.354491    0.000000   -0.000000    0.000000
   19.060186    0.356369    0.356369    0.356369    0.000000   -0.000000    0.000000
   19.083430    0.358235    0.358235    0.358235    0.000000   -0.000000    0.000000
   19.106674    0.360090    0.360090    0.360090    0.000000   -0.000000    0.000000
   19.129918    0.361933    0.361933    0.361933    0.000000   -0.000000    0.000000
   19.153163    0.363765    0.363765    0.363765    0.000000   -0.000000    0.000000
   19.176407    0.365586    0.365586    0.365586    0.000000   -0.000000    0.000000
   19.199651    0.367397    0.367397    0.367397    0.000000   -0.000000    0.000000
   19.222895    0.369197    0.369197    0.369197    0.000000   -0.000000    0.000000
   19.246139    0.370987    0.370987    0.370987    0.000000   -0.000000    0.000000
   19.269383    0.372766    0.372766    0.372766    0.000000   -0.000000    0.000000
   19.292627    0.374536    0.374536    0.374536    0.000000   -0.000000    0.000000
   19.315871    0.376296    0.376296    0.376296    0.000000   -0.000000    0.000000
   19.339116    0.378046    0.378046    0.378046    0.000000   -0.000000    0.000000
   19.362360    0.379786    0.379786    0.379786    0.000000   -0.000000    0.000000
   19.385604    0.381518    0.381518    0.381518    0.000000   -0.000000    0.000000
   19.408848    0.383240    0.383240    0.383240    0.000000   -0.000000    0.000000
   19.432092    0.384953    0.384953    0.384953    0.000000   -0.000000    0.000000
   19.455336    0.386657    0.386657    0.386657    0.000000   -0.000000    0.000000
   19.478580    0.388352    0.388352    0.388352    0.000000   -0.000000    0.000000
   19.501824    0.390039    0.390039    0.390039    0.000000   -0.000000    0.000000
   19.525069    0.391717    0.391717    0.391717    0.000000   -0.000000    0.000000
   19.548313    0.393386    0.393386    0.393386    0.000000   -0.000000    0.000000
   19.571557    0.395047    0.395047    0.395047    0.000000   -0.000000    0.000000
   19.594801    0.396700    0.396700    0.396700    0.000000   -0.000000    0.000000
   19.618045    0.398344    0.398344    0.398344    0.000000   -0.000000    0.000000
   19.641289    0.399981    0.399981    0.399981    0.000000   -0.000000    0.000000
   19.664533    0.401609    0.401609    0.401609    0.000000   -0.000000    0.000000
   19.687778    0.403230    0.403230    0.403230    0.000000   -0.000000    0.000000
   19.711022    0.404842    0.404842    0.404842    0.000000   -0.000000    0.000000
   19.734266    0.406447    0.406447    0.406447    0.000000   -0.000000    0.000000
   19.757510    0.408044    0.408044    0.408044    0.000000   -0.000000    0.000000
   19.780754    0.409634    0.409634    0.409634    0.000000   -0.000000    0.000000
   19.803998    0.411216    0.411216    0.411216    0.000000   -0.000000    0.000000
   19.827242    0.412790    0.412790    0.412790    0.000000   -0.000000    0.000000
   19.850486    0.414358    0.414358    0.414358    0.000000   -0.000000    0.000000
   19.873731    0.415918    0.415918    0.415918    0.000000   -0.000000    0.000000
   19.896975    0.417470    0.417470    0.417470    0.000000   -0.000000    0.000000
   19.920219    0.419016    0.419016    0.419016    0.000000   -0.000000    0.000000
   19.943463    0.420554    0.420554    0.420554    0.000000   -0.000000    0.000000
   19.966707    0.422086    0.422086    0.422086    0.000000   -0.000000    0.000000
   19.989951    0.423610    0.423610    0.423610    0.000000   -0.000000    0.000000
   20.013195    0.425128    0.425128    0.425128    0.000000   -0.000000    0.000000
   20.036439    0.426638    0.426638    0.426638    0.000000   -0.000000    0.000000
   20.059684    0.428142    0.428142    0.428142    0.000000   -0.000000    0.000000
   20.082928    0.429639    0.429639    0.429639    0.000000   -0.000000    0.000000
   20.106172    0.431130    0.431130    0.431130    0.000000   -0.000000    0.000000
   20.129416    0.432614    0.432614    0.432614    0.000000   -0.000000    0.000000
   20.152660    0.434091    0.434091    0.434091    0.000000   -0.000000    0.000000
   20.175904    0.435562    0.435562    0.435562    0.000000   -0.000000    0.000000
   20.199148    0.437026    0.437026    0.437026    0.000000   -0.000000    0.000000
   20.222392    0.438484    0.438484    0.438484    0.000000   -0.000000    0.000000
   20.245637    0.439935    0.439935    0.439935    0.000000   -0.000000    0.000000
   20.268881    0.441381    0.441381    0.441381    0.000000   -0.000000    0.000000
   20.292125    0.442820    0.442820    0.442820    0.000000   -0.000000    0.000000
   20.315369    0.444252    0.444252    0.444252    0.000000   -0.000000    0.000000
   20.338613    0.445679    0.445679    0.445679    0.000000   -0.000000    0.000000
   20.361857    0.447100    0.447100    0.447100    0.000000   -0.000000    0.000000
   20.385101    0.448514    0.448514    0.448514    0.000000   -0.000000    0.000000
   20.408346    0.449922    0.449922    0.449922    0.000000   -0.000000    0.000000
   20.431590    0.451325    0.451325    0.451325    0.000000   -0.000000    0.000000
   20.454834    0.452721    0.452721    0.452721    0.000000   -0.000000    0.000000
   20.478078    0.454112    0.454112    0.454112    0.000000   -0.000000    0.000000
   20.501322    0.455497    0.455497    0.455497    0.000000   -0.000000    0.000000
   20.524566    0.456876    0.456876    0.456876    0.000000   -0.000000    0.000000
   20.547810    0.458249    0.458249    0.458249    0.000000   -0.000000    0.000000
   20.571054    0.459616    0.459616    0.459616    0.000000   -0.000000    0.000000
   20.594299    0.460978    0.460978    0.460978    0.000000   -0.000000    0.000000
   20.617543    0.462334    0.462334    0.462334    0.000000   -0.000000    0.000000
   20.640787    0.463685    0.463685    0.463685    0.000000   -0.000000    0.000000
   20.664031    0.465030    0.465030    0.465030    0.000000   -0.000000    0.000000
   20.687275    0.466369    0.466369    0.466369    0.000000   -0.000000    0.000000
   20.710519    0.467703    0.467703    0.467703    0.000000   -0.000000    0.000000
   20.733763    0.469031    0.469031    0.469031    0.000000   -0.000000    0.000000
   20.757007    0.470355    0.470355    0.470355    0.000000   -0.000000    0.000000
   20.780252    0.471672    0.471672    0.471672    0.000000   -0.000000    0.000000
   20.803496    0.472985    0.472985    0.472985    0.000000   -0.000000    0.000000
   20.826740    0.474292    0.474292    0.474292    0.000000   -0.000000    0.000000
   20.849984    0.475593    0.475593    0.475593    0.000000   -0.000000    0.000000
   20.873228    0.476890    0.476890    0.476890    0.000000   -0.000000    0.000000
   20.896472    0.478181    0.478181    0.478181    0.000000   -0.000000    0.000000
   20.919716    0.479467    0.479467    0.479467    0.000000   -0.000000    0.000000
   20.942960    0.480748    0.480748    0.480748    0.000000   -0.000000    0.000000
   20.966205    0.482024    0.482024    0.482024    0.000000   -0.000000    0.000000
   20.989449    0.483295    0.483295    0.483295    0.000000   -0.000000    0.000000
   21.012693    0.484560    0.484560    0.484560    0.000000   -0.000000    0.000000
   21.035937    0.485821    0.485821    0.485821    0.000000   -0.000000    0.000000
   21.059181    0.487077    0.487077    0.487077    0.000000   -0.000000    0.000000
   21.082425    0.488328    0.488328    0.488328    0.000000   -0.000000    0.000000
   21.105669    0.489574    0.489574    0.489574    0.000000   -0.000000    0.000000
   21.128914    0.490815    0.490815    0.490815    0.000000   -0.000000    0.000000
   21.152158    0.492051    0.492051    0.492051    0.000000   -0.000000    0.000000
   21.175402    0.493282    0.493282    0.493282    0.000000   -0.000000    0.000000
   21.198646    0.494508    0.494508    0.494508    0.000000   -0.000000    0.000000
   21.221890    0.495730    0.495730    0.495730    0.000000   -0.000000    0.000000
   21.245134    0.496947    0.496947    0.496947    0.000000   -0.000000    0.000000
   21.268378    0.498159    0.498159    0.498159    0.000000   -0.000000    0.000000
   21.291622    0.499367    0.499367    0.499367    0.000000   -0.000000    0.000000
   21.314867    0.500570    0.500570    0.500570    0.000000   -0.000000    0.000000
   21.338111    0.501768    0.501768    0.501768    0.000000   -0.000000    0.000000
   21.361355    0.502962    0.502962    0.502962    0.000000   -0.000000    0.000000
   21.384599    0.504151    0.504151    0.504151    0.000000   -0.000000    0.000000
   21.407843    0.505335    0.505335    0.505335    0.000000   -0.000000    0.000000
   21.431087    0.506515    0.506515    0.506515    0.000000   -0.000000    0.000000
   21.454331    0.507691    0.507691    0.507691    0.000000   -0.000000    0.000000
   21.477575    0.508862    0.508862    0.508862    0.000000   -0.000000    0.000000
   21.500820    0.510028    0.510028    0.510028    0.000000   -0.000000    0.000000
   21.524064    0.511191    0.511191    0.511191    0.000000   -0.000000    0.000000
   21.547308    0.512348    0.512348    0.512348    0.000000   -0.000000    0.000000
   21.570552    0.513502    0.513502    0.513502    0.000000   -0.000000    0.000000
   21.593796    0.514651    0.514651    0.514651    0.000000   -0.000000    0.000000
   21.617040    0.515796    0.515796    0.515796    0.000000   -0.000000    0.000000
   21.640284    0.516936    0.516936    0.516936    0.000000   -0.000000    0.000000
   21.663529    0.518072    0.518072    0.518072    0.000000   -0.000000    0.000000
   21.686773    0.519204    0.519204    0.519204    0.000000   -0.000000    0.000000
   21.710017    0.520332    0.520332    0.520332    0.000000   -0.000000    0.000000
   21.733261    0.521455    0.521455    0.521455    0.000000   -0.000000    0.000000
   21.756505    0.522575    0.522575    0.522575    0.000000   -0.000000    0.000000
   21.779749    0.523690    0.523690    0.523690    0.000000   -0.000000    0.000000
   21.802993    0.524801    0.524801    0.524801    0.000000   -0.000000    0.000000
   21.826237    0.525908    0.525908    0.525908    0.000000   -0.000000    0.000000
   21.849482    0.527011    0.527011    0.527011    0.000000   -0.000000    0.000000
   21.872726    0.528110    0.528110    0.528110    0.000000   -0.000000    0.000000
   21.895970    0.529204    0.529204    0.529204    0.000000   -0.000000    0.000000
   21.919214    0.530295    0.530295    0.530295    0.000000   -0.000000    0.000000
   21.942458    0.531382    0.531382    0.531382    0.000000   -0.000000    0.000000
   21.965702    0.532464    0.532464    0.532464    0.000000   -0.000000    0.000000
   21.988946    0.533543    0.533543    0.533543    0.000000   -0.000000    0.000000
   22.012190    0.534618    0.534618    0.534618    0.000000   -0.000000    0.000000
   22.035435    0.535689    0.535689    0.535689    0.000000   -0.000000    0.000000
   22.058679    0.536756    0.536756    0.536756    0.000000   -0.000000    0.000000
   22.081923    0.537819    0.537819    0.537819    0.000000   -0.000000    0.000000
   22.105167    0.538879    0.538879    0.538879    0.000000   -0.000000    0.000000
   22.128411    0.539934    0.539934    0.539934    0.000000   -0.000000    0.000000
   22.151655    0.540986    0.540986    0.540986    0.000000   -0.000000    0.000000
   22.174899    0.542034    0.542034    0.542034    0.000000   -0.000000    0.000000
   22.198143    0.543078    0.543078    0.543078    0.000000   -0.000000    0.000000
   22.221388    0.544118    0.544118    0.544118    0.000000   -0.000000    0.000000
   22.244632    0.545155    0.545155    0.545155    0.000000   -0.000000    0.000000
   22.267876    0.546188    0.546188    0.546188    0.000000   -0.000000    0.000000
   22.291120    0.547217    0.547217    0.547217    0.000000   -0.000000    0.000000
   22.314364    0.548243    0.548243    0.548243    0.000000   -0.000000    0.000000
   22.337608    0.549265    0.549265    0.549265    0.000000   -0.000000    0.000000
   22.360852    0.550283    0.550283    0.550283    0.000000   -0.000000    0.000000
   22.384097    0.551298    0.551298    0.551298    0.000000   -0.000000    0.000000
   22.407341    0.552309    0.552309    0.552309    0.000000   -0.000000    0.000000
   22.430585    0.553316    0.553316    0.553316    0.000000   -0.000000    0.000000
   22.453829    0.554320    0.554320    0.554320    0.000000   -0.000000    0.000000
   22.477073    0.555321    0.555321    0.555321    0.000000   -0.000000    0.000000
   22.500317    0.556317    0.556317    0.556317    0.000000   -0.000000    0.000000
   22.523561    0.557311    0.557311    0.557311    0.000000   -0.000000    0.000000
   22.546805    0.558301    0.558301    0.558301    0.000000   -0.000000    0.000000
   22.570050    0.559287    0.559287    0.559287    0.000000   -0.000000    0.000000
   22.593294    0.560270    0.560270    0.560270    0.000000   -0.000000    0.000000
   22.616538    0.561250    0.561250    0.561250    0.000000   -0.000000    0.000000
   22.639782    0.562226    0.562226    0.562226    0.000000   -0.000000    0.000000
   22.663026    0.563198    0.563198    0.563198    0.000000   -0.000000    0.000000
   22.686270    0.564168    0.564168    0.564168    0.000000   -0.000000    0.000000
   22.709514    0.565134    0.565134    0.565134    0.000000   -0.000000    0.000000
   22.732758    0.566096    0.566096    0.566096    0.000000   -0.000000    0.000000
   22.756003    0.567055    0.567055    0.567055    0.000000   -0.000000    0.000000
   22.779247    0.568011    0.568011    0.568011    0.000000   -0.000000    0.000000
   22.802491    0.568964    0.568964    0.568964    0.000000   -0.000000    0.000000
   22.825735    0.569913    0.569913    0.569913    0.000000   -0.000000    0.000000
   22.848979    0.570859    0.570859    0.570859    0.000000   -0.000000    0.000000
   22.872223    0.571802    0.571802    0.571802    0.000000   -0.000000    0.000000
   22.895467    0.572742    0.572742    0.572742    0.000000   -0.000000    0.000000
   22.918711    0.573678    0.573678    0.573678    0.000000   -0.000000    0.000000
   22.941956    0.574611    0.574611    0.574611    0.000000   -0.000000    0.000000
   22.965200    0.575541    0.575541    0.575541    0.000000   -0.000000    0.000000
   22.988444    0.576468    0.576468    0.576468    0.000000   -0.000000    0.000000
   23.011688    0.577392    0.577392    0.577392    0.000000   -0.000000    0.000000
   23.034932    0.578312    0.578312    0.578312    0.000000   -0.000000    0.000000
   23.058176    0.579230    0.579230    0.579230    0.000000   -0.000000    0.000000
   23.081420    0.580144    0.580144    0.580144    0.000000   -0.000000    0.000000
   23.104665    0.581055    0.581055    0.581055    0.000000   -0.000000    0.000000
   23.127909    0.581963    0.581963    0.581963    0.000000   -0.000000    0.000000
   23.151153    0.582868    0.582868    0.582868    0.000000   -0.000000    0.000000
   23.174397    0.583770    0.583770    0.583770    0.000000   -0.000000    0.000000
   23.197641    0.584669    0.584669    0.584669    0.000000   -0.000000    0.000000
   23.220885    0.585565    0.585565    0.585565    0.000000   -0.000000    0.000000
 
 The outermost node in the dielectric function lies at epsilon=  16.1


--------------------------------------------------------------------------------------------------------


    OPTICS:  cpu time      0.1666: real time      0.1784
    4ORBIT:  cpu time      0.0000: real time      0.0000
 BZINTS: Fermi energy:    4.237018;   32.000000 electrons
         Band energy:-0.546749E+02;  BLOECHL correction:    0.000000

 total amount of memory used by VASP MPI-rank0    44491. kBytes
=======================================================================

   base      :      30000. kBytes
   nonl-proj :       8655. kBytes
   fftplans  :       1096. kBytes
   grid      :       2745. kBytes
   one-center:         64. kBytes
   wavefun   :       1931. kBytes
 
  
  
 General timing and accounting informations for this job:
 ========================================================
  
                  Total CPU time used (sec):        3.683
                            User time (sec):        2.168
                          System time (sec):        1.515
                         Elapsed time (sec):        5.387
  
                   Maximum memory used (kb):      134956.
                   Average memory used (kb):          N/A
  
                          Minor page faults:        14211
                          Major page faults:           48
                 Voluntary context switches:         1950
