GaAs                                    
   4.50000000000000     
     1.259022   -0.000000   -0.000000
    -0.000000    1.259022   -0.000000
     0.000000    0.000000    1.259022
   As   Ga
     4     4
Direct
  0.000000  1.000000  1.000000
  0.500000  0.500000  0.000000
  0.500000  0.000000  0.500000
  1.000000  0.500000  0.500000
  0.250000  0.250000  0.250000
  0.750000  0.250000  0.750000
  0.750000  0.750000  0.250000
  0.250000  0.750000  0.750000
 
   56   56   56
 -.65505336674E+02 -.55511190239E+02 -.28236444965E+02 0.92266293040E+01 0.47950727387E+02
 0.79992702380E+02 0.10033771710E+03 0.10751506061E+03 0.10312299834E+03 0.90785543736E+02
 0.74971605250E+02 0.59842428305E+02 0.47191996380E+02 0.36897044639E+02 0.28688171401E+02
 0.22268254075E+02 0.17329299658E+02 0.13569559694E+02 0.10717337117E+02 0.85507405878E+01
 0.69032154551E+01 0.56550768912E+01 0.47190356975E+01 0.40278067065E+01 0.35274492622E+01
 0.31756936463E+01 0.29422675238E+01 0.28084140395E+01 0.27647111469E+01 0.28084140395E+01
 0.29422675238E+01 0.31756936463E+01 0.35274492622E+01 0.40278067065E+01 0.47190356975E+01
 0.56550768912E+01 0.69032154551E+01 0.85507405878E+01 0.10717337117E+02 0.13569559694E+02
 0.17329299658E+02 0.22268254075E+02 0.28688171401E+02 0.36897044639E+02 0.47191996380E+02
 0.59842428305E+02 0.74971605250E+02 0.90785543736E+02 0.10312299834E+03 0.10751506061E+03
 0.10033771710E+03 0.79992702380E+02 0.47950727387E+02 0.92266293040E+01 -.28236444965E+02
 -.55511190239E+02 -.55511190239E+02 -.45968902288E+02 -.19943636475E+02 0.15749347007E+02
 0.52530013628E+02 0.82765397064E+02 0.10164617763E+03 0.10778910324E+03 0.10278619440E+03
 0.90196935224E+02 0.74396429133E+02 0.59423571785E+02 0.46909710196E+02 0.36717528920E+02
 0.28584130060E+02 0.22218147759E+02 0.17316300642E+02 0.13580904734E+02 0.10743863737E+02
 0.85862832757E+01 0.69438490592E+01 0.56983939740E+01 0.47635859862E+01 0.40727174418E+01
 0.35722137317E+01 0.32200860024E+01 0.29862883934E+01 0.28521951359E+01 0.28084140395E+01
 0.28521951359E+01 0.29862883934E+01 0.32200860024E+01 0.35722137317E+01 0.40727174418E+01
 0.47635859862E+01 0.56983939740E+01 0.69438490592E+01 0.85862832757E+01 0.10743863737E+02
 0.13580904734E+02 0.17316300642E+02 0.22218147759E+02 0.28584130060E+02 0.36717528920E+02
 0.46909710196E+02 0.59423571785E+02 0.74396429133E+02 0.90196935224E+02 0.10278619440E+03
 0.10778910324E+03 0.10164617763E+03 0.82765397064E+02 0.52530013628E+02 0.15749347007E+02
 -.19943636475E+02 -.45968902288E+02 -.28236444965E+02 -.19943636475E+02 0.26262218094E+01
 0.33423504360E+02 0.64829561809E+02 0.90072865260E+02 0.10491834920E+03 0.10823058015E+03
 0.10158723781E+03 0.88367055591E+02 0.72678017752E+02 0.58185925155E+02 0.46074458431E+02
 0.36185828480E+02 0.28276018827E+02 0.22070243033E+02 0.17278889577E+02 0.13616192601E+02
 0.10824678692E+02 0.86943194030E+01 0.70674345567E+01 0.58303389078E+01 0.48995097667E+01
 0.42099362184E+01 0.37091384474E+01 0.33559794108E+01 0.31211010560E+01 0.29862883934E+01
 0.29422675238E+01 0.29862883934E+01 0.31211010560E+01 0.33559794108E+01 0.37091384474E+01
 0.42099362184E+01 0.48995097667E+01 0.58303389078E+01 0.70674345567E+01 0.86943194030E+01
 0.10824678692E+02 0.13616192601E+02 0.17278889577E+02 0.22070243033E+02 0.28276018827E+02
 0.36185828480E+02 0.46074458431E+02 0.58185925155E+02 0.72678017752E+02 0.88367055591E+02
 0.10158723781E+03 0.10823058015E+03 0.10491834920E+03 0.90072865260E+02 0.64829561809E+02
 0.33423504360E+02 0.26262218094E+01 -.19943636475E+02 0.92266293040E+01 0.15749347007E+02
 0.33423504360E+02 0.57284281012E+02 0.81079871136E+02 0.99271472645E+02 0.10845554293E+03
 0.10786442660E+03 0.99061984959E+02 0.85161227491E+02 0.69866231864E+02 0.56186722830E+02
 0.44721619554E+02 0.35323056803E+02 0.27776291637E+02 0.21831980299E+02 0.17221852048E+02
 0.13679137641E+02 0.10963473155E+02 0.88791588525E+01 0.72792364557E+01 0.60572233773E+01
 0.51340715795E+01 0.44474930526E+01 0.39468301932E+01 0.35923926277E+01 0.33559794108E+01
 0.32200860024E+01 0.31756936463E+01 0.32200860024E+01 0.33559794108E+01 0.35923926277E+01
 0.39468301932E+01 0.44474930526E+01 0.51340715795E+01 0.60572233773E+01 0.72792364557E+01
 0.88791588525E+01 0.10963473155E+02 0.13679137641E+02 0.17221852048E+02 0.21831980299E+02
 0.27776291637E+02 0.35323056803E+02 0.44721619554E+02 0.56186722830E+02 0.69866231864E+02
 0.85161227491E+02 0.99061984959E+02 0.10786442660E+03 0.10845554293E+03 0.99271472645E+02
 0.81079871136E+02 0.57284281012E+02 0.33423504360E+02 0.15749347007E+02 0.47950727387E+02
 0.52530013628E+02 0.64829561809E+02 0.81079871136E+02 0.96543545006E+02 0.10706105100E+03
 0.11017439626E+03 0.10554581896E+03 0.94728525920E+02 0.80518056395E+02 0.66111348008E+02
 0.53521306178E+02 0.42910996519E+02 0.34165618601E+02 0.27106690906E+02 0.21516300633E+02
 0.17153362086E+02 0.13776025289E+02 0.11166632433E+02 0.91485177230E+01 0.75889134251E+01
 0.63907852867E+01 0.54809096580E+01 0.48006142986E+01 0.43017945611E+01 0.39468301932E+01
 0.37091384474E+01 0.35722137317E+01 0.35274492622E+01 0.35722137317E+01 0.37091384474E+01
 0.39468301932E+01 0.43017945611E+01 0.48006142986E+01 0.54809096580E+01 0.63907852867E+01
 0.75889134251E+01 0.91485177230E+01 0.11166632433E+02 0.13776025289E+02 0.17153362086E+02
 0.21516300633E+02 0.27106690906E+02 0.34165618601E+02 0.42910996519E+02 0.53521306178E+02
 0.66111348008E+02 0.80518056395E+02 0.94728525920E+02 0.10554581896E+03 0.11017439626E+03
 0.10706105100E+03 0.96543545006E+02 0.81079871136E+02 0.64829561809E+02 0.52530013628E+02
 0.79992702380E+02 0.82765397064E+02 0.90072865260E+02 0.99271472645E+02 0.10706105100E+03
 0.11060725153E+03 0.10837623769E+03 0.10045756338E+03 0.88385756824E+02 0.74608111799E+02
 0.61623089492E+02 0.50319072550E+02 0.40725443171E+02 0.32765192111E+02 0.26298653892E+02
 0.21142119598E+02 0.17085514594E+02 0.13916407699E+02 0.11444188827E+02 0.95147644993E+01
 0.80120353083E+01 0.68499308342E+01 0.59619656901E+01 0.52938043041E+01 0.48006142986E+01
 0.44474930526E+01 0.42099362184E+01 0.40727174418E+01 0.40278067065E+01 0.40727174418E+01
 0.42099362184E+01 0.44474930526E+01 0.48006142986E+01 0.52938043041E+01 0.59619656901E+01
 0.68499308342E+01 0.80120353083E+01 0.95147644993E+01 0.11444188827E+02 0.13916407699E+02
 0.17085514594E+02 0.21142119598E+02 0.26298653892E+02 0.32765192111E+02 0.40725443171E+02
 0.50319072550E+02 0.61623089492E+02 0.74608111799E+02 0.88385756824E+02 0.10045756338E+03
 0.10837623769E+03 0.11060725153E+03 0.10706105100E+03 0.99271472645E+02 0.90072865260E+02
 0.82765397064E+02 0.10033771710E+03 0.10164617763E+03 0.10491834920E+03 0.10845554293E+03
 0.11017439626E+03 0.10837623769E+03 0.10232795597E+03 0.92482746527E+02 0.80324306245E+02
 0.67909511222E+02 0.56630543543E+02 0.46734007686E+02 0.38266124435E+02 0.31186578892E+02
 0.25392583194E+02 0.20734501696E+02 0.17035163053E+02 0.14114416922E+02 0.11811410245E+02
 0.99965888886E+01 0.85716812219E+01 0.74621819468E+01 0.66087647112E+01 0.59619656901E+01
 0.54809096580E+01 0.51340715795E+01 0.48995097667E+01 0.47635859862E+01 0.47190356975E+01
 0.47635859862E+01 0.48995097667E+01 0.51340715795E+01 0.54809096580E+01 0.59619656901E+01
 0.66087647112E+01 0.74621819468E+01 0.85716812219E+01 0.99965888886E+01 0.11811410245E+02
 0.14114416922E+02 0.17035163053E+02 0.20734501696E+02 0.25392583194E+02 0.31186578892E+02
 0.38266124435E+02 0.46734007686E+02 0.56630543543E+02 0.67909511222E+02 0.80324306245E+02
 0.92482746527E+02 0.10232795597E+03 0.10837623769E+03 0.11017439626E+03 0.10845554293E+03
 0.10491834920E+03 0.10164617763E+03 0.10751506061E+03 0.10778910324E+03 0.10823058015E+03
 0.10786442660E+03 0.10554581896E+03 0.10045756338E+03 0.92482746527E+02 0.82326529280E+02
 0.71361119481E+02 0.60904476593E+02 0.51373075189E+02 0.42931363677E+02 0.35644863170E+02
 0.29503431941E+02 0.24435832674E+02 0.20324262460E+02 0.17024611654E+02 0.14390028775E+02
 0.12290157265E+02 0.10620090022E+02 0.92990690930E+01 0.82638266403E+01 0.74621819468E+01
 0.68499308342E+01 0.63907852867E+01 0.60572233773E+01 0.58303389078E+01 0.56983939740E+01
 0.56550768912E+01 0.56983939740E+01 0.58303389078E+01 0.60572233773E+01 0.63907852867E+01
 0.68499308342E+01 0.74621819468E+01 0.82638266403E+01 0.92990690930E+01 0.10620090022E+02
 0.12290157265E+02 0.14390028775E+02 0.17024611654E+02 0.20324262460E+02 0.24435832674E+02
 0.29503431941E+02 0.35644863170E+02 0.42931363677E+02 0.51373075189E+02 0.60904476593E+02
 0.71361119481E+02 0.82326529280E+02 0.92482746527E+02 0.10045756338E+03 0.10554581896E+03
 0.10786442660E+03 0.10823058015E+03 0.10778910324E+03 0.10312299834E+03 0.10278619440E+03
 0.10158723781E+03 0.99061984959E+02 0.94728525920E+02 0.88385756824E+02 0.80324306245E+02
 0.71361119481E+02 0.62419830214E+02 0.53911189306E+02 0.46078062110E+02 0.39073791882E+02
 0.32975209406E+02 0.27792687238E+02 0.23479664782E+02 0.19946738779E+02 0.17081462279E+02
 0.14769298670E+02 0.12908988445E+02 0.11418490163E+02 0.10232887324E+02 0.92990690930E+01
 0.85716812219E+01 0.80120353083E+01 0.75889134251E+01 0.72792364557E+01 0.70674345567E+01
 0.69438490592E+01 0.69032154551E+01 0.69438490592E+01 0.70674345567E+01 0.72792364557E+01
 0.75889134251E+01 0.80120353083E+01 0.85716812219E+01 0.92990690930E+01 0.10232887324E+02
 0.11418490163E+02 0.12908988445E+02 0.14769298670E+02 0.17081462279E+02 0.19946738779E+02
 0.23479664782E+02 0.27792687238E+02 0.32975209406E+02 0.39073791882E+02 0.46078062110E+02
 0.53911189306E+02 0.62419830214E+02 0.71361119481E+02 0.80324306245E+02 0.88385756824E+02
 0.94728525920E+02 0.99061984959E+02 0.10158723781E+03 0.10278619440E+03 0.90785543736E+02
 0.90196935224E+02 0.88367055591E+02 0.85161227491E+02 0.80518056395E+02 0.74608111799E+02
 0.67909511222E+02 0.60904476593E+02 0.53911189306E+02 0.47191197469E+02 0.40944600735E+02
 0.35309457112E+02 0.30363743645E+02 0.26128607159E+02 0.22575531541E+02 0.19639592414E+02
 0.17237185795E+02 0.15283129480E+02 0.13701878769E+02 0.12430909461E+02 0.11418490163E+02
 0.10620090022E+02 0.99965888886E+01 0.95147644993E+01 0.91485177230E+01 0.88791588525E+01
 0.86943194030E+01 0.85862832757E+01 0.85507405878E+01 0.85862832757E+01 0.86943194030E+01
 0.88791588525E+01 0.91485177230E+01 0.95147644993E+01 0.99965888886E+01 0.10620090022E+02
 0.11418490163E+02 0.12430909461E+02 0.13701878769E+02 0.15283129480E+02 0.17237185795E+02
 0.19639592414E+02 0.22575531541E+02 0.26128607159E+02 0.30363743645E+02 0.35309457112E+02
 0.40944600735E+02 0.47191197469E+02 0.53911189306E+02 0.60904476593E+02 0.67909511222E+02
 0.74608111799E+02 0.80518056395E+02 0.85161227491E+02 0.88367055591E+02 0.90196935224E+02
 0.74971605250E+02 0.74396429133E+02 0.72678017752E+02 0.69866231864E+02 0.66111348008E+02
 0.61623089492E+02 0.56630543543E+02 0.51373075189E+02 0.46078062110E+02 0.40944600735E+02
 0.36133721430E+02 0.31762766608E+02 0.27902393121E+02 0.24577087400E+02 0.21771082568E+02
 0.19439901505E+02 0.17524757435E+02 0.15965245310E+02 0.14706722124E+02 0.13701878769E+02
 0.12908988445E+02 0.12290157265E+02 0.11811410245E+02 0.11444188827E+02 0.11166632433E+02
 0.10963473155E+02 0.10824678692E+02 0.10743863737E+02 0.10717337117E+02 0.10743863737E+02
 0.10824678692E+02 0.10963473155E+02 0.11166632433E+02 0.11444188827E+02 0.11811410245E+02
 0.12290157265E+02 0.12908988445E+02 0.13701878769E+02 0.14706722124E+02 0.15965245310E+02
 0.17524757435E+02 0.19439901505E+02 0.21771082568E+02 0.24577087400E+02 0.27902393121E+02
 0.31762766608E+02 0.36133721430E+02 0.40944600735E+02 0.46078062110E+02 0.51373075189E+02
 0.56630543543E+02 0.61623089492E+02 0.66111348008E+02 0.69866231864E+02 0.72678017752E+02
 0.74396429133E+02 0.59842428305E+02 0.59423571785E+02 0.58185925155E+02 0.56186722830E+02
 0.53521306178E+02 0.50319072550E+02 0.46734007686E+02 0.42931363677E+02 0.39073791882E+02
 0.35309457112E+02 0.31762766608E+02 0.28527436380E+02 0.25662256082E+02 0.23190862005E+02
 0.21106543825E+02 0.19381316736E+02 0.17976426004E+02 0.16850784806E+02 0.15965245310E+02
 0.15283129480E+02 0.14769298670E+02 0.14390028775E+02 0.14114416922E+02 0.13916407699E+02
 0.13776025289E+02 0.13679137641E+02 0.13616192601E+02 0.13580904734E+02 0.13569559694E+02
 0.13580904734E+02 0.13616192601E+02 0.13679137641E+02 0.13776025289E+02 0.13916407699E+02
 0.14114416922E+02 0.14390028775E+02 0.14769298670E+02 0.15283129480E+02 0.15965245310E+02
 0.16850784806E+02 0.17976426004E+02 0.19381316736E+02 0.21106543825E+02 0.23190862005E+02
 0.25662256082E+02 0.28527436380E+02 0.31762766608E+02 0.35309457112E+02 0.39073791882E+02
 0.42931363677E+02 0.46734007686E+02 0.50319072550E+02 0.53521306178E+02 0.56186722830E+02
 0.58185925155E+02 0.59423571785E+02 0.47191996380E+02 0.46909710196E+02 0.46074458431E+02
 0.44721619554E+02 0.42910996519E+02 0.40725443171E+02 0.38266124435E+02 0.35644863170E+02
 0.32975209406E+02 0.30363743645E+02 0.27902393121E+02 0.25662256082E+02 0.23689792883E+02
 0.22006480281E+02 0.20612338450E+02 0.19492242165E+02 0.18622653309E+02 0.17976426004E+02
 0.17524757435E+02 0.17237185795E+02 0.17081462279E+02 0.17024611654E+02 0.17035163053E+02
 0.17085514594E+02 0.17153362086E+02 0.17221852048E+02 0.17278889577E+02 0.17316300642E+02
 0.17329299658E+02 0.17316300642E+02 0.17278889577E+02 0.17221852048E+02 0.17153362086E+02
 0.17085514594E+02 0.17035163053E+02 0.17024611654E+02 0.17081462279E+02 0.17237185795E+02
 0.17524757435E+02 0.17976426004E+02 0.18622653309E+02 0.19492242165E+02 0.20612338450E+02
 0.22006480281E+02 0.23689792883E+02 0.25662256082E+02 0.27902393121E+02 0.30363743645E+02
 0.32975209406E+02 0.35644863170E+02 0.38266124435E+02 0.40725443171E+02 0.42910996519E+02
 0.44721619554E+02 0.46074458431E+02 0.46909710196E+02 0.36897044639E+02 0.36717528920E+02
 0.36185828480E+02 0.35323056803E+02 0.34165618601E+02 0.32765192111E+02 0.31186578892E+02
 0.29503431941E+02 0.27792687238E+02 0.26128607159E+02 0.24577087400E+02 0.23190862005E+02
 0.22006480281E+02 0.21043874971E+02 0.20308576048E+02 0.19795460933E+02 0.19492242165E+02
 0.19381316736E+02 0.19439901505E+02 0.19639592414E+02 0.19946738779E+02 0.20324262460E+02
 0.20734501696E+02 0.21142119598E+02 0.21516300633E+02 0.21831980299E+02 0.22070243033E+02
 0.22218147759E+02 0.22268254075E+02 0.22218147759E+02 0.22070243033E+02 0.21831980299E+02
 0.21516300633E+02 0.21142119598E+02 0.20734501696E+02 0.20324262460E+02 0.19946738779E+02
 0.19639592414E+02 0.19439901505E+02 0.19381316736E+02 0.19492242165E+02 0.19795460933E+02
 0.20308576048E+02 0.21043874971E+02 0.22006480281E+02 0.23190862005E+02 0.24577087400E+02
 0.26128607159E+02 0.27792687238E+02 0.29503431941E+02 0.31186578892E+02 0.32765192111E+02
 0.34165618601E+02 0.35323056803E+02 0.36185828480E+02 0.36717528920E+02 0.28688171401E+02
 0.28584130060E+02 0.28276018827E+02 0.27776291637E+02 0.27106690906E+02 0.26298653892E+02
 0.25392583194E+02 0.24435832674E+02 0.23479664782E+02 0.22575531541E+02 0.21771082568E+02
 0.21106543825E+02 0.20612338450E+02 0.20308576048E+02 0.20206190499E+02 0.20308576048E+02
 0.20612338450E+02 0.21106543825E+02 0.21771082568E+02 0.22575531541E+02 0.23479664782E+02
 0.24435832674E+02 0.25392583194E+02 0.26298653892E+02 0.27106690906E+02 0.27776291637E+02
 0.28276018827E+02 0.28584130060E+02 0.28688171401E+02 0.28584130060E+02 0.28276018827E+02
 0.27776291637E+02 0.27106690906E+02 0.26298653892E+02 0.25392583194E+02 0.24435832674E+02
 0.23479664782E+02 0.22575531541E+02 0.21771082568E+02 0.21106543825E+02 0.20612338450E+02
 0.20308576048E+02 0.20206190499E+02 0.20308576048E+02 0.20612338450E+02 0.21106543825E+02
 0.21771082568E+02 0.22575531541E+02 0.23479664782E+02 0.24435832674E+02 0.25392583194E+02
 0.26298653892E+02 0.27106690906E+02 0.27776291637E+02 0.28276018827E+02 0.28584130060E+02
 0.22268254075E+02 0.22218147759E+02 0.22070243033E+02 0.21831980299E+02 0.21516300633E+02
 0.21142119598E+02 0.20734501696E+02 0.20324262460E+02 0.19946738779E+02 0.19639592414E+02
 0.19439901505E+02 0.19381316736E+02 0.19492242165E+02 0.19795460933E+02 0.20308576048E+02
 0.21043874971E+02 0.22006480281E+02 0.23190862005E+02 0.24577087400E+02 0.26128607159E+02
 0.27792687238E+02 0.29503431941E+02 0.31186578892E+02 0.32765192111E+02 0.34165618601E+02
 0.35323056803E+02 0.36185828480E+02 0.36717528920E+02 0.36897044639E+02 0.36717528920E+02
 0.36185828480E+02 0.35323056803E+02 0.34165618601E+02 0.32765192111E+02 0.31186578892E+02
 0.29503431941E+02 0.27792687238E+02 0.26128607159E+02 0.24577087400E+02 0.23190862005E+02
 0.22006480281E+02 0.21043874971E+02 0.20308576048E+02 0.19795460933E+02 0.19492242165E+02
 0.19381316736E+02 0.19439901505E+02 0.19639592414E+02 0.19946738779E+02 0.20324262460E+02
 0.20734501696E+02 0.21142119598E+02 0.21516300633E+02 0.21831980299E+02 0.22070243033E+02
 0.22218147759E+02 0.17329299658E+02 0.17316300642E+02 0.17278889577E+02 0.17221852048E+02
 0.17153362086E+02 0.17085514594E+02 0.17035163053E+02 0.17024611654E+02 0.17081462279E+02
 0.17237185795E+02 0.17524757435E+02 0.17976426004E+02 0.18622653309E+02 0.19492242165E+02
 0.20612338450E+02 0.22006480281E+02 0.23689792883E+02 0.25662256082E+02 0.27902393121E+02
 0.30363743645E+02 0.32975209406E+02 0.35644863170E+02 0.38266124435E+02 0.40725443171E+02
 0.42910996519E+02 0.44721619554E+02 0.46074458431E+02 0.46909710196E+02 0.47191996380E+02
 0.46909710196E+02 0.46074458431E+02 0.44721619554E+02 0.42910996519E+02 0.40725443171E+02
 0.38266124435E+02 0.35644863170E+02 0.32975209406E+02 0.30363743645E+02 0.27902393121E+02
 0.25662256082E+02 0.23689792883E+02 0.22006480281E+02 0.20612338450E+02 0.19492242165E+02
 0.18622653309E+02 0.17976426004E+02 0.17524757435E+02 0.17237185795E+02 0.17081462279E+02
 0.17024611654E+02 0.17035163053E+02 0.17085514594E+02 0.17153362086E+02 0.17221852048E+02
 0.17278889577E+02 0.17316300642E+02 0.13569559694E+02 0.13580904734E+02 0.13616192601E+02
 0.13679137641E+02 0.13776025289E+02 0.13916407699E+02 0.14114416922E+02 0.14390028775E+02
 0.14769298670E+02 0.15283129480E+02 0.15965245310E+02 0.16850784806E+02 0.17976426004E+02
 0.19381316736E+02 0.21106543825E+02 0.23190862005E+02 0.25662256082E+02 0.28527436380E+02
 0.31762766608E+02 0.35309457112E+02 0.39073791882E+02 0.42931363677E+02 0.46734007686E+02
 0.50319072550E+02 0.53521306178E+02 0.56186722830E+02 0.58185925155E+02 0.59423571785E+02
 0.59842428305E+02 0.59423571785E+02 0.58185925155E+02 0.56186722830E+02 0.53521306178E+02
 0.50319072550E+02 0.46734007686E+02 0.42931363677E+02 0.39073791882E+02 0.35309457112E+02
 0.31762766608E+02 0.28527436380E+02 0.25662256082E+02 0.23190862005E+02 0.21106543825E+02
 0.19381316736E+02 0.17976426004E+02 0.16850784806E+02 0.15965245310E+02 0.15283129480E+02
 0.14769298670E+02 0.14390028775E+02 0.14114416922E+02 0.13916407699E+02 0.13776025289E+02
 0.13679137641E+02 0.13616192601E+02 0.13580904734E+02 0.10717337117E+02 0.10743863737E+02
 0.10824678692E+02 0.10963473155E+02 0.11166632433E+02 0.11444188827E+02 0.11811410245E+02
 0.12290157265E+02 0.12908988445E+02 0.13701878769E+02 0.14706722124E+02 0.15965245310E+02
 0.17524757435E+02 0.19439901505E+02 0.21771082568E+02 0.24577087400E+02 0.27902393121E+02
 0.31762766608E+02 0.36133721430E+02 0.40944600735E+02 0.46078062110E+02 0.51373075189E+02
 0.56630543543E+02 0.61623089492E+02 0.66111348008E+02 0.69866231864E+02 0.72678017752E+02
 0.74396429133E+02 0.74971605250E+02 0.74396429133E+02 0.72678017752E+02 0.69866231864E+02
 0.66111348008E+02 0.61623089492E+02 0.56630543543E+02 0.51373075189E+02 0.46078062110E+02
 0.40944600735E+02 0.36133721430E+02 0.31762766608E+02 0.27902393121E+02 0.24577087400E+02
 0.21771082568E+02 0.19439901505E+02 0.17524757435E+02 0.15965245310E+02 0.14706722124E+02
 0.13701878769E+02 0.12908988445E+02 0.12290157265E+02 0.11811410245E+02 0.11444188827E+02
 0.11166632433E+02 0.10963473155E+02 0.10824678692E+02 0.10743863737E+02 0.85507405878E+01
 0.85862832757E+01 0.86943194030E+01 0.88791588525E+01 0.91485177230E+01 0.95147644993E+01
 0.99965888886E+01 0.10620090022E+02 0.11418490163E+02 0.12430909461E+02 0.13701878769E+02
 0.15283129480E+02 0.17237185795E+02 0.19639592414E+02 0.22575531541E+02 0.26128607159E+02
 0.30363743645E+02 0.35309457112E+02 0.40944600735E+02 0.47191197469E+02 0.53911189306E+02
 0.60904476593E+02 0.67909511222E+02 0.74608111799E+02 0.80518056395E+02 0.85161227491E+02
 0.88367055591E+02 0.90196935224E+02 0.90785543736E+02 0.90196935224E+02 0.88367055591E+02
 0.85161227491E+02 0.80518056395E+02 0.74608111799E+02 0.67909511222E+02 0.60904476593E+02
 0.53911189306E+02 0.47191197469E+02 0.40944600735E+02 0.35309457112E+02 0.30363743645E+02
 0.26128607159E+02 0.22575531541E+02 0.19639592414E+02 0.17237185795E+02 0.15283129480E+02
 0.13701878769E+02 0.12430909461E+02 0.11418490163E+02 0.10620090022E+02 0.99965888886E+01
 0.95147644993E+01 0.91485177230E+01 0.88791588525E+01 0.86943194030E+01 0.85862832757E+01
 0.69032154551E+01 0.69438490592E+01 0.70674345567E+01 0.72792364557E+01 0.75889134251E+01
 0.80120353083E+01 0.85716812219E+01 0.92990690930E+01 0.10232887324E+02 0.11418490163E+02
 0.12908988445E+02 0.14769298670E+02 0.17081462279E+02 0.19946738779E+02 0.23479664782E+02
 0.27792687238E+02 0.32975209406E+02 0.39073791882E+02 0.46078062110E+02 0.53911189306E+02
 0.62419830214E+02 0.71361119481E+02 0.80324306245E+02 0.88385756824E+02 0.94728525920E+02
 0.99061984959E+02 0.10158723781E+03 0.10278619440E+03 0.10312299834E+03 0.10278619440E+03
 0.10158723781E+03 0.99061984959E+02 0.94728525920E+02 0.88385756824E+02 0.80324306245E+02
 0.71361119481E+02 0.62419830214E+02 0.53911189306E+02 0.46078062110E+02 0.39073791882E+02
 0.32975209406E+02 0.27792687238E+02 0.23479664782E+02 0.19946738779E+02 0.17081462279E+02
 0.14769298670E+02 0.12908988445E+02 0.11418490163E+02 0.10232887324E+02 0.92990690930E+01
 0.85716812219E+01 0.80120353083E+01 0.75889134251E+01 0.72792364557E+01 0.70674345567E+01
 0.69438490592E+01 0.56550768912E+01 0.56983939740E+01 0.58303389078E+01 0.60572233773E+01
 0.63907852867E+01 0.68499308342E+01 0.74621819468E+01 0.82638266403E+01 0.92990690930E+01
 0.10620090022E+02 0.12290157265E+02 0.14390028775E+02 0.17024611654E+02 0.20324262460E+02
 0.24435832674E+02 0.29503431941E+02 0.35644863170E+02 0.42931363677E+02 0.51373075189E+02
 0.60904476593E+02 0.71361119481E+02 0.82326529280E+02 0.92482746527E+02 0.10045756338E+03
 0.10554581896E+03 0.10786442660E+03 0.10823058015E+03 0.10778910324E+03 0.10751506061E+03
 0.10778910324E+03 0.10823058015E+03 0.10786442660E+03 0.10554581896E+03 0.10045756338E+03
 0.92482746527E+02 0.82326529280E+02 0.71361119481E+02 0.60904476593E+02 0.51373075189E+02
 0.42931363677E+02 0.35644863170E+02 0.29503431941E+02 0.24435832674E+02 0.20324262460E+02
 0.17024611654E+02 0.14390028775E+02 0.12290157265E+02 0.10620090022E+02 0.92990690930E+01
 0.82638266403E+01 0.74621819468E+01 0.68499308342E+01 0.63907852867E+01 0.60572233773E+01
 0.58303389078E+01 0.56983939740E+01 0.47190356975E+01 0.47635859862E+01 0.48995097667E+01
 0.51340715795E+01 0.54809096580E+01 0.59619656901E+01 0.66087647112E+01 0.74621819468E+01
 0.85716812219E+01 0.99965888886E+01 0.11811410245E+02 0.14114416922E+02 0.17035163053E+02
 0.20734501696E+02 0.25392583194E+02 0.31186578892E+02 0.38266124435E+02 0.46734007686E+02
 0.56630543543E+02 0.67909511222E+02 0.80324306245E+02 0.92482746527E+02 0.10232795597E+03
 0.10837623769E+03 0.11017439626E+03 0.10845554293E+03 0.10491834920E+03 0.10164617763E+03
 0.10033771710E+03 0.10164617763E+03 0.10491834920E+03 0.10845554293E+03 0.11017439626E+03
 0.10837623769E+03 0.10232795597E+03 0.92482746527E+02 0.80324306245E+02 0.67909511222E+02
 0.56630543543E+02 0.46734007686E+02 0.38266124435E+02 0.31186578892E+02 0.25392583194E+02
 0.20734501696E+02 0.17035163053E+02 0.14114416922E+02 0.11811410245E+02 0.99965888886E+01
 0.85716812219E+01 0.74621819468E+01 0.66087647112E+01 0.59619656901E+01 0.54809096580E+01
 0.51340715795E+01 0.48995097667E+01 0.47635859862E+01 0.40278067065E+01 0.40727174418E+01
 0.42099362184E+01 0.44474930526E+01 0.48006142986E+01 0.52938043041E+01 0.59619656901E+01
 0.68499308342E+01 0.80120353083E+01 0.95147644993E+01 0.11444188827E+02 0.13916407699E+02
 0.17085514594E+02 0.21142119598E+02 0.26298653892E+02 0.32765192111E+02 0.40725443171E+02
 0.50319072550E+02 0.61623089492E+02 0.74608111799E+02 0.88385756824E+02 0.10045756338E+03
 0.10837623769E+03 0.11060725153E+03 0.10706105100E+03 0.99271472645E+02 0.90072865260E+02
 0.82765397064E+02 0.79992702380E+02 0.82765397064E+02 0.90072865260E+02 0.99271472645E+02
 0.10706105100E+03 0.11060725153E+03 0.10837623769E+03 0.10045756338E+03 0.88385756824E+02
 0.74608111799E+02 0.61623089492E+02 0.50319072550E+02 0.40725443171E+02 0.32765192111E+02
 0.26298653892E+02 0.21142119598E+02 0.17085514594E+02 0.13916407699E+02 0.11444188827E+02
 0.95147644993E+01 0.80120353083E+01 0.68499308342E+01 0.59619656901E+01 0.52938043041E+01
 0.48006142986E+01 0.44474930526E+01 0.42099362184E+01 0.40727174418E+01 0.35274492622E+01
 0.35722137317E+01 0.37091384474E+01 0.39468301932E+01 0.43017945611E+01 0.48006142986E+01
 0.54809096580E+01 0.63907852867E+01 0.75889134251E+01 0.91485177230E+01 0.11166632433E+02
 0.13776025289E+02 0.17153362086E+02 0.21516300633E+02 0.27106690906E+02 0.34165618601E+02
 0.42910996519E+02 0.53521306178E+02 0.66111348008E+02 0.80518056395E+02 0.94728525920E+02
 0.10554581896E+03 0.11017439626E+03 0.10706105100E+03 0.96543545006E+02 0.81079871136E+02
 0.64829561809E+02 0.52530013628E+02 0.47950727387E+02 0.52530013628E+02 0.64829561809E+02
 0.81079871136E+02 0.96543545006E+02 0.10706105100E+03 0.11017439626E+03 0.10554581896E+03
 0.94728525920E+02 0.80518056395E+02 0.66111348008E+02 0.53521306178E+02 0.42910996519E+02
 0.34165618601E+02 0.27106690906E+02 0.21516300633E+02 0.17153362086E+02 0.13776025289E+02
 0.11166632433E+02 0.91485177230E+01 0.75889134251E+01 0.63907852867E+01 0.54809096580E+01
 0.48006142986E+01 0.43017945611E+01 0.39468301932E+01 0.37091384474E+01 0.35722137317E+01
 0.31756936463E+01 0.32200860024E+01 0.33559794108E+01 0.35923926277E+01 0.39468301932E+01
 0.44474930526E+01 0.51340715795E+01 0.60572233773E+01 0.72792364557E+01 0.88791588525E+01
 0.10963473155E+02 0.13679137641E+02 0.17221852048E+02 0.21831980299E+02 0.27776291637E+02
 0.35323056803E+02 0.44721619554E+02 0.56186722830E+02 0.69866231864E+02 0.85161227491E+02
 0.99061984959E+02 0.10786442660E+03 0.10845554293E+03 0.99271472645E+02 0.81079871136E+02
 0.57284281012E+02 0.33423504360E+02 0.15749347007E+02 0.92266293040E+01 0.15749347007E+02
 0.33423504360E+02 0.57284281012E+02 0.81079871136E+02 0.99271472645E+02 0.10845554293E+03
 0.10786442660E+03 0.99061984959E+02 0.85161227491E+02 0.69866231864E+02 0.56186722830E+02
 0.44721619554E+02 0.35323056803E+02 0.27776291637E+02 0.21831980299E+02 0.17221852048E+02
 0.13679137641E+02 0.10963473155E+02 0.88791588525E+01 0.72792364557E+01 0.60572233773E+01
 0.51340715795E+01 0.44474930526E+01 0.39468301932E+01 0.35923926277E+01 0.33559794108E+01
 0.32200860024E+01 0.29422675238E+01 0.29862883934E+01 0.31211010560E+01 0.33559794108E+01
 0.37091384474E+01 0.42099362184E+01 0.48995097667E+01 0.58303389078E+01 0.70674345567E+01
 0.86943194030E+01 0.10824678692E+02 0.13616192601E+02 0.17278889577E+02 0.22070243033E+02
 0.28276018827E+02 0.36185828480E+02 0.46074458431E+02 0.58185925155E+02 0.72678017752E+02
 0.88367055591E+02 0.10158723781E+03 0.10823058015E+03 0.10491834920E+03 0.90072865260E+02
 0.64829561809E+02 0.33423504360E+02 0.26262218094E+01 -.19943636475E+02 -.28236444965E+02
 -.19943636475E+02 0.26262218094E+01 0.33423504360E+02 0.64829561809E+02 0.90072865260E+02
 0.10491834920E+03 0.10823058015E+03 0.10158723781E+03 0.88367055591E+02 0.72678017752E+02
 0.58185925155E+02 0.46074458431E+02 0.36185828480E+02 0.28276018827E+02 0.22070243033E+02
 0.17278889577E+02 0.13616192601E+02 0.10824678692E+02 0.86943194030E+01 0.70674345567E+01
 0.58303389078E+01 0.48995097667E+01 0.42099362184E+01 0.37091384474E+01 0.33559794108E+01
 0.31211010560E+01 0.29862883934E+01 0.28084140395E+01 0.28521951359E+01 0.29862883934E+01
 0.32200860024E+01 0.35722137317E+01 0.40727174418E+01 0.47635859862E+01 0.56983939740E+01
 0.69438490592E+01 0.85862832757E+01 0.10743863737E+02 0.13580904734E+02 0.17316300642E+02
 0.22218147759E+02 0.28584130060E+02 0.36717528920E+02 0.46909710196E+02 0.59423571785E+02
 0.74396429133E+02 0.90196935224E+02 0.10278619440E+03 0.10778910324E+03 0.10164617763E+03
 0.82765397064E+02 0.52530013628E+02 0.15749347007E+02 -.19943636475E+02 -.45968902288E+02
 -.55511190239E+02 -.45968902288E+02 -.19943636475E+02 0.15749347007E+02 0.52530013628E+02
 0.82765397064E+02 0.10164617763E+03 0.10778910324E+03 0.10278619440E+03 0.90196935224E+02
 0.74396429133E+02 0.59423571785E+02 0.46909710196E+02 0.36717528920E+02 0.28584130060E+02
 0.22218147759E+02 0.17316300642E+02 0.13580904734E+02 0.10743863737E+02 0.85862832757E+01
 0.69438490592E+01 0.56983939740E+01 0.47635859862E+01 0.40727174418E+01 0.35722137317E+01
 0.32200860024E+01 0.29862883934E+01 0.28521951359E+01 0.27647111469E+01 0.28084140395E+01
 0.29422675238E+01 0.31756936463E+01 0.35274492622E+01 0.40278067065E+01 0.47190356975E+01
 0.56550768912E+01 0.69032154551E+01 0.85507405878E+01 0.10717337117E+02 0.13569559694E+02
 0.17329299658E+02 0.22268254075E+02 0.28688171401E+02 0.36897044639E+02 0.47191996380E+02
 0.59842428305E+02 0.74971605250E+02 0.90785543736E+02 0.10312299834E+03 0.10751506061E+03
 0.10033771710E+03 0.79992702380E+02 0.47950727387E+02 0.92266293040E+01 -.28236444965E+02
 -.55511190239E+02 -.65505336674E+02 -.55511190239E+02 -.28236444965E+02 0.92266293040E+01
 0.47950727387E+02 0.79992702380E+02 0.10033771710E+03 0.10751506061E+03 0.10312299834E+03
 0.90785543736E+02 0.74971605250E+02 0.59842428305E+02 0.47191996380E+02 0.36897044639E+02
 0.28688171401E+02 0.22268254075E+02 0.17329299658E+02 0.13569559694E+02 0.10717337117E+02
 0.85507405878E+01 0.69032154551E+01 0.56550768912E+01 0.47190356975E+01 0.40278067065E+01