   8   8   0   0
  0.2082684E+02  0.5502640E-09  0.5502640E-09  0.5502640E-09  0.1000000E-15
  1.000000000000000E-004
  CAR 
 GaAs                                    
      8.85194812    -10.96392757  301      2.71315496      1.00000000
    -10.964  0.0000E+00  0.0000E+00
    -10.898  0.0000E+00  0.0000E+00
    -10.832  0.0000E+00  0.0000E+00
    -10.766  0.0000E+00  0.0000E+00
    -10.700  0.0000E+00  0.0000E+00
    -10.634  0.0000E+00  0.0000E+00
    -10.568  0.0000E+00  0.0000E+00
    -10.502  0.0000E+00  0.0000E+00
    -10.436  0.0000E+00  0.0000E+00
    -10.369  0.0000E+00  0.0000E+00
    -10.303  0.0000E+00  0.0000E+00
    -10.237  0.0000E+00  0.0000E+00
    -10.171  0.0000E+00  0.0000E+00
    -10.105  0.0000E+00  0.0000E+00
    -10.039  0.0000E+00  0.0000E+00
     -9.973  0.0000E+00  0.0000E+00
     -9.907  0.7204E-03  0.1365E-04
     -9.841  0.3367E-02  0.1379E-03
     -9.775  0.7130E-02  0.4896E-03
     -9.709  0.9137E-02  0.1038E-02
     -9.643  0.9545E-02  0.1657E-02
     -9.577  0.1046E-01  0.2313E-02
     -9.511  0.1207E-01  0.3055E-02
     -9.445  0.1388E-01  0.3911E-02
     -9.379  0.1859E-01  0.4926E-02
     -9.313  0.2635E-01  0.6424E-02
     -9.247  0.2758E-01  0.8297E-02
     -9.180  0.2301E-01  0.9962E-02
     -9.114  0.2166E-01  0.1141E-01
     -9.048  0.2138E-01  0.1283E-01
     -8.982  0.2078E-01  0.1423E-01
     -8.916  0.1987E-01  0.1557E-01
     -8.850  0.2193E-01  0.1728E-01
     -8.784  0.1157E-01  0.1832E-01
     -8.718  0.1698E-01  0.1914E-01
     -8.652  0.3139E-01  0.2070E-01
     -8.586  0.3443E-01  0.2289E-01
     -8.520  0.3808E-01  0.2524E-01
     -8.454  0.4049E-01  0.2776E-01
     -8.388  0.4425E-01  0.3056E-01
     -8.322  0.1134E+00  0.3671E-01
     -8.256  0.4599E-01  0.4077E-01
     -8.190  0.4192E-01  0.4343E-01
     -8.124  0.4584E-01  0.4632E-01
     -8.058  0.6656E-01  0.4990E-01
     -7.992  0.7886E-01  0.5469E-01
     -7.925  0.8676E-01  0.5993E-01
     -7.859  0.8232E-01  0.6578E-01
     -7.793  0.6062E-01  0.7022E-01
     -7.727  0.5484E-01  0.7403E-01
     -7.661  0.4703E-01  0.7748E-01
     -7.595  0.1114E-01  0.8000E-01
     -7.529  0.0000E+00  0.8000E-01
     -7.463  0.0000E+00  0.8000E-01
     -7.397  0.0000E+00  0.8000E-01
     -7.331  0.0000E+00  0.8000E-01
     -7.265  0.0000E+00  0.8000E-01
     -7.199  0.0000E+00  0.8000E-01
     -7.133  0.0000E+00  0.8000E-01
     -7.067  0.0000E+00  0.8000E-01
     -7.001  0.0000E+00  0.8000E-01
     -6.935  0.0000E+00  0.8000E-01
     -6.869  0.0000E+00  0.8000E-01
     -6.803  0.0000E+00  0.8000E-01
     -6.737  0.0000E+00  0.8000E-01
     -6.670  0.0000E+00  0.8000E-01
     -6.604  0.0000E+00  0.8000E-01
     -6.538  0.0000E+00  0.8000E-01
     -6.472  0.0000E+00  0.8000E-01
     -6.406  0.0000E+00  0.8000E-01
     -6.340  0.0000E+00  0.8000E-01
     -6.274  0.0000E+00  0.8000E-01
     -6.208  0.0000E+00  0.8000E-01
     -6.142  0.0000E+00  0.8000E-01
     -6.076  0.0000E+00  0.8000E-01
     -6.010  0.0000E+00  0.8000E-01
     -5.944  0.0000E+00  0.8000E-01
     -5.878  0.0000E+00  0.8000E-01
     -5.812  0.0000E+00  0.8000E-01
     -5.746  0.0000E+00  0.8000E-01
     -5.680  0.0000E+00  0.8000E-01
     -5.614  0.0000E+00  0.8000E-01
     -5.548  0.0000E+00  0.8000E-01
     -5.482  0.0000E+00  0.8000E-01
     -5.415  0.0000E+00  0.8000E-01
     -5.349  0.0000E+00  0.8000E-01
     -5.283  0.0000E+00  0.8000E-01
     -5.217  0.0000E+00  0.8000E-01
     -5.151  0.0000E+00  0.8000E-01
     -5.085  0.0000E+00  0.8000E-01
     -5.019  0.0000E+00  0.8000E-01
     -4.953  0.0000E+00  0.8000E-01
     -4.887  0.0000E+00  0.8000E-01
     -4.821  0.0000E+00  0.8000E-01
     -4.755  0.0000E+00  0.8000E-01
     -4.689  0.0000E+00  0.8000E-01
     -4.623  0.0000E+00  0.8000E-01
     -4.557  0.0000E+00  0.8000E-01
     -4.491  0.0000E+00  0.8000E-01
     -4.425  0.0000E+00  0.8000E-01
     -4.359  0.0000E+00  0.8000E-01
     -4.293  0.0000E+00  0.8000E-01
     -4.227  0.0000E+00  0.8000E-01
     -4.160  0.0000E+00  0.8000E-01
     -4.094  0.0000E+00  0.8000E-01
     -4.028  0.2873E-02  0.8003E-01
     -3.962  0.1722E-01  0.8075E-01
     -3.896  0.2432E-01  0.8204E-01
     -3.830  0.4836E-01  0.8439E-01
     -3.764  0.9623E-01  0.8901E-01
     -3.698  0.1516E+00  0.9676E-01
     -3.632  0.1230E+00  0.1051E+00
     -3.566  0.7513E-01  0.1112E+00
     -3.500  0.6079E-01  0.1154E+00
     -3.434  0.3592E-01  0.1185E+00
     -3.368  0.3753E-01  0.1210E+00
     -3.302  0.2933E-01  0.1231E+00
     -3.236  0.2862E-01  0.1250E+00
     -3.170  0.2797E-01  0.1269E+00
     -3.104  0.2737E-01  0.1287E+00
     -3.038  0.2682E-01  0.1305E+00
     -2.972  0.2633E-01  0.1322E+00
     -2.905  0.2076E-01  0.1337E+00
     -2.839  0.2028E-01  0.1350E+00
     -2.773  0.1972E-01  0.1363E+00
     -2.707  0.1885E-01  0.1376E+00
     -2.641  0.1803E-01  0.1388E+00
     -2.575  0.1696E-01  0.1400E+00
     -2.509  0.1577E-01  0.1411E+00
     -2.443  0.1446E-01  0.1421E+00
     -2.377  0.1359E-01  0.1430E+00
     -2.311  0.1178E-01  0.1438E+00
     -2.245  0.1021E-01  0.1446E+00
     -2.179  0.8868E-02  0.1452E+00
     -2.113  0.8932E-02  0.1458E+00
     -2.047  0.7518E-02  0.1463E+00
     -1.981  0.7627E-02  0.1468E+00
     -1.915  0.7721E-02  0.1473E+00
     -1.849  0.7800E-02  0.1478E+00
     -1.783  0.7863E-02  0.1483E+00
     -1.717  0.7940E-02  0.1489E+00
     -1.650  0.8105E-02  0.1494E+00
     -1.584  0.8317E-02  0.1499E+00
     -1.518  0.8574E-02  0.1505E+00
     -1.452  0.8876E-02  0.1511E+00
     -1.386  0.9225E-02  0.1517E+00
     -1.320  0.9619E-02  0.1523E+00
     -1.254  0.1006E-01  0.1529E+00
     -1.188  0.1055E-01  0.1536E+00
     -1.122  0.2258E-01  0.1544E+00
     -1.056  0.3109E-01  0.1564E+00
     -0.990  0.3291E-01  0.1585E+00
     -0.924  0.3508E-01  0.1607E+00
     -0.858  0.3615E-01  0.1631E+00
     -0.792  0.6955E-01  0.1671E+00
     -0.726  0.6333E-01  0.1716E+00
     -0.660  0.5807E-01  0.1756E+00
     -0.594  0.5011E-01  0.1792E+00
     -0.528  0.4962E-01  0.1825E+00
     -0.462  0.4518E-01  0.1857E+00
     -0.395  0.4507E-01  0.1886E+00
     -0.329  0.4516E-01  0.1916E+00
     -0.263  0.5070E-01  0.1947E+00
     -0.197  0.4892E-01  0.1983E+00
     -0.131  0.4474E-01  0.2012E+00
     -0.065  0.4548E-01  0.2042E+00
      0.001  0.5012E-01  0.2072E+00
      0.067  0.5601E-01  0.2107E+00
      0.133  0.7359E-01  0.2151E+00
      0.199  0.7497E-01  0.2202E+00
      0.265  0.7540E-01  0.2255E+00
      0.331  0.6912E-01  0.2303E+00
      0.397  0.6538E-01  0.2347E+00
      0.463  0.6185E-01  0.2389E+00
      0.529  0.5471E-01  0.2427E+00
      0.595  0.5003E-01  0.2462E+00
      0.661  0.4656E-01  0.2494E+00
      0.727  0.4950E-01  0.2525E+00
      0.793  0.5496E-01  0.2559E+00
      0.860  0.6513E-01  0.2601E+00
      0.926  0.5336E-01  0.2636E+00
      0.992  0.5682E-01  0.2672E+00
      1.058  0.7035E-01  0.2713E+00
      1.124  0.9346E-01  0.2764E+00
      1.190  0.5937E-01  0.2815E+00
      1.256  0.5189E-01  0.2852E+00
      1.322  0.4426E-01  0.2884E+00
      1.388  0.3467E-01  0.2913E+00
      1.454  0.2377E-01  0.2930E+00
      1.520  0.2269E-01  0.2945E+00
      1.586  0.3116E-01  0.2962E+00
      1.652  0.4874E-01  0.2989E+00
      1.718  0.5156E-01  0.3021E+00
      1.784  0.5763E-01  0.3057E+00
      1.850  0.5847E-01  0.3095E+00
      1.916  0.3669E-01  0.3127E+00
      1.982  0.1758E-01  0.3141E+00
      2.048  0.1531E-01  0.3152E+00
      2.115  0.1309E-01  0.3161E+00
      2.181  0.1090E-01  0.3169E+00
      2.247  0.9412E-02  0.3176E+00
      2.313  0.1049E-01  0.3183E+00
      2.379  0.9800E-02  0.3189E+00
      2.445  0.7329E-02  0.3195E+00
      2.511  0.3081E-02  0.3199E+00
      2.577  0.8864E-03  0.3200E+00
      2.643  0.1709E-03  0.3200E+00
      2.709  0.0000E+00  0.3200E+00
      2.775  0.0000E+00  0.3200E+00
      2.841  0.0000E+00  0.3200E+00
      2.907  0.0000E+00  0.3200E+00
      2.973  0.0000E+00  0.3200E+00
      3.039  0.0000E+00  0.3200E+00
      3.105  0.0000E+00  0.3200E+00
      3.171  0.0000E+00  0.3200E+00
      3.237  0.2536E-06  0.3200E+00
      3.304  0.9941E-05  0.3200E+00
      3.370  0.3367E-04  0.3200E+00
      3.436  0.7143E-04  0.3200E+00
      3.502  0.1232E-03  0.3200E+00
      3.568  0.1891E-03  0.3200E+00
      3.634  0.2690E-03  0.3200E+00
      3.700  0.3629E-03  0.3201E+00
      3.766  0.4708E-03  0.3201E+00
      3.832  0.4205E-02  0.3203E+00
      3.898  0.2154E-02  0.3204E+00
      3.964  0.2565E-02  0.3206E+00
      4.030  0.3017E-02  0.3208E+00
      4.096  0.3510E-02  0.3210E+00
      4.162  0.4202E-02  0.3213E+00
      4.228  0.5930E-02  0.3216E+00
      4.294  0.8702E-02  0.3221E+00
      4.360  0.1169E-01  0.3227E+00
      4.426  0.1383E-01  0.3236E+00
      4.492  0.1595E-01  0.3246E+00
      4.559  0.3002E-01  0.3263E+00
      4.625  0.2724E-01  0.3280E+00
      4.691  0.3634E-01  0.3299E+00
      4.757  0.5920E-01  0.3332E+00
      4.823  0.5826E-01  0.3368E+00
      4.889  0.6948E-01  0.3411E+00
      4.955  0.6908E-01  0.3458E+00
      5.021  0.6738E-01  0.3502E+00
      5.087  0.7371E-01  0.3548E+00
      5.153  0.9812E-01  0.3606E+00
      5.219  0.7097E-01  0.3659E+00
      5.285  0.6173E-01  0.3701E+00
      5.351  0.6143E-01  0.3742E+00
      5.417  0.7199E-01  0.3784E+00
      5.483  0.6496E-01  0.3831E+00
      5.549  0.9327E-01  0.3871E+00
      5.615  0.5613E-01  0.3922E+00
      5.681  0.3909E-01  0.3950E+00
      5.747  0.3712E-01  0.3975E+00
      5.814  0.3540E-01  0.3999E+00
      5.880  0.3393E-01  0.4022E+00
      5.946  0.3272E-01  0.4044E+00
      6.012  0.2897E-01  0.4065E+00
      6.078  0.1737E-01  0.4083E+00
      6.144  0.1894E-01  0.4094E+00
      6.210  0.2049E-01  0.4108E+00
      6.276  0.2203E-01  0.4122E+00
      6.342  0.2356E-01  0.4137E+00
      6.408  0.2508E-01  0.4153E+00
      6.474  0.2673E-01  0.4170E+00
      6.540  0.2937E-01  0.4188E+00
      6.606  0.5582E-01  0.4213E+00
      6.672  0.4810E-01  0.4246E+00
      6.738  0.5145E-01  0.4278E+00
      6.804  0.5846E-01  0.4314E+00
      6.870  0.7255E-01  0.4357E+00
      6.936  0.9055E-01  0.4408E+00
      7.002  0.6897E-01  0.4461E+00
      7.069  0.5110E-01  0.4500E+00
      7.135  0.4175E-01  0.4532E+00
      7.201  0.2730E-01  0.4550E+00
      7.267  0.3082E-01  0.4569E+00
      7.333  0.3497E-01  0.4591E+00
      7.399  0.5611E-01  0.4618E+00
      7.465  0.1141E+00  0.4668E+00
      7.531  0.6208E-01  0.4721E+00
      7.597  0.4037E-01  0.4751E+00
      7.663  0.2788E-01  0.4774E+00
      7.729  0.1674E-01  0.4788E+00
      7.795  0.9680E-02  0.4796E+00
      7.861  0.0000E+00  0.4800E+00
      7.927  0.0000E+00  0.4800E+00
      7.993  0.0000E+00  0.4800E+00
      8.059  0.0000E+00  0.4800E+00
      8.125  0.0000E+00  0.4800E+00
      8.191  0.0000E+00  0.4800E+00
      8.257  0.0000E+00  0.4800E+00
      8.324  0.0000E+00  0.4800E+00
      8.390  0.0000E+00  0.4800E+00
      8.456  0.0000E+00  0.4800E+00
      8.522  0.0000E+00  0.4800E+00
      8.588  0.0000E+00  0.4800E+00
      8.654  0.0000E+00  0.4800E+00
      8.720  0.0000E+00  0.4800E+00
      8.786  0.0000E+00  0.4800E+00
      8.852  0.0000E+00  0.4800E+00
