 running    8 mpi-ranks, on    1 nodes
 distrk:  each k-point on    8 cores,    1 groups
 distr:  one band on    1 cores,    8 groups
 vasp.6.4.3 19Mar24 (build Aug 29 2024 15:27:20) complex                        
  
 POSCAR found type information on POSCAR AsGa
 POSCAR found :  2 types and       8 ions
 scaLAPACK will be used
 -----------------------------------------------------------------------------
|                                                                             |
|           W    W    AA    RRRRR   N    N  II  N    N   GGGG   !!!           |
|           W    W   A  A   R    R  NN   N  II  NN   N  G    G  !!!           |
|           W    W  A    A  R    R  N N  N  II  N N  N  G       !!!           |
|           W WW W  AAAAAA  RRRRR   N  N N  II  N  N N  G  GGG   !            |
|           WW  WW  A    A  R   R   N   NN  II  N   NN  G    G                |
|           W    W  A    A  R    R  N    N  II  N    N   GGGG   !!!           |
|                                                                             |
|     For optimal performance we recommend to set                             |
|       NCORE = 2 up to number-of-cores-per-socket                            |
|     NCORE specifies how many cores store one orbital (NPAR=cpu/NCORE).      |
|     This setting can greatly improve the performance of VASP for DFT.       |
|     The default, NCORE=1 might be grossly inefficient on modern             |
|     multi-core architectures or massively parallel machines. Do your        |
|     own testing! More info at https://www.vasp.at/wiki/index.php/NCORE      |
|     Unfortunately you need to use the default for GW and RPA                |
|     calculations (for HF NCORE is supported but not extensively tested      |
|     yet).                                                                   |
|                                                                             |
 -----------------------------------------------------------------------------

 LDA part: xc-table for (Slater+PW92), standard interpolation
 found WAVECAR, reading the header
 POSCAR, INCAR and KPOINTS ok, starting setup
 FFT: planning ... GRIDC
 FFT: planning ... GRID_SOFT
 FFT: planning ... GRID
 reading WAVECAR
 the WAVECAR file was read successfully
 initial charge from wavefunction
 entering main loop
       N       E                     dE             d eps       ncg     rms          rms(c)
DAV:   1    -0.325893086012E+02   -0.32589E+02   -0.75425E+00   544   0.117E+01    0.528E+00
DAV:   2    -0.323990554323E+02    0.19025E+00   -0.38757E-01   496   0.286E+00    0.317E+00
DAV:   3    -0.323408903101E+02    0.58165E-01   -0.30976E-01   512   0.202E+00    0.319E-01
DAV:   4    -0.323357244572E+02    0.51659E-02   -0.23270E-02   504   0.682E-01    0.213E-01
DAV:   5    -0.323353283272E+02    0.39613E-03   -0.20480E-03   560   0.181E-01    0.582E-02
DAV:   6    -0.323353519957E+02   -0.23668E-04   -0.42759E-05   256   0.308E-02
   1 F= -.28695608E+02 E0= -.28695608E+02  d E =-.286956E+02
 curvature:   0.00 expect dE= 0.000E+00 dE for cont linesearch  0.000E+00
 trial: gam= 0.00000 g(F)=  0.205E-60 g(S)=  0.278E+00 ort = 0.000E+00 (trialstep = 0.100E+01)
 search vector abs. value=  0.278E+00
 bond charge predicted
       N       E                     dE             d eps       ncg     rms          rms(c)
DAV:   1    -0.327188642115E+02   -0.38354E+00   -0.95545E-01   544   0.418E+00    0.104E+00
DAV:   2    -0.326861033894E+02    0.32761E-01   -0.56250E-02   504   0.106E+00    0.541E-01
DAV:   3    -0.326748924137E+02    0.11211E-01   -0.39604E-02   528   0.727E-01    0.161E-01
DAV:   4    -0.326744740157E+02    0.41840E-03   -0.15897E-03   512   0.190E-01    0.122E-01
DAV:   5    -0.326741881453E+02    0.28587E-03   -0.50748E-04   536   0.939E-02    0.551E-02
DAV:   6    -0.326741894422E+02   -0.12970E-05   -0.42265E-05   240   0.261E-02
   2 F= -.28917813E+02 E0= -.28917813E+02  d E =-.222204E+00
 trial-energy change:   -0.222204  1 .order   -0.224518   -0.277873   -0.171162
 step:   2.6040(harm=  2.6040)  dis= 0.00000  next Energy=   -29.057397 (dE=-0.362E+00)
 bond charge predicted
       N       E                     dE             d eps       ncg     rms          rms(c)
DAV:   1    -0.331264129483E+02   -0.45222E+00   -0.24305E+00   536   0.657E+00    0.163E+00
DAV:   2    -0.330431871408E+02    0.83226E-01   -0.14298E-01   504   0.169E+00    0.837E-01
DAV:   3    -0.330154213303E+02    0.27766E-01   -0.99847E-02   520   0.114E+00    0.240E-01
DAV:   4    -0.330142179811E+02    0.12033E-02   -0.43037E-03   528   0.309E-01    0.171E-01
DAV:   5    -0.330135598307E+02    0.65815E-03   -0.12161E-03   552   0.145E-01    0.857E-02
DAV:   6    -0.330135646202E+02   -0.47895E-05   -0.96032E-05   240   0.382E-02
   3 F= -.29064950E+02 E0= -.29064950E+02  d E =-.369342E+00
 curvature:  -1.30 expect dE=-0.166E-02 dE for cont linesearch -0.166E-02
 ZBRENT: extrapolating
 opt :   2.8020  next Energy=   -29.066812 (dE=-0.371E+00)
 bond charge predicted
       N       E                     dE             d eps       ncg     rms          rms(c)
DAV:   1    -0.330413883743E+02   -0.27829E-01   -0.37542E-02   520   0.821E-01    0.198E-01
DAV:   2    -0.330401512980E+02    0.12371E-02   -0.22297E-03   512   0.209E-01    0.103E-01
DAV:   3    -0.330397248265E+02    0.42647E-03   -0.14943E-03   520   0.139E-01    0.307E-02
DAV:   4    -0.330397054283E+02    0.19398E-04   -0.57860E-05   240   0.373E-02
   4 F= -.29066920E+02 E0= -.29066920E+02  d E =-.371311E+00
 curvature:  -1.46 expect dE=-0.254E-04 dE for cont linesearch -0.254E-04
 trial: gam=-0.00784 g(F)=  0.382E-59 g(S)=  0.174E-04 ort = 0.220E-02 (trialstep = 0.136E+01)
 search vector abs. value=  0.119E-08
 reached required accuracy - stopping structural energy minimisation
 writing wavefunctions
