<?xml version="1.0" encoding="ISO-8859-1"?>
<modeling>
 <generator>
  <i name="program" type="string">vasp </i>
  <i name="version" type="string">6.4.3  </i>
  <i name="subversion" type="string">19Mar24 (build Aug 29 2024 15:27:20) complex                          parallel </i>
  <i name="platform" type="string">LinuxIFC </i>
  <i name="date" type="string">2025 03 19 </i>
  <i name="time" type="string">11:21:38 </i>
 </generator>
 <incar>
  <i type="string" name="SYSTEM">GaAs</i>
  <i type="string" name="PREC">Normal</i>
  <i type="int" name="IBRION">     2</i>
  <i type="int" name="NFREE">     2</i>
  <i type="int" name="NSW">   100</i>
  <i type="int" name="ISIF">     3</i>
  <i name="ENCUT">    400.00000000</i>
  <i name="POTIM">      0.10000000</i>
  <i type="int" name="ISMEAR">    -5</i>
  <i name="SIGMA">      0.10000000</i>
  <i name="PSTRESS">     35.00000000</i>
 </incar>
 <primitive_cell>
  <structure name="primitive_cell" >
   <crystal>
    <varray name="basis" >
     <v>       2.75132003      -2.75132003       0.00000000 </v>
     <v>       2.75132003       0.00000000       2.75132003 </v>
     <v>       0.00000000      -2.75132003       2.75132003 </v>
    </varray>
    <i name="volume">     41.65367512 </i>
    <varray name="rec_basis" >
     <v>       0.18173095      -0.18173095      -0.18173095 </v>
     <v>       0.18173095       0.18173095       0.18173095 </v>
     <v>      -0.18173095      -0.18173095       0.18173095 </v>
    </varray>
   </crystal>
   <varray name="positions" >
    <v>       0.00000000       0.00000000       0.00000000 </v>
    <v>       0.75000000       0.75000000       0.75000000 </v>
   </varray>
  </structure>
  <varray name="primitive_index" >
   <v type="int" >        1 </v>
   <v type="int" >        5 </v>
  </varray>
 </primitive_cell>
 <kpoints>
  <generation param="Gamma">
   <v type="int" name="divisions">       5        5        5 </v>
   <v name="usershift">      0.00000000       0.00000000       0.00000000 </v>
   <v name="genvec1">      0.20000000       0.00000000       0.00000000 </v>
   <v name="genvec2">      0.00000000       0.20000000       0.00000000 </v>
   <v name="genvec3">      0.00000000       0.00000000       0.20000000 </v>
   <v name="shift">      0.00000000       0.00000000       0.00000000 </v>
  </generation>
  <varray name="kpointlist" >
   <v>       0.00000000       0.00000000       0.00000000 </v>
   <v>       0.20000000       0.00000000       0.00000000 </v>
   <v>       0.40000000       0.00000000       0.00000000 </v>
   <v>       0.20000000       0.20000000       0.00000000 </v>
   <v>       0.40000000       0.20000000       0.00000000 </v>
   <v>       0.40000000       0.40000000       0.00000000 </v>
   <v>       0.20000000       0.20000000       0.20000000 </v>
   <v>       0.40000000       0.20000000       0.20000000 </v>
   <v>       0.40000000       0.40000000       0.20000000 </v>
   <v>       0.40000000       0.40000000       0.40000000 </v>
  </varray>
  <varray name="weights" >
   <v>       0.00800000 </v>
   <v>       0.04800000 </v>
   <v>       0.04800000 </v>
   <v>       0.09600000 </v>
   <v>       0.19200000 </v>
   <v>       0.09600000 </v>
   <v>       0.06400000 </v>
   <v>       0.19200000 </v>
   <v>       0.19200000 </v>
   <v>       0.06400000 </v>
  </varray>
  <varray name="tetrahedronlist"  type="int" >
   <v type="int" >       12        7        8        8        9 </v>
   <v type="int" >       18        8        8        9        9 </v>
   <v type="int" >       24        8        9        9       10 </v>
   <v type="int" >       12        8        9        9        9 </v>
   <v type="int" >       24        9        9        9       10 </v>
   <v type="int" >       18        9        9       10       10 </v>
   <v type="int" >       24        4        5        7        8 </v>
   <v type="int" >       12        5        7        8        8 </v>
   <v type="int" >       24        5        8        8        9 </v>
   <v type="int" >       24        4        5        5        8 </v>
   <v type="int" >       24        5        5        6        8 </v>
   <v type="int" >       12        5        6        8        9 </v>
   <v type="int" >       12        9       10       10       10 </v>
   <v type="int" >       12        8        8        9       10 </v>
   <v type="int" >       12        8        9       10       10 </v>
   <v type="int" >       12        5        5        8        9 </v>
   <v type="int" >       12        5        8        9        9 </v>
   <v type="int" >       12        5        5        6        9 </v>
   <v type="int" >       12        5        6        6        9 </v>
   <v type="int" >       12        5        6        9        9 </v>
   <v type="int" >       12        5        6        8        8 </v>
   <v type="int" >       12        5        6        6        8 </v>
   <v type="int" >       12        6        8        8        9 </v>
   <v type="int" >       12        6        8        9        9 </v>
   <v type="int" >       12        6        6        8        9 </v>
   <v type="int" >       12        7        8        9       10 </v>
   <v type="int" >       12        4        5        8        9 </v>
   <v type="int" >       12        4        7        8        9 </v>
   <v type="int" >       12        4        5        6        9 </v>
   <v type="int" >       12        5        6        7        8 </v>
   <v type="int" >       12        4        5        6        7 </v>
   <v type="int" >       12        6        7        8        9 </v>
   <v type="int" >       12        2        4        7        8 </v>
   <v type="int" >       12        2        4        5        8 </v>
   <v type="int" >       12        2        3        5        8 </v>
   <v type="int" >       12        4        4        5        7 </v>
   <v type="int" >       12        2        4        4        5 </v>
   <v type="int" >       12        2        3        4        5 </v>
   <v type="int" >       12        3        4        5        5 </v>
   <v type="int" >       12        2        3        4        7 </v>
   <v type="int" >       12        3        4        5        7 </v>
   <v type="int" >       12        3        5        7        8 </v>
   <v type="int" >        6       10       10       10       10 </v>
   <v type="int" >       12        6        6        9        9 </v>
   <v type="int" >       12        6        9        9        9 </v>
   <v type="int" >       12        6        6        6        9 </v>
   <v type="int" >       12        3        5        8        8 </v>
   <v type="int" >       12        3        5        5        8 </v>
   <v type="int" >       12        3        3        5        8 </v>
   <v type="int" >       12        5        5        5        8 </v>
   <v type="int" >       12        3        5        5        5 </v>
   <v type="int" >        6        3        3        5        5 </v>
   <v type="int" >        6        5        5        8        8 </v>
   <v type="int" >       12        2        4        4        7 </v>
   <v type="int" >       12        2        2        4        4 </v>
   <v type="int" >       12        1        2        2        4 </v>
   <v type="int" >       12        1        2        4        7 </v>
  </varray>
  <i name="volumeweight">      0.00133333 </i>
 </kpoints>
 <parameters>
  <separator name="general" >
   <i type="string" name="SYSTEM">GaAs</i>
   <i type="logical" name="LCOMPAT"> F  </i>
  </separator>
  <separator name="electronic" >
   <i type="string" name="PREC">normal</i>
   <i name="ENMAX">    400.00000000</i>
   <i name="ENAUG">    462.75800000</i>
   <i name="EDIFF">      0.00010000</i>
   <i type="int" name="IALGO">    38</i>
   <i type="int" name="IWAVPR">    11</i>
   <i type="int" name="NBANDS">    24</i>
   <i type="int" name="NBANDSLOW">    -1</i>
   <i type="int" name="NBANDSHIGH">    -1</i>
   <i name="NELECT">     32.00000000</i>
   <i type="int" name="TURBO">     0</i>
   <i type="int" name="IRESTART">     0</i>
   <i type="int" name="NREBOOT">     0</i>
   <i type="int" name="NMIN">     0</i>
   <i name="EREF">      0.00000000</i>
   <separator name="electronic smearing" >
    <i type="int" name="ISMEAR">    -5</i>
    <i name="SIGMA">      0.10000000</i>
    <i name="KSPACING">      0.50000000</i>
    <i type="logical" name="KGAMMA"> T  </i>
    <i type="logical" name="KBLOWUP"> T  </i>
   </separator>
   <separator name="electronic projectors" >
    <i type="logical" name="LREAL"> F  </i>
    <v name="ROPT">      0.00000000      0.00000000</v>
    <i type="int" name="LMAXPAW">  -100</i>
    <i type="int" name="LMAXMIX">     2</i>
    <i type="logical" name="NLSPLINE"> F  </i>
   </separator>
   <separator name="electronic startup" >
    <i type="int" name="ISTART">     1</i>
    <i type="int" name="ICHARG">     0</i>
    <i type="int" name="INIWAV">     1</i>
   </separator>
   <separator name="electronic spin" >
    <i type="int" name="ISPIN">     1</i>
    <i type="logical" name="LNONCOLLINEAR"> F  </i>
    <v name="MAGMOM">      1.00000000      1.00000000      1.00000000      1.00000000      1.00000000      1.00000000      1.00000000      1.00000000</v>
    <i name="NUPDOWN">     -1.00000000</i>
    <i type="logical" name="LSORBIT"> F  </i>
    <v name="SAXIS">      0.00000000      0.00000000      1.00000000</v>
    <i type="logical" name="LSPIRAL"> F  </i>
    <v name="QSPIRAL">      0.00000000      0.00000000      0.00000000</v>
    <i type="logical" name="LZEROZ"> F  </i>
   </separator>
   <separator name="electronic exchange-correlation" >
    <i type="logical" name="LASPH"> F  </i>
   </separator>
   <separator name="electronic convergence" >
    <i type="int" name="NELM">    60</i>
    <i type="int" name="NELMDL">     0</i>
    <i type="int" name="NELMIN">     2</i>
    <i name="ENINI">    400.00000000</i>
    <separator name="electronic convergence detail" >
     <i type="logical" name="LDIAG"> T  </i>
     <i type="logical" name="LSUBROT"> F  </i>
     <i name="WEIMIN">      0.00100000</i>
     <i name="EBREAK">      0.00000104</i>
     <i name="DEPER">      0.30000000</i>
     <i type="int" name="NRMM">     4</i>
     <i name="TIME">      0.40000000</i>
    </separator>
   </separator>
   <separator name="electronic mixer" >
    <i name="AMIX">      0.40000000</i>
    <i name="BMIX">      1.00000000</i>
    <i name="AMIN">      0.10000000</i>
    <i name="AMIX_MAG">      1.60000000</i>
    <i name="BMIX_MAG">      1.00000000</i>
    <separator name="electronic mixer details" >
     <i type="int" name="IMIX">     4</i>
     <i type="logical" name="MIXFIRST"> F  </i>
     <i type="int" name="MAXMIX">   -45</i>
     <i name="WC">    100.00000000</i>
     <i type="int" name="INIMIX">     1</i>
     <i type="int" name="MIXPRE">     1</i>
     <i type="int" name="MREMOVE">     5</i>
    </separator>
   </separator>
   <separator name="electronic dipolcorrection" >
    <i type="logical" name="LDIPOL"> F  </i>
    <i type="logical" name="LMONO"> F  </i>
    <i type="int" name="IDIPOL">     0</i>
    <i name="EPSILON">      1.00000000</i>
    <v name="DIPOL">   -100.00000000   -100.00000000   -100.00000000</v>
    <i name="EFIELD">      0.00000000</i>
    <i type="logical" name="LVACPOTAV"> F  </i>
   </separator>
  </separator>
  <separator name="grids" >
   <i type="int" name="NGX">    28</i>
   <i type="int" name="NGY">    28</i>
   <i type="int" name="NGZ">    28</i>
   <i type="int" name="NGXF">    56</i>
   <i type="int" name="NGYF">    56</i>
   <i type="int" name="NGZF">    56</i>
   <i type="logical" name="ADDGRID"> F  </i>
  </separator>
  <separator name="ionic" >
   <i type="int" name="NSW">   100</i>
   <i type="int" name="IBRION">     2</i>
   <i type="int" name="MDALGO">     0</i>
   <i type="int" name="ISIF">     3</i>
   <i name="PSTRESS">     35.00000000</i>
   <i name="EDIFFG">      0.00100000</i>
   <i type="int" name="NFREE">     2</i>
   <i name="POTIM">      0.10000000</i>
   <i name="SMASS">     -3.00000000</i>
   <i name="SCALEE">      1.00000000</i>
  </separator>
  <separator name="ionic md" >
   <i name="TEBEG">      0.00010000</i>
   <i name="TEEND">      0.00010000</i>
   <i type="int" name="NBLOCK">     1</i>
   <i type="int" name="KBLOCK">   100</i>
   <i type="int" name="NPACO">   256</i>
   <i name="APACO">     10.00000000</i>
  </separator>
  <separator name="symmetry" >
   <i type="int" name="ISYM">     2</i>
   <i name="SYMPREC">      0.00001000</i>
  </separator>
  <separator name="dos" >
   <i type="int" name="LORBIT">     0</i>
   <v name="RWIGS">     -1.00000000     -1.00000000</v>
   <i type="int" name="NEDOS">   301</i>
   <i name="EMIN">     10.00000000</i>
   <i name="EMAX">    -10.00000000</i>
   <i name="EFERMI">      0.00000000</i>
  </separator>
  <separator name="writing" >
   <i type="int" name="NWRITE">     2</i>
   <i type="logical" name="LWAVE"> T  </i>
   <i type="logical" name="LDOWNSAMPLE"> F  </i>
   <i type="logical" name="LCHARG"> T  </i>
   <i type="logical" name="LPARD"> F  </i>
   <i type="logical" name="LVTOT"> F  </i>
   <i type="logical" name="LVHAR"> F  </i>
   <i type="logical" name="LELF"> F  </i>
   <i type="logical" name="LOPTICS"> F  </i>
   <v name="STM">      0.00000000      0.00000000      0.00000000      0.00000000      0.00000000      0.00000000      0.00000000</v>
  </separator>
  <separator name="performance" >
   <i type="int" name="NPAR">     8</i>
   <i type="int" name="NSIM">     4</i>
   <i type="int" name="NBLK">    -1</i>
   <i type="logical" name="LPLANE"> T  </i>
   <i type="logical" name="LSCALAPACK"> T  </i>
   <i type="logical" name="LSCAAWARE"> F  </i>
   <i type="logical" name="LSCALU"> F  </i>
   <i type="logical" name="LASYNC"> F  </i>
   <i type="logical" name="LORBITALREAL"> F  </i>
  </separator>
  <separator name="miscellaneous" >
   <i type="int" name="IDIOT">     3</i>
   <i type="int" name="PHON_NSTRUCT">    -1</i>
   <i type="logical" name="LMUSIC"> F  </i>
   <v name="POMASS">     74.92200000     69.72300000</v>
   <v name="DARWINR">      0.00000000      0.00000000</v>
   <v name="DARWINV">      1.00000000      1.00000000</v>
   <i type="logical" name="LCORR"> T  </i>
  </separator>
  <i type="logical" name="GGA_COMPAT"> T  </i>
  <i type="logical" name="LBERRY"> F  </i>
  <i type="int" name="ICORELEVEL">     0</i>
  <i type="logical" name="LDAU"> F  </i>
  <i type="int" name="I_CONSTRAINED_M">     0</i>
  <separator name="electronic exchange-correlation" >
   <i type="string" name="GGA    ">PE</i>
   <i type="string" name="XC_C">1</i>
   <i type="int" name="VOSKOWN">     0</i>
   <i type="logical" name="LHFCALC"> F  </i>
   <i type="string" name="PRECFOCK"></i>
   <i type="logical" name="LSYMGRAD"> F  </i>
   <i type="logical" name="LHFONE"> F  </i>
   <i type="logical" name="LRHFCALC"> F  </i>
   <i type="logical" name="LTHOMAS"> F  </i>
   <i type="logical" name="LMODELHF"> F  </i>
   <i type="logical" name="LFOCKACE"> F  </i>
   <i name="ENCUT4O">     -1.00000000</i>
   <i type="int" name="EXXOEP">     0</i>
   <i type="int" name="FOURORBIT">     0</i>
   <i name="AEXX">      0.00000000</i>
   <i name="HFALPHA">      0.00000000</i>
   <i name="MCALPHA">      0.00000000</i>
   <i name="ALDAX">      1.00000000</i>
   <i name="AGGAX">      1.00000000</i>
   <i name="AMGGAX">      1.00000000</i>
   <i name="ALDAC">      1.00000000</i>
   <i name="AGGAC">      1.00000000</i>
   <i name="AMGGAC">      1.00000000</i>
   <i type="int" name="NKREDX">     1</i>
   <i type="int" name="NKREDY">     1</i>
   <i type="int" name="NKREDZ">     1</i>
   <i type="logical" name="SHIFTRED"> F  </i>
   <i type="logical" name="ODDONLY"> F  </i>
   <i type="logical" name="EVENONLY"> F  </i>
   <i type="int" name="LMAXFOCK">     0</i>
   <i type="int" name="NMAXFOCKAE">     0</i>
   <i type="logical" name="LFOCKAEDFT"> F  </i>
   <i name="HFSCREEN">      0.00000000</i>
   <i name="HFSCREENC">      0.00000000</i>
   <i type="int" name="NBANDSGWLOW">     0</i>
  </separator>
  <separator name="vdW DFT" >
   <i type="logical" name="LUSE_VDW"> F  </i>
   <i type="int" name="IVDW_NL">    -1</i>
   <i type="logical" name="LSPIN_VDW"> F  </i>
   <i name="ZAB_VDW">     -0.84910000</i>
   <i name="GAMMA_VDW">      1.39626340</i>
   <i name="ALPHA_VDW">      0.00000000</i>
   <i name="PARAM1">      0.12340000</i>
   <i name="PARAM2">      1.00000000</i>
   <i name="BPARAM">      6.30000000</i>
   <i name="CPARAM">      0.00930000</i>
  </separator>
  <separator name="model GW" >
   <i type="int" name="MODEL_GW">     0</i>
   <i name="MODEL_EPS0">     12.49610254</i>
   <i name="MODEL_ALPHA">      1.00000000</i>
  </separator>
  <separator name="linear response parameters" >
   <i type="logical" name="LEPSILON"> F  </i>
   <i type="logical" name="LRPA"> F  </i>
   <i type="logical" name="LNABLA"> F  </i>
   <i type="logical" name="LVEL"> F  </i>
   <i name="CSHIFT">      0.10000000</i>
   <i name="OMEGAMAX">     -1.00000000</i>
   <i name="DEG_THRESHOLD">      0.00200000</i>
   <i name="RTIME">     -0.10000000</i>
   <i name="WPLASMAI">      0.00000000</i>
   <v name="DFIELD">      0.00000000      0.00000000      0.00000000</v>
   <v name="WPLASMA">      0.00000000      0.00000000      0.00000000      0.00000000      0.00000000      0.00000000      0.00000000      0.00000000      0.00000000</v>
  </separator>
  <separator name="orbital magnetization" >
   <i type="logical" name="NUCIND"> F  </i>
   <v name="MAGPOS">      0.00000000      0.00000000      0.00000000</v>
   <i type="logical" name="LNICSALL"> T  </i>
   <i type="logical" name="ORBITALMAG"> F  </i>
   <i type="logical" name="LMAGBLOCH"> F  </i>
   <i type="logical" name="LCHIMAG"> F  </i>
   <i type="logical" name="LGAUGE"> T  </i>
   <i type="int" name="MAGATOM">     0</i>
   <v name="MAGDIPOL">      0.00000000      0.00000000      0.00000000</v>
   <v name="AVECCONST">      0.00000000      0.00000000      0.00000000</v>
  </separator>
  <separator name="response functions" >
   <i type="logical" name="LALL_IN_ONE"> F  </i>
   <i type="int" name="IALL_IN_ONE">    -1</i>
   <i type="int" name="NBANDS_WAVE">    -1</i>
   <i type="logical" name="LFINITE_TEMPERATURE"> F  </i>
   <i type="logical" name="LADDER"> F  </i>
   <i type="logical" name="LRPAFORCE"> F  </i>
   <i type="logical" name="LFXC"> F  </i>
   <i type="logical" name="LHARTREE"> T  </i>
   <i type="int" name="IBSE">     0</i>
   <v type="int" name="KPOINT">    -1     0     0     0</v>
   <i type="logical" name="LTCTC"> F  </i>
   <i type="logical" name="LTCTE"> F  </i>
   <i type="logical" name="LTETE"> F  </i>
   <i type="logical" name="LTRIPLET"> F  </i>
   <i type="logical" name="LFXCEPS"> F  </i>
   <i type="logical" name="LFXHEG"> F  </i>
   <i type="int" name="NATURALO">     2</i>
   <i type="logical" name="LHOLEGF"> F  </i>
   <i type="logical" name="L2ORDER"> F  </i>
   <i type="logical" name="LDMP1"> F  </i>
   <i type="logical" name="LMP2LT"> F  </i>
   <i type="logical" name="LSMP2LT"> F  </i>
   <i type="logical" name="LGWLF"> F  </i>
   <i name="ENCUTGW">     -1.60000002</i>
   <i name="ENCUTGWSOFT">     -1.60000002</i>
   <i name="ENCUTLF">     -1.00000000</i>
   <i type="logical" name="ESF_SPLINES"> F  </i>
   <i name="ESF_CONV">      0.01000000</i>
   <i type="int" name="ESF_NINTER">    15</i>
   <i type="int" name="LMAXMP2">    -1</i>
   <i name="SCISSOR">      0.00000000</i>
   <i type="int" name="NOMEGA">     0</i>
   <i type="int" name="NOMEGAR">     0</i>
   <i type="int" name="NBANDSGW">    -1</i>
   <i type="int" name="NBANDSO">    -1</i>
   <i type="int" name="NBANDSV">    -1</i>
   <i type="int" name="NELMGW">     1</i>
   <i type="int" name="NELMHF">     1</i>
   <i type="int" name="DIM">     3</i>
   <i type="int" name="IESPILON">     4</i>
   <i type="int" name="ANTIRES">     0</i>
   <i name="OMEGAMAX">    -30.00000000</i>
   <i name="OMEGAMIN">    -30.00000000</i>
   <i name="OMEGATL">   -200.00000000</i>
   <i type="int" name="OMEGAGRID">     0</i>
   <i name="CSHIFT">     -0.10000000</i>
   <i type="logical" name="LSELFENERGY"> F  </i>
   <i type="logical" name="LSPECTRAL"> F  </i>
   <i type="logical" name="LSPECTRALGW"> F  </i>
   <i type="logical" name="LSINGLES"> F  </i>
   <i type="logical" name="LFERMIGW"> F  </i>
   <i type="logical" name="ODDONLYGW"> F  </i>
   <i type="logical" name="EVENONLYGW"> F  </i>
   <i type="int" name="NKREDLFX">     1</i>
   <i type="int" name="NKREDLFY">     1</i>
   <i type="int" name="NKREDLFZ">     1</i>
   <i type="int" name="MAXMEM">  2800</i>
   <i type="int" name="TELESCOPE">     0</i>
   <i type="int" name="NTAUPAR">    -1</i>
   <i type="int" name="NOMEGAPAR">    -1</i>
   <i name="DAMP_NEWTON">      0.80000001</i>
   <i name="LAMBDA">      1.00000000</i>
  </separator>
  <separator name="External order field" >
   <i name="OFIELD_KAPPA">      0.00000000</i>
   <v name="OFIELD_K">      0.00000000      0.00000000      0.00000000</v>
   <i name="OFIELD_Q6_NEAR">      0.00000000</i>
   <i name="OFIELD_Q6_FAR">      0.00000000</i>
   <i name="OFIELD_A">      0.00000000</i>
  </separator>
  <separator name="optional k-points parameters" >
   <i type="int" name="KPOINTS_OPT_MODE">     1</i>
   <i type="logical" name="LKPOINTS_OPT"> F  </i>
  </separator>
 </parameters>
 <atominfo>
  <atoms>       8 </atoms>
  <types>       2 </types>
  <array name="atoms" >
   <dimension dim="1">ion</dimension>
   <field type="string">element</field>
   <field type="int">atomtype</field>
   <set>
    <rc><c>As</c><c>   1</c></rc>
    <rc><c>As</c><c>   1</c></rc>
    <rc><c>As</c><c>   1</c></rc>
    <rc><c>As</c><c>   1</c></rc>
    <rc><c>Ga</c><c>   2</c></rc>
    <rc><c>Ga</c><c>   2</c></rc>
    <rc><c>Ga</c><c>   2</c></rc>
    <rc><c>Ga</c><c>   2</c></rc>
   </set>
  </array>
  <array name="atomtypes" >
   <dimension dim="1">type</dimension>
   <field type="int">atomspertype</field>
   <field type="string">element</field>
   <field>mass</field>
   <field>valence</field>
   <field type="string">pseudopotential</field>
   <set>
    <rc><c>   4</c><c>As</c><c>     74.92200000</c><c>      5.00000000</c><c>  PAW_PBE As 22Sep2009                  </c></rc>
    <rc><c>   4</c><c>Ga</c><c>     69.72300000</c><c>      3.00000000</c><c>  PAW_PBE Ga 08Apr2002                  </c></rc>
   </set>
  </array>
 </atominfo>
 <structure name="initialpos" >
  <crystal>
   <varray name="basis" >
    <v>       5.50264006       0.00000000       0.00000000 </v>
    <v>       0.00000000       5.50264006       0.00000000 </v>
    <v>       0.00000000       0.00000000       5.50264006 </v>
   </varray>
   <i name="volume">    166.61470049 </i>
   <varray name="rec_basis" >
    <v>       0.18173095       0.00000000       0.00000000 </v>
    <v>       0.00000000       0.18173095       0.00000000 </v>
    <v>       0.00000000       0.00000000       0.18173095 </v>
   </varray>
  </crystal>
  <varray name="positions" >
   <v>       0.00000000       0.00000000       0.00000000 </v>
   <v>       0.50000000       0.50000000       0.00000000 </v>
   <v>       0.50000000       0.00000000       0.50000000 </v>
   <v>       0.00000000       0.50000000       0.50000000 </v>
   <v>       0.25000000       0.25000000       0.25000000 </v>
   <v>       0.75000000       0.25000000       0.75000000 </v>
   <v>       0.75000000       0.75000000       0.25000000 </v>
   <v>       0.25000000       0.75000000       0.75000000 </v>
  </varray>
 </structure>
 <calculation>
  <scstep>
   <time name="dav">    0.20    0.21</time>
   <time name="total">    0.23    0.24</time>
   <energy>
    <i name="alphaZ">     82.12872199 </i>
    <i name="ewald">   -941.78307081 </i>
    <i name="hartreedc">    -71.54195235 </i>
    <i name="XCdc">   -119.79238163 </i>
    <i name="pawpsdc">   2888.93764376 </i>
    <i name="pawaedc">  -2710.21976758 </i>
    <i name="eentropy">      0.00000000 </i>
    <i name="bandstr">    -76.53513492 </i>
    <i name="atom">    916.21663293 </i>
    <i name="e_fr_energy">    -32.58930860 </i>
    <i name="e_wo_entrp">    -32.58930860 </i>
    <i name="e_0_energy">    -32.58930860 </i>
   </energy>
  </scstep>
  <scstep>
   <time name="dav">    0.18    0.19</time>
   <time name="total">    0.20    0.22</time>
   <energy>
    <i name="e_fr_energy">    -32.39905543 </i>
    <i name="e_wo_entrp">    -32.39905543 </i>
    <i name="e_0_energy">    -32.39905543 </i>
   </energy>
  </scstep>
  <scstep>
   <time name="dav">    0.18    0.20</time>
   <time name="total">    0.21    0.22</time>
   <energy>
    <i name="e_fr_energy">    -32.34089031 </i>
    <i name="e_wo_entrp">    -32.34089031 </i>
    <i name="e_0_energy">    -32.34089031 </i>
   </energy>
  </scstep>
  <scstep>
   <time name="dav">    0.18    0.19</time>
   <time name="total">    0.21    0.22</time>
   <energy>
    <i name="e_fr_energy">    -32.33572446 </i>
    <i name="e_wo_entrp">    -32.33572446 </i>
    <i name="e_0_energy">    -32.33572446 </i>
   </energy>
  </scstep>
  <scstep>
   <time name="dav">    0.20    0.21</time>
   <time name="total">    0.22    0.23</time>
   <energy>
    <i name="e_fr_energy">    -32.33532833 </i>
    <i name="e_wo_entrp">    -32.33532833 </i>
    <i name="e_0_energy">    -32.33532833 </i>
   </energy>
  </scstep>
  <scstep>
   <time name="dav">    0.13    0.14</time>
   <time name="total">    0.14    0.15</time>
   <energy>
    <i name="alphaZ">     82.12872199 </i>
    <i name="ewald">   -941.78307081 </i>
    <i name="hartreedc">    -78.87910271 </i>
    <i name="XCdc">   -120.02893403 </i>
    <i name="pawpsdc">   2304.73592825 </i>
    <i name="pawaedc">  -2126.23692148 </i>
    <i name="eentropy">      0.00000000 </i>
    <i name="bandstr">    -68.48860613 </i>
    <i name="atom">    916.21663293 </i>
    <i name="e_fr_energy">    -32.33535200 </i>
    <i name="e_wo_entrp">    -32.33535200 </i>
    <i name="e_0_energy">    -32.33535200 </i>
   </energy>
  </scstep>
  <structure>
   <crystal>
    <varray name="basis" >
     <v>       5.50264006       0.00000000       0.00000000 </v>
     <v>       0.00000000       5.50264006       0.00000000 </v>
     <v>       0.00000000       0.00000000       5.50264006 </v>
    </varray>
    <i name="volume">    166.61470049 </i>
    <varray name="rec_basis" >
     <v>       0.18173095       0.00000000       0.00000000 </v>
     <v>       0.00000000       0.18173095       0.00000000 </v>
     <v>       0.00000000       0.00000000       0.18173095 </v>
    </varray>
   </crystal>
   <varray name="positions" >
    <v>       0.00000000       0.00000000       0.00000000 </v>
    <v>       0.50000000       0.50000000       0.00000000 </v>
    <v>       0.50000000       0.00000000       0.50000000 </v>
    <v>       0.00000000       0.50000000       0.50000000 </v>
    <v>       0.25000000       0.25000000       0.25000000 </v>
    <v>       0.75000000       0.25000000       0.75000000 </v>
    <v>       0.75000000       0.75000000       0.25000000 </v>
    <v>       0.25000000       0.75000000       0.75000000 </v>
   </varray>
  </structure>
  <varray name="forces" >
   <v>       0.00000000      -0.00000000      -0.00000000 </v>
   <v>      -0.00000000       0.00000000       0.00000000 </v>
   <v>      -0.00000000       0.00000000       0.00000000 </v>
   <v>      -0.00000000       0.00000000       0.00000000 </v>
   <v>       0.00000000      -0.00000000      -0.00000000 </v>
   <v>       0.00000000      -0.00000000       0.00000000 </v>
   <v>       0.00000000      -0.00000000      -0.00000000 </v>
   <v>       0.00000000      -0.00000000      -0.00000000 </v>
  </varray>
  <varray name="stress" >
   <v>     119.27026750      -0.00000000      -0.00000000 </v>
   <v>      -0.00000000     119.27026750      -0.00000000 </v>
   <v>       0.00000000       0.00000000     119.27026750 </v>
  </varray>
  <energy>
   <i name="e_fr_energy">    -28.69560850 </i>
   <i name="e_wo_entrp">    -28.69560850 </i>
   <i name="e_0_energy">    -28.69560850 </i>
  </energy>
  <time name="totalsc">    1.66    1.76</time>
 </calculation>
 <calculation>
  <scstep>
   <time name="dav">    0.19    0.21</time>
   <time name="total">    0.22    0.23</time>
   <energy>
    <i name="alphaZ">     79.57867381 </i>
    <i name="ewald">   -931.93314260 </i>
    <i name="hartreedc">    -78.09240073 </i>
    <i name="XCdc">   -120.28335750 </i>
    <i name="pawpsdc">   2306.43656668 </i>
    <i name="pawaedc">  -2127.93409276 </i>
    <i name="eentropy">      0.00000000 </i>
    <i name="bandstr">    -76.70774404 </i>
    <i name="atom">    916.21663293 </i>
    <i name="e_fr_energy">    -32.71886421 </i>
    <i name="e_wo_entrp">    -32.71886421 </i>
    <i name="e_0_energy">    -32.71886421 </i>
   </energy>
  </scstep>
  <scstep>
   <time name="dav">    0.19    0.20</time>
   <time name="total">    0.21    0.22</time>
   <energy>
    <i name="e_fr_energy">    -32.68610339 </i>
    <i name="e_wo_entrp">    -32.68610339 </i>
    <i name="e_0_energy">    -32.68610339 </i>
   </energy>
  </scstep>
  <scstep>
   <time name="dav">    0.19    0.20</time>
   <time name="total">    0.21    0.22</time>
   <energy>
    <i name="e_fr_energy">    -32.67489241 </i>
    <i name="e_wo_entrp">    -32.67489241 </i>
    <i name="e_0_energy">    -32.67489241 </i>
   </energy>
  </scstep>
  <scstep>
   <time name="dav">    0.18    0.20</time>
   <time name="total">    0.21    0.22</time>
   <energy>
    <i name="e_fr_energy">    -32.67447402 </i>
    <i name="e_wo_entrp">    -32.67447402 </i>
    <i name="e_0_energy">    -32.67447402 </i>
   </energy>
  </scstep>
  <scstep>
   <time name="dav">    0.19    0.20</time>
   <time name="total">    0.22    0.23</time>
   <energy>
    <i name="e_fr_energy">    -32.67418815 </i>
    <i name="e_wo_entrp">    -32.67418815 </i>
    <i name="e_0_energy">    -32.67418815 </i>
   </energy>
  </scstep>
  <scstep>
   <time name="dav">    0.13    0.14</time>
   <time name="total">    0.14    0.15</time>
   <energy>
    <i name="alphaZ">     79.57867381 </i>
    <i name="ewald">   -931.93314260 </i>
    <i name="hartreedc">    -81.12541190 </i>
    <i name="XCdc">   -120.42417141 </i>
    <i name="pawpsdc">   2182.65692200 </i>
    <i name="pawaedc">  -2004.01659974 </i>
    <i name="eentropy">      0.00000000 </i>
    <i name="bandstr">    -73.62709254 </i>
    <i name="atom">    916.21663293 </i>
    <i name="e_fr_energy">    -32.67418944 </i>
    <i name="e_wo_entrp">    -32.67418944 </i>
    <i name="e_0_energy">    -32.67418944 </i>
   </energy>
  </scstep>
  <structure>
   <crystal>
    <varray name="basis" >
     <v>       5.56079939      -0.00000000      -0.00000000 </v>
     <v>      -0.00000000       5.56079939      -0.00000000 </v>
     <v>       0.00000000       0.00000000       5.56079939 </v>
    </varray>
    <i name="volume">    171.95376299 </i>
    <varray name="rec_basis" >
     <v>       0.17983026       0.00000000      -0.00000000 </v>
     <v>       0.00000000       0.17983026      -0.00000000 </v>
     <v>       0.00000000       0.00000000       0.17983026 </v>
    </varray>
   </crystal>
   <varray name="positions" >
    <v>       0.00000000       1.00000000       1.00000000 </v>
    <v>       0.50000000       0.50000000       0.00000000 </v>
    <v>       0.50000000       0.00000000       0.50000000 </v>
    <v>       1.00000000       0.50000000       0.50000000 </v>
    <v>       0.25000000       0.25000000       0.25000000 </v>
    <v>       0.75000000       0.25000000       0.75000000 </v>
    <v>       0.75000000       0.75000000       0.25000000 </v>
    <v>       0.25000000       0.75000000       0.75000000 </v>
   </varray>
  </structure>
  <varray name="forces" >
   <v>       0.00000000      -0.00000000       0.00000000 </v>
   <v>      -0.00000000      -0.00000000      -0.00000000 </v>
   <v>       0.00000000      -0.00000000       0.00000000 </v>
   <v>       0.00000000       0.00000000      -0.00000000 </v>
   <v>      -0.00000000       0.00000000       0.00000000 </v>
   <v>      -0.00000000       0.00000000       0.00000000 </v>
   <v>      -0.00000000       0.00000000       0.00000000 </v>
   <v>       0.00000000       0.00000000       0.00000000 </v>
  </varray>
  <varray name="stress" >
   <v>      85.29650583      -0.00000000       0.00000000 </v>
   <v>       0.00000000      85.29650583      -0.00000000 </v>
   <v>       0.00000000       0.00000000      85.29650583 </v>
  </varray>
  <energy>
   <i name="e_fr_energy">    -28.91781267 </i>
   <i name="e_wo_entrp">    -28.91781267 </i>
   <i name="e_0_energy">    -28.91781267 </i>
  </energy>
  <time name="totalsc">    1.53    1.61</time>
 </calculation>
 <calculation>
  <scstep>
   <time name="dav">    0.19    0.20</time>
   <time name="total">    0.22    0.23</time>
   <energy>
    <i name="alphaZ">     75.70440194 </i>
    <i name="ewald">   -916.55719041 </i>
    <i name="hartreedc">    -79.79459174 </i>
    <i name="XCdc">   -120.83013393 </i>
    <i name="pawpsdc">   2185.71049222 </i>
    <i name="pawaedc">  -2007.06709178 </i>
    <i name="eentropy">      0.00000000 </i>
    <i name="bandstr">    -86.50893217 </i>
    <i name="atom">    916.21663293 </i>
    <i name="e_fr_energy">    -33.12641295 </i>
    <i name="e_wo_entrp">    -33.12641295 </i>
    <i name="e_0_energy">    -33.12641295 </i>
   </energy>
  </scstep>
  <scstep>
   <time name="dav">    0.18    0.20</time>
   <time name="total">    0.21    0.22</time>
   <energy>
    <i name="e_fr_energy">    -33.04318714 </i>
    <i name="e_wo_entrp">    -33.04318714 </i>
    <i name="e_0_energy">    -33.04318714 </i>
   </energy>
  </scstep>
  <scstep>
   <time name="dav">    0.19    0.20</time>
   <time name="total">    0.21    0.22</time>
   <energy>
    <i name="e_fr_energy">    -33.01542133 </i>
    <i name="e_wo_entrp">    -33.01542133 </i>
    <i name="e_0_energy">    -33.01542133 </i>
   </energy>
  </scstep>
  <scstep>
   <time name="dav">    0.19    0.20</time>
   <time name="total">    0.21    0.22</time>
   <energy>
    <i name="e_fr_energy">    -33.01421798 </i>
    <i name="e_wo_entrp">    -33.01421798 </i>
    <i name="e_0_energy">    -33.01421798 </i>
   </energy>
  </scstep>
  <scstep>
   <time name="dav">    0.20    0.21</time>
   <time name="total">    0.22    0.23</time>
   <energy>
    <i name="e_fr_energy">    -33.01355983 </i>
    <i name="e_wo_entrp">    -33.01355983 </i>
    <i name="e_0_energy">    -33.01355983 </i>
   </energy>
  </scstep>
  <scstep>
   <time name="dav">    0.13    0.14</time>
   <time name="total">    0.14    0.15</time>
   <energy>
    <i name="alphaZ">     75.70440194 </i>
    <i name="ewald">   -916.55719041 </i>
    <i name="hartreedc">    -84.66290418 </i>
    <i name="XCdc">   -121.05187169 </i>
    <i name="pawpsdc">   2007.53783564 </i>
    <i name="pawaedc">  -1828.69349657 </i>
    <i name="eentropy">      0.00000000 </i>
    <i name="bandstr">    -81.50697229 </i>
    <i name="atom">    916.21663293 </i>
    <i name="e_fr_energy">    -33.01356462 </i>
    <i name="e_wo_entrp">    -33.01356462 </i>
    <i name="e_0_energy">    -33.01356462 </i>
   </energy>
  </scstep>
  <structure>
   <crystal>
    <varray name="basis" >
     <v>       5.65408608      -0.00000000      -0.00000000 </v>
     <v>      -0.00000000       5.65408608      -0.00000000 </v>
     <v>       0.00000000       0.00000000       5.65408608 </v>
    </varray>
    <i name="volume">    180.75372191 </i>
    <varray name="rec_basis" >
     <v>       0.17686324       0.00000000      -0.00000000 </v>
     <v>       0.00000000       0.17686324      -0.00000000 </v>
     <v>       0.00000000       0.00000000       0.17686324 </v>
    </varray>
   </crystal>
   <varray name="positions" >
    <v>       0.00000000       0.00000000       0.00000000 </v>
    <v>       0.50000000       0.50000000       0.00000000 </v>
    <v>       0.50000000       0.00000000       0.50000000 </v>
    <v>       0.00000000       0.50000000       0.50000000 </v>
    <v>       0.25000000       0.25000000       0.25000000 </v>
    <v>       0.75000000       0.25000000       0.75000000 </v>
    <v>       0.75000000       0.75000000       0.25000000 </v>
    <v>       0.25000000       0.75000000       0.75000000 </v>
   </varray>
  </structure>
  <varray name="forces" >
   <v>       0.00000000       0.00000000       0.00000000 </v>
   <v>      -0.00000000      -0.00000000       0.00000000 </v>
   <v>       0.00000000       0.00000000      -0.00000000 </v>
   <v>      -0.00000000      -0.00000000       0.00000000 </v>
   <v>       0.00000000       0.00000000       0.00000000 </v>
   <v>      -0.00000000       0.00000000      -0.00000000 </v>
   <v>      -0.00000000       0.00000000      -0.00000000 </v>
   <v>      -0.00000000       0.00000000      -0.00000000 </v>
  </varray>
  <varray name="stress" >
   <v>      40.25673234       0.00000000      -0.00000000 </v>
   <v>      -0.00000000      40.25673234      -0.00000000 </v>
   <v>       0.00000000       0.00000000      40.25673234 </v>
  </varray>
  <energy>
   <i name="e_fr_energy">    -29.06495035 </i>
   <i name="e_wo_entrp">    -29.06495035 </i>
   <i name="e_0_energy">    -29.06495035 </i>
  </energy>
  <time name="totalsc">    1.53    1.62</time>
 </calculation>
 <calculation>
  <scstep>
   <time name="dav">    0.19    0.20</time>
   <time name="total">    0.21    0.22</time>
   <energy>
    <i name="alphaZ">     75.24379517 </i>
    <i name="ewald">   -914.69454418 </i>
    <i name="hartreedc">    -84.50446201 </i>
    <i name="XCdc">   -121.10197006 </i>
    <i name="pawpsdc">   2012.13255083 </i>
    <i name="pawaedc">  -1833.28371166 </i>
    <i name="eentropy">      0.00000000 </i>
    <i name="bandstr">    -83.04967940 </i>
    <i name="atom">    916.21663293 </i>
    <i name="e_fr_energy">    -33.04138837 </i>
    <i name="e_wo_entrp">    -33.04138837 </i>
    <i name="e_0_energy">    -33.04138837 </i>
   </energy>
  </scstep>
  <scstep>
   <time name="dav">    0.19    0.20</time>
   <time name="total">    0.21    0.22</time>
   <energy>
    <i name="e_fr_energy">    -33.04015130 </i>
    <i name="e_wo_entrp">    -33.04015130 </i>
    <i name="e_0_energy">    -33.04015130 </i>
   </energy>
  </scstep>
  <scstep>
   <time name="dav">    0.19    0.20</time>
   <time name="total">    0.21    0.22</time>
   <energy>
    <i name="e_fr_energy">    -33.03972483 </i>
    <i name="e_wo_entrp">    -33.03972483 </i>
    <i name="e_0_energy">    -33.03972483 </i>
   </energy>
  </scstep>
  <scstep>
   <time name="dav">    0.13    0.14</time>
   <time name="total">    0.14    0.15</time>
   <energy>
    <i name="alphaZ">     75.24379517 </i>
    <i name="ewald">   -914.69454418 </i>
    <i name="hartreedc">    -85.08198965 </i>
    <i name="XCdc">   -121.12420076 </i>
    <i name="pawpsdc">   1992.23873129 </i>
    <i name="pawaedc">  -1813.37165753 </i>
    <i name="eentropy">      0.00000000 </i>
    <i name="bandstr">    -82.46647270 </i>
    <i name="atom">    916.21663293 </i>
    <i name="e_fr_energy">    -33.03970543 </i>
    <i name="e_wo_entrp">    -33.03970543 </i>
    <i name="e_0_energy">    -33.03970543 </i>
   </energy>
  </scstep>
  <structure>
   <crystal>
    <varray name="basis" >
     <v>       5.66559983      -0.00000000      -0.00000000 </v>
     <v>      -0.00000000       5.66559983      -0.00000000 </v>
     <v>       0.00000000       0.00000000       5.66559983 </v>
    </varray>
    <i name="volume">    181.86021033 </i>
    <varray name="rec_basis" >
     <v>       0.17650382       0.00000000      -0.00000000 </v>
     <v>       0.00000000       0.17650382      -0.00000000 </v>
     <v>       0.00000000       0.00000000       0.17650382 </v>
    </varray>
   </crystal>
   <varray name="positions" >
    <v>       0.00000000       1.00000000       1.00000000 </v>
    <v>       0.50000000       0.50000000       0.00000000 </v>
    <v>       0.50000000       0.00000000       0.50000000 </v>
    <v>       1.00000000       0.50000000       0.50000000 </v>
    <v>       0.25000000       0.25000000       0.25000000 </v>
    <v>       0.75000000       0.25000000       0.75000000 </v>
    <v>       0.75000000       0.75000000       0.25000000 </v>
    <v>       0.25000000       0.75000000       0.75000000 </v>
   </varray>
  </structure>
  <varray name="forces" >
   <v>       0.00000000      -0.00000000       0.00000000 </v>
   <v>       0.00000000      -0.00000000       0.00000000 </v>
   <v>       0.00000000      -0.00000000      -0.00000000 </v>
   <v>      -0.00000000      -0.00000000       0.00000000 </v>
   <v>      -0.00000000       0.00000000      -0.00000000 </v>
   <v>      -0.00000000       0.00000000      -0.00000000 </v>
   <v>      -0.00000000       0.00000000      -0.00000000 </v>
   <v>      -0.00000000       0.00000000      -0.00000000 </v>
  </varray>
  <varray name="stress" >
   <v>      35.61041721      -0.00000000       0.00000000 </v>
   <v>      -0.00000000      35.61041721      -0.00000000 </v>
   <v>       0.00000000      -0.00000000      35.61041721 </v>
  </varray>
  <energy>
   <i name="e_fr_energy">    -29.06691962 </i>
   <i name="e_wo_entrp">    -29.06691962 </i>
   <i name="e_0_energy">    -29.06691962 </i>
  </energy>
  <time name="totalsc">    1.09    1.17</time>
  <eigenvalues>
   <array>
    <dimension dim="1">band</dimension>
    <dimension dim="2">kpoint</dimension>
    <dimension dim="3">spin</dimension>
    <field>eigene</field>
    <field>occ</field>
    <set>
     <set comment="spin 1">
      <set comment="kpoint 1">
       <r>   -9.9639    1.0000 </r>
       <r>   -7.6278    1.0000 </r>
       <r>   -7.6278    1.0000 </r>
       <r>   -7.6278    1.0000 </r>
       <r>   -4.0609    1.0000 </r>
       <r>   -4.0609    1.0000 </r>
       <r>   -4.0609    1.0000 </r>
       <r>    0.0533    1.0000 </r>
       <r>    0.0533    1.0000 </r>
       <r>    0.0533    1.0000 </r>
       <r>    0.0533    1.0000 </r>
       <r>    0.0533    1.0000 </r>
       <r>    0.0533    1.0000 </r>
       <r>    2.6947    1.0000 </r>
       <r>    2.6947    1.0000 </r>
       <r>    2.6947    1.0000 </r>
       <r>    3.2249    0.0000 </r>
       <r>    4.1776    0.0000 </r>
       <r>    4.1776    0.0000 </r>
       <r>    4.1776    0.0000 </r>
       <r>    4.3765    0.0000 </r>
       <r>    4.3765    0.0000 </r>
       <r>    4.3765    0.0000 </r>
       <r>    6.4583    0.0000 </r>
      </set>
      <set comment="kpoint 2">
       <r>   -9.8208    1.0000 </r>
       <r>   -8.0229    1.0000 </r>
       <r>   -7.6132    1.0000 </r>
       <r>   -7.6132    1.0000 </r>
       <r>   -3.9984    1.0000 </r>
       <r>   -3.9984    1.0000 </r>
       <r>   -3.4702    1.0000 </r>
       <r>   -0.2821    1.0000 </r>
       <r>   -0.2821    1.0000 </r>
       <r>   -0.2075    1.0000 </r>
       <r>   -0.2075    1.0000 </r>
       <r>    0.2151    1.0000 </r>
       <r>    0.2151    1.0000 </r>
       <r>    1.1442    1.0000 </r>
       <r>    2.2446    1.0000 </r>
       <r>    2.2446    1.0000 </r>
       <r>    4.1441    0.0000 </r>
       <r>    4.7107    0.0000 </r>
       <r>    4.8225    0.0000 </r>
       <r>    4.9065    0.0000 </r>
       <r>    4.9065    0.0000 </r>
       <r>    5.1145    0.0000 </r>
       <r>    5.1145    0.0000 </r>
       <r>    5.9883    0.0000 </r>
      </set>
      <set comment="kpoint 3">
       <r>   -9.4031    1.0000 </r>
       <r>   -8.7569    1.0000 </r>
       <r>   -7.5892    1.0000 </r>
       <r>   -7.5892    1.0000 </r>
       <r>   -3.8851    1.0000 </r>
       <r>   -3.8851    1.0000 </r>
       <r>   -2.1587    1.0000 </r>
       <r>   -0.7433    1.0000 </r>
       <r>   -0.7433    1.0000 </r>
       <r>   -0.5699    1.0000 </r>
       <r>   -0.5494    1.0000 </r>
       <r>   -0.5494    1.0000 </r>
       <r>    0.6868    1.0000 </r>
       <r>    0.6868    1.0000 </r>
       <r>    1.4155    1.0000 </r>
       <r>    1.4155    1.0000 </r>
       <r>    4.4317    0.0000 </r>
       <r>    5.0351    0.0000 </r>
       <r>    5.6403    0.0000 </r>
       <r>    6.0039    0.0000 </r>
       <r>    6.6264    0.0000 </r>
       <r>    6.6264    0.0000 </r>
       <r>    6.7512    0.0000 </r>
       <r>    6.7512    0.0000 </r>
      </set>
      <set comment="kpoint 4">
       <r>   -9.6815    1.0000 </r>
       <r>   -7.9701    1.0000 </r>
       <r>   -7.9701    1.0000 </r>
       <r>   -7.6344    1.0000 </r>
       <r>   -3.9355    1.0000 </r>
       <r>   -3.5053    1.0000 </r>
       <r>   -3.5053    1.0000 </r>
       <r>   -0.9167    1.0000 </r>
       <r>   -0.2031    1.0000 </r>
       <r>   -0.2031    1.0000 </r>
       <r>    0.1075    1.0000 </r>
       <r>    0.1075    1.0000 </r>
       <r>    0.2052    1.0000 </r>
       <r>    0.3216    1.0000 </r>
       <r>    1.7650    1.0000 </r>
       <r>    2.5266    1.0000 </r>
       <r>    4.5358    0.0000 </r>
       <r>    4.7762    0.0000 </r>
       <r>    4.9315    0.0000 </r>
       <r>    4.9315    0.0000 </r>
       <r>    5.4592    0.0000 </r>
       <r>    5.4592    0.0000 </r>
       <r>    6.4654    0.0000 </r>
       <r>    6.6239    0.0000 </r>
      </set>
      <set comment="kpoint 5">
       <r>   -9.2765    1.0000 </r>
       <r>   -8.6571    1.0000 </r>
       <r>   -7.8419    1.0000 </r>
       <r>   -7.7111    1.0000 </r>
       <r>   -3.7839    1.0000 </r>
       <r>   -3.6184    1.0000 </r>
       <r>   -2.4178    1.0000 </r>
       <r>   -1.1625    1.0000 </r>
       <r>   -1.1332    1.0000 </r>
       <r>   -0.8576    1.0000 </r>
       <r>    0.0688    1.0000 </r>
       <r>    0.2082    1.0000 </r>
       <r>    0.2740    1.0000 </r>
       <r>    0.8329    1.0000 </r>
       <r>    0.9168    1.0000 </r>
       <r>    1.8081    1.0000 </r>
       <r>    5.2348    0.0000 </r>
       <r>    5.4978    0.0000 </r>
       <r>    5.5491    0.0000 </r>
       <r>    6.0618    0.0000 </r>
       <r>    6.0726    0.0000 </r>
       <r>    6.5908    0.0000 </r>
       <r>    6.9111    0.0000 </r>
       <r>    7.8519    0.0000 </r>
      </set>
      <set comment="kpoint 6">
       <r>   -8.9149    1.0000 </r>
       <r>   -8.3840    1.0000 </r>
       <r>   -8.3840    1.0000 </r>
       <r>   -8.0221    1.0000 </r>
       <r>   -3.4688    1.0000 </r>
       <r>   -2.9625    1.0000 </r>
       <r>   -2.9625    1.0000 </r>
       <r>   -2.0881    1.0000 </r>
       <r>   -1.1089    1.0000 </r>
       <r>   -0.5787    1.0000 </r>
       <r>   -0.5787    1.0000 </r>
       <r>    0.0722    1.0000 </r>
       <r>    1.0427    1.0000 </r>
       <r>    1.1053    1.0000 </r>
       <r>    1.1053    1.0000 </r>
       <r>    1.9261    1.0000 </r>
       <r>    5.1878    0.0000 </r>
       <r>    5.4437    0.0000 </r>
       <r>    5.9965    0.0000 </r>
       <r>    5.9965    0.0000 </r>
       <r>    7.1527    0.0000 </r>
       <r>    7.1527    0.0000 </r>
       <r>    7.6465    0.0000 </r>
       <r>    7.6739    0.0000 </r>
      </set>
      <set comment="kpoint 7">
       <r>   -9.5468    1.0000 </r>
       <r>   -7.9448    1.0000 </r>
       <r>   -7.9448    1.0000 </r>
       <r>   -7.9448    1.0000 </r>
       <r>   -3.5745    1.0000 </r>
       <r>   -3.5745    1.0000 </r>
       <r>   -3.5745    1.0000 </r>
       <r>   -0.5967    1.0000 </r>
       <r>   -0.5967    1.0000 </r>
       <r>   -0.5967    1.0000 </r>
       <r>   -0.5906    1.0000 </r>
       <r>    0.4695    1.0000 </r>
       <r>    0.4695    1.0000 </r>
       <r>    0.4695    1.0000 </r>
       <r>    2.2006    1.0000 </r>
       <r>    2.2006    1.0000 </r>
       <r>    4.2985    0.0000 </r>
       <r>    4.7062    0.0000 </r>
       <r>    4.7062    0.0000 </r>
       <r>    4.7062    0.0000 </r>
       <r>    6.6252    0.0000 </r>
       <r>    6.6252    0.0000 </r>
       <r>    6.6252    0.0000 </r>
       <r>    7.1485    0.0000 </r>
      </set>
      <set comment="kpoint 8">
       <r>   -9.1577    1.0000 </r>
       <r>   -8.5722    1.0000 </r>
       <r>   -7.9024    1.0000 </r>
       <r>   -7.9024    1.0000 </r>
       <r>   -3.6970    1.0000 </r>
       <r>   -3.6970    1.0000 </r>
       <r>   -2.7592    1.0000 </r>
       <r>   -1.7373    1.0000 </r>
       <r>   -0.7884    1.0000 </r>
       <r>   -0.7884    1.0000 </r>
       <r>    0.2884    1.0000 </r>
       <r>    0.5008    1.0000 </r>
       <r>    0.5008    1.0000 </r>
       <r>    0.8949    1.0000 </r>
       <r>    1.4788    1.0000 </r>
       <r>    1.5299    1.0000 </r>
       <r>    4.9063    0.0000 </r>
       <r>    5.0979    0.0000 </r>
       <r>    5.5946    0.0000 </r>
       <r>    5.5946    0.0000 </r>
       <r>    6.6996    0.0000 </r>
       <r>    6.8229    0.0000 </r>
       <r>    7.4894    0.0000 </r>
       <r>    7.4894    0.0000 </r>
      </set>
      <set comment="kpoint 9">
       <r>   -8.8232    1.0000 </r>
       <r>   -8.3504    1.0000 </r>
       <r>   -8.3504    1.0000 </r>
       <r>   -8.0881    1.0000 </r>
       <r>   -3.6824    1.0000 </r>
       <r>   -3.3345    1.0000 </r>
       <r>   -3.3345    1.0000 </r>
       <r>   -2.6448    1.0000 </r>
       <r>   -0.4741    1.0000 </r>
       <r>   -0.0034    1.0000 </r>
       <r>   -0.0034    1.0000 </r>
       <r>    0.8073    1.0000 </r>
       <r>    1.1321    1.0000 </r>
       <r>    1.1725    1.0000 </r>
       <r>    1.1725    1.0000 </r>
       <r>    1.8550    1.0000 </r>
       <r>    4.6889    0.0000 </r>
       <r>    5.1576    0.0000 </r>
       <r>    5.3938    0.0000 </r>
       <r>    5.3938    0.0000 </r>
       <r>    6.9282    0.0000 </r>
       <r>    6.9282    0.0000 </r>
       <r>    7.4518    0.0000 </r>
       <r>    7.4764    0.0000 </r>
      </set>
      <set comment="kpoint 10">
       <r>   -8.5818    1.0000 </r>
       <r>   -8.2931    1.0000 </r>
       <r>   -8.2931    1.0000 </r>
       <r>   -8.2931    1.0000 </r>
       <r>   -3.7756    1.0000 </r>
       <r>   -3.7756    1.0000 </r>
       <r>   -3.7756    1.0000 </r>
       <r>   -3.3953    1.0000 </r>
       <r>    0.7985    1.0000 </r>
       <r>    0.7985    1.0000 </r>
       <r>    0.7985    1.0000 </r>
       <r>    1.3663    1.0000 </r>
       <r>    1.3663    1.0000 </r>
       <r>    1.3663    1.0000 </r>
       <r>    1.6475    1.0000 </r>
       <r>    1.6475    1.0000 </r>
       <r>    3.7970    0.0000 </r>
       <r>    4.5270    0.0000 </r>
       <r>    4.5270    0.0000 </r>
       <r>    4.5270    0.0000 </r>
       <r>    7.0914    0.0000 </r>
       <r>    7.0914    0.0000 </r>
       <r>    7.0914    0.0000 </r>
       <r>    7.3919    0.0000 </r>
      </set>
     </set>
    </set>
   </array>
  </eigenvalues>
  <separator name="orbital magnetization" >
   <v name="MAGDIPOLOUT">      0.00000000      0.00000000      0.00000000</v>
  </separator>
  <dos>
   <i name="efermi">      2.71315496 </i>
   <total>
    <array>
     <dimension dim="1">gridpoints</dimension>
     <dimension dim="2">spin</dimension>
     <field>energy</field>
     <field>total</field>
     <field>integrated</field>
     <set>
      <set comment="spin 1">
       <r>   -10.9639     0.0000     0.0000 </r>
       <r>   -10.8979     0.0000     0.0000 </r>
       <r>   -10.8318     0.0000     0.0000 </r>
       <r>   -10.7658     0.0000     0.0000 </r>
       <r>   -10.6997     0.0000     0.0000 </r>
       <r>   -10.6337     0.0000     0.0000 </r>
       <r>   -10.5676     0.0000     0.0000 </r>
       <r>   -10.5016     0.0000     0.0000 </r>
       <r>   -10.4355     0.0000     0.0000 </r>
       <r>   -10.3695     0.0000     0.0000 </r>
       <r>   -10.3034     0.0000     0.0000 </r>
       <r>   -10.2373     0.0000     0.0000 </r>
       <r>   -10.1713     0.0000     0.0000 </r>
       <r>   -10.1052     0.0000     0.0000 </r>
       <r>   -10.0392     0.0000     0.0000 </r>
       <r>    -9.9731     0.0000     0.0000 </r>
       <r>    -9.9071     0.0720     0.0014 </r>
       <r>    -9.8410     0.3367     0.0138 </r>
       <r>    -9.7750     0.7130     0.0490 </r>
       <r>    -9.7089     0.9137     0.1038 </r>
       <r>    -9.6429     0.9545     0.1657 </r>
       <r>    -9.5768     1.0456     0.2313 </r>
       <r>    -9.5108     1.2072     0.3055 </r>
       <r>    -9.4447     1.3878     0.3911 </r>
       <r>    -9.3787     1.8595     0.4926 </r>
       <r>    -9.3126     2.6353     0.6424 </r>
       <r>    -9.2466     2.7578     0.8297 </r>
       <r>    -9.1805     2.3009     0.9962 </r>
       <r>    -9.1144     2.1662     1.1409 </r>
       <r>    -9.0484     2.1377     1.2832 </r>
       <r>    -8.9823     2.0779     1.4226 </r>
       <r>    -8.9163     1.9867     1.5570 </r>
       <r>    -8.8502     2.1927     1.7280 </r>
       <r>    -8.7842     1.1572     1.8316 </r>
       <r>    -8.7181     1.6979     1.9143 </r>
       <r>    -8.6521     3.1391     2.0701 </r>
       <r>    -8.5860     3.4425     2.2888 </r>
       <r>    -8.5200     3.8078     2.5235 </r>
       <r>    -8.4539     4.0495     2.7756 </r>
       <r>    -8.3879     4.4251     3.0561 </r>
       <r>    -8.3218    11.3385     3.6712 </r>
       <r>    -8.2558     4.5986     4.0766 </r>
       <r>    -8.1897     4.1922     4.3425 </r>
       <r>    -8.1237     4.5839     4.6320 </r>
       <r>    -8.0576     6.6560     4.9896 </r>
       <r>    -7.9915     7.8860     5.4685 </r>
       <r>    -7.9255     8.6757     5.9928 </r>
       <r>    -7.8594     8.2321     6.5776 </r>
       <r>    -7.7934     6.0618     7.0222 </r>
       <r>    -7.7273     5.4842     7.4034 </r>
       <r>    -7.6613     4.7034     7.7480 </r>
       <r>    -7.5952     1.1140     7.9996 </r>
       <r>    -7.5292     0.0000     8.0000 </r>
       <r>    -7.4631     0.0000     8.0000 </r>
       <r>    -7.3971     0.0000     8.0000 </r>
       <r>    -7.3310     0.0000     8.0000 </r>
       <r>    -7.2650     0.0000     8.0000 </r>
       <r>    -7.1989     0.0000     8.0000 </r>
       <r>    -7.1329     0.0000     8.0000 </r>
       <r>    -7.0668     0.0000     8.0000 </r>
       <r>    -7.0008     0.0000     8.0000 </r>
       <r>    -6.9347     0.0000     8.0000 </r>
       <r>    -6.8686     0.0000     8.0000 </r>
       <r>    -6.8026     0.0000     8.0000 </r>
       <r>    -6.7365     0.0000     8.0000 </r>
       <r>    -6.6705     0.0000     8.0000 </r>
       <r>    -6.6044     0.0000     8.0000 </r>
       <r>    -6.5384     0.0000     8.0000 </r>
       <r>    -6.4723     0.0000     8.0000 </r>
       <r>    -6.4063     0.0000     8.0000 </r>
       <r>    -6.3402     0.0000     8.0000 </r>
       <r>    -6.2742     0.0000     8.0000 </r>
       <r>    -6.2081     0.0000     8.0000 </r>
       <r>    -6.1421     0.0000     8.0000 </r>
       <r>    -6.0760     0.0000     8.0000 </r>
       <r>    -6.0100     0.0000     8.0000 </r>
       <r>    -5.9439     0.0000     8.0000 </r>
       <r>    -5.8779     0.0000     8.0000 </r>
       <r>    -5.8118     0.0000     8.0000 </r>
       <r>    -5.7457     0.0000     8.0000 </r>
       <r>    -5.6797     0.0000     8.0000 </r>
       <r>    -5.6136     0.0000     8.0000 </r>
       <r>    -5.5476     0.0000     8.0000 </r>
       <r>    -5.4815     0.0000     8.0000 </r>
       <r>    -5.4155     0.0000     8.0000 </r>
       <r>    -5.3494     0.0000     8.0000 </r>
       <r>    -5.2834     0.0000     8.0000 </r>
       <r>    -5.2173     0.0000     8.0000 </r>
       <r>    -5.1513     0.0000     8.0000 </r>
       <r>    -5.0852     0.0000     8.0000 </r>
       <r>    -5.0192     0.0000     8.0000 </r>
       <r>    -4.9531     0.0000     8.0000 </r>
       <r>    -4.8871     0.0000     8.0000 </r>
       <r>    -4.8210     0.0000     8.0000 </r>
       <r>    -4.7550     0.0000     8.0000 </r>
       <r>    -4.6889     0.0000     8.0000 </r>
       <r>    -4.6228     0.0000     8.0000 </r>
       <r>    -4.5568     0.0000     8.0000 </r>
       <r>    -4.4907     0.0000     8.0000 </r>
       <r>    -4.4247     0.0000     8.0000 </r>
       <r>    -4.3586     0.0000     8.0000 </r>
       <r>    -4.2926     0.0000     8.0000 </r>
       <r>    -4.2265     0.0000     8.0000 </r>
       <r>    -4.1605     0.0000     8.0000 </r>
       <r>    -4.0944     0.0000     8.0000 </r>
       <r>    -4.0284     0.2873     8.0031 </r>
       <r>    -3.9623     1.7223     8.0745 </r>
       <r>    -3.8963     2.4323     8.2037 </r>
       <r>    -3.8302     4.8364     8.4387 </r>
       <r>    -3.7642     9.6231     8.9009 </r>
       <r>    -3.6981    15.1577     9.6764 </r>
       <r>    -3.6321    12.3040    10.5105 </r>
       <r>    -3.5660     7.5128    11.1160 </r>
       <r>    -3.4999     6.0790    11.5431 </r>
       <r>    -3.4339     3.5917    11.8461 </r>
       <r>    -3.3678     3.7530    12.0957 </r>
       <r>    -3.3018     2.9333    12.3078 </r>
       <r>    -3.2357     2.8623    12.4992 </r>
       <r>    -3.1697     2.7968    12.6861 </r>
       <r>    -3.1036     2.7368    12.8688 </r>
       <r>    -3.0376     2.6823    13.0477 </r>
       <r>    -2.9715     2.6333    13.2233 </r>
       <r>    -2.9055     2.0762    13.3664 </r>
       <r>    -2.8394     2.0283    13.5020 </r>
       <r>    -2.7734     1.9720    13.6342 </r>
       <r>    -2.7073     1.8853    13.7618 </r>
       <r>    -2.6413     1.8034    13.8830 </r>
       <r>    -2.5752     1.6957    13.9986 </r>
       <r>    -2.5092     1.5767    14.1068 </r>
       <r>    -2.4431     1.4463    14.2067 </r>
       <r>    -2.3770     1.3593    14.3005 </r>
       <r>    -2.3110     1.1784    14.3842 </r>
       <r>    -2.2449     1.0209    14.4567 </r>
       <r>    -2.1789     0.8868    14.5195 </r>
       <r>    -2.1128     0.8932    14.5771 </r>
       <r>    -2.0468     0.7518    14.6304 </r>
       <r>    -1.9807     0.7627    14.6804 </r>
       <r>    -1.9147     0.7721    14.7311 </r>
       <r>    -1.8486     0.7800    14.7823 </r>
       <r>    -1.7826     0.7863    14.8341 </r>
       <r>    -1.7165     0.7940    14.8862 </r>
       <r>    -1.6505     0.8105    14.9392 </r>
       <r>    -1.5844     0.8317    14.9934 </r>
       <r>    -1.5184     0.8574    15.0491 </r>
       <r>    -1.4523     0.8876    15.1068 </r>
       <r>    -1.3863     0.9225    15.1665 </r>
       <r>    -1.3202     0.9619    15.2287 </r>
       <r>    -1.2541     1.0059    15.2937 </r>
       <r>    -1.1881     1.0545    15.3617 </r>
       <r>    -1.1220     2.2583    15.4439 </r>
       <r>    -1.0560     3.1090    15.6388 </r>
       <r>    -0.9899     3.2912    15.8499 </r>
       <r>    -0.9239     3.5081    16.0743 </r>
       <r>    -0.8578     3.6149    16.3100 </r>
       <r>    -0.7918     6.9551    16.7144 </r>
       <r>    -0.7257     6.3328    17.1552 </r>
       <r>    -0.6597     5.8067    17.5577 </r>
       <r>    -0.5936     5.0108    17.9164 </r>
       <r>    -0.5276     4.9616    18.2471 </r>
       <r>    -0.4615     4.5178    18.5658 </r>
       <r>    -0.3955     4.5071    18.8637 </r>
       <r>    -0.3294     4.5155    19.1616 </r>
       <r>    -0.2634     5.0703    19.4661 </r>
       <r>    -0.1973     4.8922    19.8282 </r>
       <r>    -0.1312     4.4736    20.1215 </r>
       <r>    -0.0652     4.5484    20.4194 </r>
       <r>     0.0009     5.0119    20.7242 </r>
       <r>     0.0669     5.6008    21.0734 </r>
       <r>     0.1330     7.3589    21.5080 </r>
       <r>     0.1990     7.4967    22.0174 </r>
       <r>     0.2651     7.5402    22.5505 </r>
       <r>     0.3311     6.9123    23.0250 </r>
       <r>     0.3972     6.5379    23.4691 </r>
       <r>     0.4632     6.1853    23.8892 </r>
       <r>     0.5293     5.4711    24.2742 </r>
       <r>     0.5953     5.0026    24.6194 </r>
       <r>     0.6614     4.6563    24.9378 </r>
       <r>     0.7274     4.9504    25.2481 </r>
       <r>     0.7935     5.4960    25.5938 </r>
       <r>     0.8595     6.5134    26.0123 </r>
       <r>     0.9256     5.3360    26.3599 </r>
       <r>     0.9917     5.6823    26.7237 </r>
       <r>     1.0577     7.0349    27.1265 </r>
       <r>     1.1238     9.3458    27.6390 </r>
       <r>     1.1898     5.9367    28.1499 </r>
       <r>     1.2559     5.1892    28.5175 </r>
       <r>     1.3219     4.4262    28.8351 </r>
       <r>     1.3880     3.4674    29.1284 </r>
       <r>     1.4540     2.3768    29.2984 </r>
       <r>     1.5201     2.2693    29.4474 </r>
       <r>     1.5861     3.1164    29.6215 </r>
       <r>     1.6522     4.8739    29.8941 </r>
       <r>     1.7182     5.1556    30.2103 </r>
       <r>     1.7843     5.7628    30.5716 </r>
       <r>     1.8503     5.8466    30.9482 </r>
       <r>     1.9164     3.6687    31.2725 </r>
       <r>     1.9824     1.7582    31.4110 </r>
       <r>     2.0485     1.5315    31.5196 </r>
       <r>     2.1146     1.3088    31.6134 </r>
       <r>     2.1806     1.0900    31.6926 </r>
       <r>     2.2467     0.9412    31.7584 </r>
       <r>     2.3127     1.0494    31.8251 </r>
       <r>     2.3788     0.9800    31.8931 </r>
       <r>     2.4448     0.7329    31.9507 </r>
       <r>     2.5109     0.3081    31.9860 </r>
       <r>     2.5769     0.0886    31.9965 </r>
       <r>     2.6430     0.0171    31.9997 </r>
       <r>     2.7090     0.0000    32.0000 </r>
       <r>     2.7751     0.0000    32.0000 </r>
       <r>     2.8411     0.0000    32.0000 </r>
       <r>     2.9072     0.0000    32.0000 </r>
       <r>     2.9732     0.0000    32.0000 </r>
       <r>     3.0393     0.0000    32.0000 </r>
       <r>     3.1053     0.0000    32.0000 </r>
       <r>     3.1714     0.0000    32.0000 </r>
       <r>     3.2375     0.0000    32.0000 </r>
       <r>     3.3035     0.0010    32.0000 </r>
       <r>     3.3696     0.0034    32.0002 </r>
       <r>     3.4356     0.0071    32.0005 </r>
       <r>     3.5017     0.0123    32.0011 </r>
       <r>     3.5677     0.0189    32.0022 </r>
       <r>     3.6338     0.0269    32.0037 </r>
       <r>     3.6998     0.0363    32.0057 </r>
       <r>     3.7659     0.0471    32.0085 </r>
       <r>     3.8319     0.4205    32.0320 </r>
       <r>     3.8980     0.2154    32.0449 </r>
       <r>     3.9640     0.2565    32.0605 </r>
       <r>     4.0301     0.3017    32.0789 </r>
       <r>     4.0961     0.3510    32.1004 </r>
       <r>     4.1622     0.4202    32.1255 </r>
       <r>     4.2282     0.5930    32.1584 </r>
       <r>     4.2943     0.8702    32.2061 </r>
       <r>     4.3603     1.1686    32.2739 </r>
       <r>     4.4264     1.3834    32.3587 </r>
       <r>     4.4925     1.5954    32.4569 </r>
       <r>     4.5585     3.0015    32.6305 </r>
       <r>     4.6246     2.7245    32.7955 </r>
       <r>     4.6906     3.6338    32.9919 </r>
       <r>     4.7567     5.9200    33.3152 </r>
       <r>     4.8227     5.8265    33.6793 </r>
       <r>     4.8888     6.9476    34.1099 </r>
       <r>     4.9548     6.9082    34.5818 </r>
       <r>     5.0209     6.7380    35.0165 </r>
       <r>     5.0869     7.3712    35.4807 </r>
       <r>     5.1530     9.8124    36.0649 </r>
       <r>     5.2190     7.0968    36.5915 </r>
       <r>     5.2851     6.1731    37.0098 </r>
       <r>     5.3511     6.1431    37.4168 </r>
       <r>     5.4172     7.1989    37.8435 </r>
       <r>     5.4832     6.4961    38.3077 </r>
       <r>     5.5493     9.3271    38.7086 </r>
       <r>     5.6154     5.6127    39.2150 </r>
       <r>     5.6814     3.9094    39.4987 </r>
       <r>     5.7475     3.7121    39.7503 </r>
       <r>     5.8135     3.5401    39.9897 </r>
       <r>     5.8796     3.3934    40.2185 </r>
       <r>     5.9456     3.2719    40.4385 </r>
       <r>     6.0117     2.8971    40.6463 </r>
       <r>     6.0777     1.7367    40.8251 </r>
       <r>     6.1438     1.8935    40.9450 </r>
       <r>     6.2098     2.0491    41.0752 </r>
       <r>     6.2759     2.2033    41.2156 </r>
       <r>     6.3419     2.3563    41.3662 </r>
       <r>     6.4080     2.5080    41.5269 </r>
       <r>     6.4740     2.6726    41.6976 </r>
       <r>     6.5401     2.9374    41.8828 </r>
       <r>     6.6061     5.5820    42.1278 </r>
       <r>     6.6722     4.8105    42.4566 </r>
       <r>     6.7383     5.1448    42.7826 </r>
       <r>     6.8043     5.8458    43.1442 </r>
       <r>     6.8704     7.2550    43.5726 </r>
       <r>     6.9364     9.0555    44.0844 </r>
       <r>     7.0025     6.8971    44.6092 </r>
       <r>     7.0685     5.1099    45.0037 </r>
       <r>     7.1346     4.1746    45.3159 </r>
       <r>     7.2006     2.7301    45.5032 </r>
       <r>     7.2667     3.0821    45.6948 </r>
       <r>     7.3327     3.4969    45.9118 </r>
       <r>     7.3988     5.6108    46.1829 </r>
       <r>     7.4648    11.4121    46.6812 </r>
       <r>     7.5309     6.2078    47.2090 </r>
       <r>     7.5969     4.0367    47.5071 </r>
       <r>     7.6630     2.7883    47.7366 </r>
       <r>     7.7290     1.6738    47.8751 </r>
       <r>     7.7951     0.9680    47.9624 </r>
       <r>     7.8612     0.0000    48.0000 </r>
       <r>     7.9272     0.0000    48.0000 </r>
       <r>     7.9933     0.0000    48.0000 </r>
       <r>     8.0593     0.0000    48.0000 </r>
       <r>     8.1254     0.0000    48.0000 </r>
       <r>     8.1914     0.0000    48.0000 </r>
       <r>     8.2575     0.0000    48.0000 </r>
       <r>     8.3235     0.0000    48.0000 </r>
       <r>     8.3896     0.0000    48.0000 </r>
       <r>     8.4556     0.0000    48.0000 </r>
       <r>     8.5217     0.0000    48.0000 </r>
       <r>     8.5877     0.0000    48.0000 </r>
       <r>     8.6538     0.0000    48.0000 </r>
       <r>     8.7198     0.0000    48.0000 </r>
       <r>     8.7859     0.0000    48.0000 </r>
       <r>     8.8519     0.0000    48.0000 </r>
      </set>
     </set>
    </array>
   </total>
  </dos>
 </calculation>
 <structure name="finalpos" >
  <crystal>
   <varray name="basis" >
    <v>       5.66559983      -0.00000000      -0.00000000 </v>
    <v>      -0.00000000       5.66559983      -0.00000000 </v>
    <v>       0.00000000       0.00000000       5.66559983 </v>
   </varray>
   <i name="volume">    181.86021033 </i>
   <varray name="rec_basis" >
    <v>       0.17650382       0.00000000      -0.00000000 </v>
    <v>       0.00000000       0.17650382      -0.00000000 </v>
    <v>       0.00000000       0.00000000       0.17650382 </v>
   </varray>
  </crystal>
  <varray name="positions" >
   <v>       0.00000000       1.00000000       1.00000000 </v>
   <v>       0.50000000       0.50000000       0.00000000 </v>
   <v>       0.50000000       0.00000000       0.50000000 </v>
   <v>       1.00000000       0.50000000       0.50000000 </v>
   <v>       0.25000000       0.25000000       0.25000000 </v>
   <v>       0.75000000       0.25000000       0.75000000 </v>
   <v>       0.75000000       0.75000000       0.25000000 </v>
   <v>       0.25000000       0.75000000       0.75000000 </v>
  </varray>
 </structure>
</modeling>
