GaAs                                    
   4.50000000000000     
     1.173134   -0.000000   -0.000000
    -0.000000    1.173134   -0.000000
     0.000000    0.000000    1.173134
   As   Ga
     4     4
Direct
  0.000000  1.000000  1.000000
  0.500000  0.500000  0.000000
  0.500000  0.000000  0.500000
  1.000000  0.500000  0.500000
  0.250000  0.250000  0.250000
  0.750000  0.250000  0.750000
  0.750000  0.750000  0.250000
  0.250000  0.750000  0.750000
 
   56   56   56
 -.59811272233E+02 -.52274561928E+02 -.31431169412E+02 -.20073908625E+01 0.29786854679E+02
 0.58026851467E+02 0.78475607007E+02 0.89226581831E+02 0.90588581254E+02 0.84495730310E+02
 0.73769514946E+02 0.61435087601E+02 0.50028740945E+02 0.40314410376E+02 0.32213810219E+02
 0.25601706872E+02 0.20318727770E+02 0.16172322606E+02 0.12953824398E+02 0.10466781125E+02
 0.85487937780E+01 0.70765155748E+01 0.59580894208E+01 0.51228589088E+01 0.45140093985E+01
 0.40852603898E+01 0.38010994621E+01 0.36382621872E+01 0.35850692519E+01 0.36382621872E+01
 0.38010994621E+01 0.40852603898E+01 0.45140093985E+01 0.51228589088E+01 0.59580894208E+01
 0.70765155748E+01 0.85487937780E+01 0.10466781125E+02 0.12953824398E+02 0.16172322606E+02
 0.20318727770E+02 0.25601706872E+02 0.32213810219E+02 0.40314410376E+02 0.50028740945E+02
 0.61435087601E+02 0.73769514946E+02 0.84495730310E+02 0.90588581254E+02 0.89226581831E+02
 0.78475607007E+02 0.58026851467E+02 0.29786854679E+02 -.20073908625E+01 -.31431169412E+02
 -.52274561928E+02 -.52274561928E+02 -.45029818544E+02 -.25004195832E+02 0.32322743867E+01
 0.33676999408E+02 0.60606554242E+02 0.79933970755E+02 0.89832175171E+02 0.90625302211E+02
 0.84219148624E+02 0.73384206057E+02 0.61086282445E+02 0.49779345711E+02 0.40146386028E+02
 0.32109440340E+02 0.25546404486E+02 0.20300180283E+02 0.16180111390E+02 0.12979538220E+02
 0.10504122264E+02 0.85933840982E+01 0.71254801340E+01 0.60095965046E+01 0.51757256706E+01
 0.45674461149E+01 0.41387768521E+01 0.38544829271E+01 0.36915071051E+01 0.36382621872E+01
 0.36915071051E+01 0.38544829271E+01 0.41387768521E+01 0.45674461149E+01 0.51757256706E+01
 0.60095965046E+01 0.71254801340E+01 0.85933840982E+01 0.10504122264E+02 0.12979538220E+02
 0.16180111390E+02 0.20300180283E+02 0.25546404486E+02 0.32109440340E+02 0.40146386028E+02
 0.49779345711E+02 0.61086282445E+02 0.73384206057E+02 0.84219148624E+02 0.90625302211E+02
 0.89832175171E+02 0.79933970755E+02 0.60606554242E+02 0.33676999408E+02 0.32322743867E+01
 -.25004195832E+02 -.45029818544E+02 -.31431169412E+02 -.25004195832E+02 -.72684836262E+01
 0.17644912443E+02 0.44315311368E+02 0.67583896624E+02 0.83784714465E+02 0.91314484399E+02
 0.90541587781E+02 0.83292830812E+02 0.72194288732E+02 0.60041835125E+02 0.49035116279E+02
 0.39644274912E+02 0.31797297982E+02 0.25381032441E+02 0.20244908212E+02 0.16203854783E+02
 0.13057230529E+02 0.10617029112E+02 0.87284852424E+01 0.72741913843E+01 0.61663858122E+01
 0.53369564851E+01 0.47306501136E+01 0.43023984227E+01 0.40178164590E+01 0.38544829271E+01
 0.38010994621E+01 0.38544829271E+01 0.40178164590E+01 0.43023984227E+01 0.47306501136E+01
 0.53369564851E+01 0.61663858122E+01 0.72741913843E+01 0.87284852424E+01 0.10617029112E+02
 0.13057230529E+02 0.16203854783E+02 0.20244908212E+02 0.25381032441E+02 0.31797297982E+02
 0.39644274912E+02 0.49035116279E+02 0.60041835125E+02 0.72194288732E+02 0.83292830812E+02
 0.90541587781E+02 0.91314484399E+02 0.83784714465E+02 0.67583896624E+02 0.44315311368E+02
 0.17644912443E+02 -.72684836262E+01 -.25004195832E+02 -.20073908625E+01 0.32322743867E+01
 0.17644912443E+02 0.37740573299E+02 0.58947338151E+02 0.76929393522E+02 0.88635540978E+02
 0.92791783626E+02 0.89834567711E+02 0.81476172557E+02 0.70126888217E+02 0.58322429995E+02
 0.47810683211E+02 0.38816197702E+02 0.31281990275E+02 0.25108414080E+02 0.20154885022E+02
 0.16245354855E+02 0.13189170607E+02 0.10808801776E+02 0.89588180355E+01 0.75289432300E+01
 0.64362453987E+01 0.56156053553E+01 0.50136708078E+01 0.45869160736E+01 0.43023984227E+01
 0.41387768521E+01 0.40852603898E+01 0.41387768521E+01 0.43023984227E+01 0.45869160736E+01
 0.50136708078E+01 0.56156053553E+01 0.64362453987E+01 0.75289432300E+01 0.89588180355E+01
 0.10808801776E+02 0.13189170607E+02 0.16245354855E+02 0.20154885022E+02 0.25108414080E+02
 0.31281990275E+02 0.38816197702E+02 0.47810683211E+02 0.58322429995E+02 0.70126888217E+02
 0.81476172557E+02 0.89834567711E+02 0.92791783626E+02 0.88635540978E+02 0.76929393522E+02
 0.58947338151E+02 0.37740573299E+02 0.17644912443E+02 0.32322743867E+01 0.29786854679E+02
 0.33676999408E+02 0.44315311368E+02 0.58947338151E+02 0.73974038608E+02 0.86003403714E+02
 0.92692090718E+02 0.93149791964E+02 0.87896400972E+02 0.78511275052E+02 0.67144146356E+02
 0.55981483878E+02 0.46137659208E+02 0.37681689109E+02 0.30575864476E+02 0.24736678616E+02
 0.20035927428E+02 0.16309676172E+02 0.13381078093E+02 0.11086952598E+02 0.92944188345E+01
 0.79025760628E+01 0.68347116435E+01 0.60295624161E+01 0.54363349050E+01 0.50136708078E+01
 0.47306501136E+01 0.45674461149E+01 0.45140093985E+01 0.45674461149E+01 0.47306501136E+01
 0.50136708078E+01 0.54363349050E+01 0.60295624161E+01 0.68347116435E+01 0.79025760628E+01
 0.92944188345E+01 0.11086952598E+02 0.13381078093E+02 0.16309676172E+02 0.20035927428E+02
 0.24736678616E+02 0.30575864476E+02 0.37681689109E+02 0.46137659208E+02 0.55981483878E+02
 0.67144146356E+02 0.78511275052E+02 0.87896400972E+02 0.93149791964E+02 0.92692090718E+02
 0.86003403714E+02 0.73974038608E+02 0.58947338151E+02 0.44315311368E+02 0.33676999408E+02
 0.58026851467E+02 0.60606554242E+02 0.67583896624E+02 0.76929393522E+02 0.86003403714E+02
 0.92347118253E+02 0.94322008045E+02 0.91425163685E+02 0.84263100156E+02 0.74275274551E+02
 0.63328038263E+02 0.53100579749E+02 0.44070107864E+02 0.36276690854E+02 0.29703150660E+02
 0.24282544558E+02 0.19900392665E+02 0.16407571263E+02 0.13644477268E+02 0.11465545044E+02
 0.97529135061E+01 0.84165941066E+01 0.73869506606E+01 0.66071566508E+01 0.60295624161E+01
 0.56156053553E+01 0.53369564851E+01 0.51757256706E+01 0.51228589088E+01 0.51757256706E+01
 0.53369564851E+01 0.56156053553E+01 0.60295624161E+01 0.66071566508E+01 0.73869506606E+01
 0.84165941066E+01 0.97529135061E+01 0.11465545044E+02 0.13644477268E+02 0.16407571263E+02
 0.19900392665E+02 0.24282544558E+02 0.29703150660E+02 0.36276690854E+02 0.44070107864E+02
 0.53100579749E+02 0.63328038263E+02 0.74275274551E+02 0.84263100156E+02 0.91425163685E+02
 0.94322008045E+02 0.92347118253E+02 0.86003403714E+02 0.76929393522E+02 0.67583896624E+02
 0.60606554242E+02 0.78475607007E+02 0.79933970755E+02 0.83784714465E+02 0.88635540978E+02
 0.92692090718E+02 0.94322008045E+02 0.92516373369E+02 0.87121407929E+02 0.78817315180E+02
 0.68898250011E+02 0.58915735463E+02 0.49791244512E+02 0.41685600119E+02 0.34655412507E+02
 0.28701948150E+02 0.23773273956E+02 0.19769158374E+02 0.16557508265E+02 0.13998680748E+02
 0.11966964113E+02 0.10360896917E+02 0.91020307959E+01 0.81280717581E+01 0.73869506606E+01
 0.68347116435E+01 0.64362453987E+01 0.61663858122E+01 0.60095965046E+01 0.59580894208E+01
 0.60095965046E+01 0.61663858122E+01 0.64362453987E+01 0.68347116435E+01 0.73869506606E+01
 0.81280717581E+01 0.91020307959E+01 0.10360896917E+02 0.11966964113E+02 0.13998680748E+02
 0.16557508265E+02 0.19769158374E+02 0.23773273956E+02 0.28701948150E+02 0.34655412507E+02
 0.41685600119E+02 0.49791244512E+02 0.58915735463E+02 0.68898250011E+02 0.78817315180E+02
 0.87121407929E+02 0.92516373369E+02 0.94322008045E+02 0.92692090718E+02 0.88635540978E+02
 0.83784714465E+02 0.79933970755E+02 0.89226581831E+02 0.89832175171E+02 0.91314484399E+02
 0.92791783626E+02 0.93149791964E+02 0.91425163685E+02 0.87121407929E+02 0.80365467370E+02
 0.71880131938E+02 0.62801291613E+02 0.54137104548E+02 0.46187448266E+02 0.39081171190E+02
 0.32888140540E+02 0.27623110270E+02 0.23246354458E+02 0.19671892649E+02 0.16786227882E+02
 0.14471284189E+02 0.12622059731E+02 0.11153581085E+02 0.99986354359E+01 0.91020307959E+01
 0.84165941066E+01 0.79025760628E+01 0.75289432300E+01 0.72741913843E+01 0.71254801340E+01
 0.70765155748E+01 0.71254801340E+01 0.72741913843E+01 0.75289432300E+01 0.79025760628E+01
 0.84165941066E+01 0.91020307959E+01 0.99986354359E+01 0.11153581085E+02 0.12622059731E+02
 0.14471284189E+02 0.16786227882E+02 0.19671892649E+02 0.23246354458E+02 0.27623110270E+02
 0.32888140540E+02 0.39081171190E+02 0.46187448266E+02 0.54137104548E+02 0.62801291613E+02
 0.71880131938E+02 0.80365467370E+02 0.87121407929E+02 0.91425163685E+02 0.93149791964E+02
 0.92791783626E+02 0.91314484399E+02 0.89832175171E+02 0.90588581254E+02 0.90625302211E+02
 0.90541587781E+02 0.89834567711E+02 0.87896400972E+02 0.84263100156E+02 0.78817315180E+02
 0.71880131938E+02 0.64169750315E+02 0.56491673532E+02 0.49185798470E+02 0.42434496263E+02
 0.36365858441E+02 0.31055857942E+02 0.26526390128E+02 0.22746861413E+02 0.19645249152E+02
 0.17127330093E+02 0.15096788919E+02 0.13468653535E+02 0.12173270551E+02 0.11153581085E+02
 0.10360896917E+02 0.97529135061E+01 0.92944188345E+01 0.89588180355E+01 0.87284852424E+01
 0.85933840982E+01 0.85487937780E+01 0.85933840982E+01 0.87284852424E+01 0.89588180355E+01
 0.92944188345E+01 0.97529135061E+01 0.10360896917E+02 0.11153581085E+02 0.12173270551E+02
 0.13468653535E+02 0.15096788919E+02 0.17127330093E+02 0.19645249152E+02 0.22746861413E+02
 0.26526390128E+02 0.31055857942E+02 0.36365858441E+02 0.42434496263E+02 0.49185798470E+02
 0.56491673532E+02 0.64169750315E+02 0.71880131938E+02 0.78817315180E+02 0.84263100156E+02
 0.87896400972E+02 0.89834567711E+02 0.90541587781E+02 0.90625302211E+02 0.84495730310E+02
 0.84219148624E+02 0.83292830812E+02 0.81476172557E+02 0.78511275052E+02 0.74275274551E+02
 0.68898250011E+02 0.62801291613E+02 0.56491673532E+02 0.50239768304E+02 0.44247526123E+02
 0.38677921760E+02 0.33651852462E+02 0.29243115504E+02 0.25474886736E+02 0.22323213775E+02
 0.19729536468E+02 0.17618522519E+02 0.15914318618E+02 0.14549876520E+02 0.13468653535E+02
 0.12622059731E+02 0.11966964113E+02 0.11465545044E+02 0.11086952598E+02 0.10808801776E+02
 0.10617029112E+02 0.10504122264E+02 0.10466781125E+02 0.10504122264E+02 0.10617029112E+02
 0.10808801776E+02 0.11086952598E+02 0.11465545044E+02 0.11966964113E+02 0.12622059731E+02
 0.13468653535E+02 0.14549876520E+02 0.15914318618E+02 0.17618522519E+02 0.19729536468E+02
 0.22323213775E+02 0.25474886736E+02 0.29243115504E+02 0.33651852462E+02 0.38677921760E+02
 0.44247526123E+02 0.50239768304E+02 0.56491673532E+02 0.62801291613E+02 0.68898250011E+02
 0.74275274551E+02 0.78511275052E+02 0.81476172557E+02 0.83292830812E+02 0.84219148624E+02
 0.73769514946E+02 0.73384206057E+02 0.72194288732E+02 0.70126888217E+02 0.67144146356E+02
 0.63328038263E+02 0.58915735463E+02 0.54137104548E+02 0.49185798470E+02 0.44247526123E+02
 0.39489715752E+02 0.35053437881E+02 0.31045325171E+02 0.27530317112E+02 0.24528969850E+02
 0.22022528857E+02 0.19965204521E+02 0.18299119550E+02 0.16966277435E+02 0.15914318618E+02
 0.15096788919E+02 0.14471284189E+02 0.13998680748E+02 0.13644477268E+02 0.13381078093E+02
 0.13189170607E+02 0.13057230529E+02 0.12979538220E+02 0.12953824398E+02 0.12979538220E+02
 0.13057230529E+02 0.13189170607E+02 0.13381078093E+02 0.13644477268E+02 0.13998680748E+02
 0.14471284189E+02 0.15096788919E+02 0.15914318618E+02 0.16966277435E+02 0.18299119550E+02
 0.19965204521E+02 0.22022528857E+02 0.24528969850E+02 0.27530317112E+02 0.31045325171E+02
 0.35053437881E+02 0.39489715752E+02 0.44247526123E+02 0.49185798470E+02 0.54137104548E+02
 0.58915735463E+02 0.63328038263E+02 0.67144146356E+02 0.70126888217E+02 0.72194288732E+02
 0.73384206057E+02 0.61435087601E+02 0.61086282445E+02 0.60041835125E+02 0.58322429995E+02
 0.55981483878E+02 0.53100579749E+02 0.49791244512E+02 0.46187448266E+02 0.42434496263E+02
 0.38677921760E+02 0.35053437881E+02 0.31677339399E+02 0.28637413864E+02 0.25986396012E+02
 0.23740868149E+02 0.21886904426E+02 0.20390596884E+02 0.19209235818E+02 0.18299119550E+02
 0.17618522519E+02 0.17127330093E+02 0.16786227882E+02 0.16557508265E+02 0.16407571263E+02
 0.16309676172E+02 0.16245354855E+02 0.16203854783E+02 0.16180111390E+02 0.16172322606E+02
 0.16180111390E+02 0.16203854783E+02 0.16245354855E+02 0.16309676172E+02 0.16407571263E+02
 0.16557508265E+02 0.16786227882E+02 0.17127330093E+02 0.17618522519E+02 0.18299119550E+02
 0.19209235818E+02 0.20390596884E+02 0.21886904426E+02 0.23740868149E+02 0.25986396012E+02
 0.28637413864E+02 0.31677339399E+02 0.35053437881E+02 0.38677921760E+02 0.42434496263E+02
 0.46187448266E+02 0.49791244512E+02 0.53100579749E+02 0.55981483878E+02 0.58322429995E+02
 0.60041835125E+02 0.61086282445E+02 0.50028740945E+02 0.49779345711E+02 0.49035116279E+02
 0.47810683211E+02 0.46137659208E+02 0.44070107864E+02 0.41685600119E+02 0.39081171190E+02
 0.36365858441E+02 0.33651852462E+02 0.31045325171E+02 0.28637413864E+02 0.26496412881E+02
 0.24663114519E+02 0.23151035842E+02 0.21951524243E+02 0.21041507051E+02 0.20390596884E+02
 0.19965204521E+02 0.19729536468E+02 0.19645249152E+02 0.19671892649E+02 0.19769158374E+02
 0.19900392665E+02 0.20035927428E+02 0.20154885022E+02 0.20244908212E+02 0.20300180283E+02
 0.20318727770E+02 0.20300180283E+02 0.20244908212E+02 0.20154885022E+02 0.20035927428E+02
 0.19900392665E+02 0.19769158374E+02 0.19671892649E+02 0.19645249152E+02 0.19729536468E+02
 0.19965204521E+02 0.20390596884E+02 0.21041507051E+02 0.21951524243E+02 0.23151035842E+02
 0.24663114519E+02 0.26496412881E+02 0.28637413864E+02 0.31045325171E+02 0.33651852462E+02
 0.36365858441E+02 0.39081171190E+02 0.41685600119E+02 0.44070107864E+02 0.46137659208E+02
 0.47810683211E+02 0.49035116279E+02 0.49779345711E+02 0.40314410376E+02 0.40146386028E+02
 0.39644274912E+02 0.38816197702E+02 0.37681689109E+02 0.36276690854E+02 0.34655412507E+02
 0.32888140540E+02 0.31055857942E+02 0.29243115504E+02 0.27530317112E+02 0.25986396012E+02
 0.24663114519E+02 0.23592341754E+02 0.22786944681E+02 0.22244464754E+02 0.21951524243E+02
 0.21886904426E+02 0.22022528857E+02 0.22323213775E+02 0.22746861413E+02 0.23246354458E+02
 0.23773273956E+02 0.24282544558E+02 0.24736678616E+02 0.25108414080E+02 0.25381032441E+02
 0.25546404486E+02 0.25601706872E+02 0.25546404486E+02 0.25381032441E+02 0.25108414080E+02
 0.24736678616E+02 0.24282544558E+02 0.23773273956E+02 0.23246354458E+02 0.22746861413E+02
 0.22323213775E+02 0.22022528857E+02 0.21886904426E+02 0.21951524243E+02 0.22244464754E+02
 0.22786944681E+02 0.23592341754E+02 0.24663114519E+02 0.25986396012E+02 0.27530317112E+02
 0.29243115504E+02 0.31055857942E+02 0.32888140540E+02 0.34655412507E+02 0.36276690854E+02
 0.37681689109E+02 0.38816197702E+02 0.39644274912E+02 0.40146386028E+02 0.32213810219E+02
 0.32109440340E+02 0.31797297982E+02 0.31281990275E+02 0.30575864476E+02 0.29703150660E+02
 0.28701948150E+02 0.27623110270E+02 0.26526390128E+02 0.25474886736E+02 0.24528969850E+02
 0.23740868149E+02 0.23151035842E+02 0.22786944681E+02 0.22663959146E+02 0.22786944681E+02
 0.23151035842E+02 0.23740868149E+02 0.24528969850E+02 0.25474886736E+02 0.26526390128E+02
 0.27623110270E+02 0.28701948150E+02 0.29703150660E+02 0.30575864476E+02 0.31281990275E+02
 0.31797297982E+02 0.32109440340E+02 0.32213810219E+02 0.32109440340E+02 0.31797297982E+02
 0.31281990275E+02 0.30575864476E+02 0.29703150660E+02 0.28701948150E+02 0.27623110270E+02
 0.26526390128E+02 0.25474886736E+02 0.24528969850E+02 0.23740868149E+02 0.23151035842E+02
 0.22786944681E+02 0.22663959146E+02 0.22786944681E+02 0.23151035842E+02 0.23740868149E+02
 0.24528969850E+02 0.25474886736E+02 0.26526390128E+02 0.27623110270E+02 0.28701948150E+02
 0.29703150660E+02 0.30575864476E+02 0.31281990275E+02 0.31797297982E+02 0.32109440340E+02
 0.25601706872E+02 0.25546404486E+02 0.25381032441E+02 0.25108414080E+02 0.24736678616E+02
 0.24282544558E+02 0.23773273956E+02 0.23246354458E+02 0.22746861413E+02 0.22323213775E+02
 0.22022528857E+02 0.21886904426E+02 0.21951524243E+02 0.22244464754E+02 0.22786944681E+02
 0.23592341754E+02 0.24663114519E+02 0.25986396012E+02 0.27530317112E+02 0.29243115504E+02
 0.31055857942E+02 0.32888140540E+02 0.34655412507E+02 0.36276690854E+02 0.37681689109E+02
 0.38816197702E+02 0.39644274912E+02 0.40146386028E+02 0.40314410376E+02 0.40146386028E+02
 0.39644274912E+02 0.38816197702E+02 0.37681689109E+02 0.36276690854E+02 0.34655412507E+02
 0.32888140540E+02 0.31055857942E+02 0.29243115504E+02 0.27530317112E+02 0.25986396012E+02
 0.24663114519E+02 0.23592341754E+02 0.22786944681E+02 0.22244464754E+02 0.21951524243E+02
 0.21886904426E+02 0.22022528857E+02 0.22323213775E+02 0.22746861413E+02 0.23246354458E+02
 0.23773273956E+02 0.24282544558E+02 0.24736678616E+02 0.25108414080E+02 0.25381032441E+02
 0.25546404486E+02 0.20318727770E+02 0.20300180283E+02 0.20244908212E+02 0.20154885022E+02
 0.20035927428E+02 0.19900392665E+02 0.19769158374E+02 0.19671892649E+02 0.19645249152E+02
 0.19729536468E+02 0.19965204521E+02 0.20390596884E+02 0.21041507051E+02 0.21951524243E+02
 0.23151035842E+02 0.24663114519E+02 0.26496412881E+02 0.28637413864E+02 0.31045325171E+02
 0.33651852462E+02 0.36365858441E+02 0.39081171190E+02 0.41685600119E+02 0.44070107864E+02
 0.46137659208E+02 0.47810683211E+02 0.49035116279E+02 0.49779345711E+02 0.50028740945E+02
 0.49779345711E+02 0.49035116279E+02 0.47810683211E+02 0.46137659208E+02 0.44070107864E+02
 0.41685600119E+02 0.39081171190E+02 0.36365858441E+02 0.33651852462E+02 0.31045325171E+02
 0.28637413864E+02 0.26496412881E+02 0.24663114519E+02 0.23151035842E+02 0.21951524243E+02
 0.21041507051E+02 0.20390596884E+02 0.19965204521E+02 0.19729536468E+02 0.19645249152E+02
 0.19671892649E+02 0.19769158374E+02 0.19900392665E+02 0.20035927428E+02 0.20154885022E+02
 0.20244908212E+02 0.20300180283E+02 0.16172322606E+02 0.16180111390E+02 0.16203854783E+02
 0.16245354855E+02 0.16309676172E+02 0.16407571263E+02 0.16557508265E+02 0.16786227882E+02
 0.17127330093E+02 0.17618522519E+02 0.18299119550E+02 0.19209235818E+02 0.20390596884E+02
 0.21886904426E+02 0.23740868149E+02 0.25986396012E+02 0.28637413864E+02 0.31677339399E+02
 0.35053437881E+02 0.38677921760E+02 0.42434496263E+02 0.46187448266E+02 0.49791244512E+02
 0.53100579749E+02 0.55981483878E+02 0.58322429995E+02 0.60041835125E+02 0.61086282445E+02
 0.61435087601E+02 0.61086282445E+02 0.60041835125E+02 0.58322429995E+02 0.55981483878E+02
 0.53100579749E+02 0.49791244512E+02 0.46187448266E+02 0.42434496263E+02 0.38677921760E+02
 0.35053437881E+02 0.31677339399E+02 0.28637413864E+02 0.25986396012E+02 0.23740868149E+02
 0.21886904426E+02 0.20390596884E+02 0.19209235818E+02 0.18299119550E+02 0.17618522519E+02
 0.17127330093E+02 0.16786227882E+02 0.16557508265E+02 0.16407571263E+02 0.16309676172E+02
 0.16245354855E+02 0.16203854783E+02 0.16180111390E+02 0.12953824398E+02 0.12979538220E+02
 0.13057230529E+02 0.13189170607E+02 0.13381078093E+02 0.13644477268E+02 0.13998680748E+02
 0.14471284189E+02 0.15096788919E+02 0.15914318618E+02 0.16966277435E+02 0.18299119550E+02
 0.19965204521E+02 0.22022528857E+02 0.24528969850E+02 0.27530317112E+02 0.31045325171E+02
 0.35053437881E+02 0.39489715752E+02 0.44247526123E+02 0.49185798470E+02 0.54137104548E+02
 0.58915735463E+02 0.63328038263E+02 0.67144146356E+02 0.70126888217E+02 0.72194288732E+02
 0.73384206057E+02 0.73769514946E+02 0.73384206057E+02 0.72194288732E+02 0.70126888217E+02
 0.67144146356E+02 0.63328038263E+02 0.58915735463E+02 0.54137104548E+02 0.49185798470E+02
 0.44247526123E+02 0.39489715752E+02 0.35053437881E+02 0.31045325171E+02 0.27530317112E+02
 0.24528969850E+02 0.22022528857E+02 0.19965204521E+02 0.18299119550E+02 0.16966277435E+02
 0.15914318618E+02 0.15096788919E+02 0.14471284189E+02 0.13998680748E+02 0.13644477268E+02
 0.13381078093E+02 0.13189170607E+02 0.13057230529E+02 0.12979538220E+02 0.10466781125E+02
 0.10504122264E+02 0.10617029112E+02 0.10808801776E+02 0.11086952598E+02 0.11465545044E+02
 0.11966964113E+02 0.12622059731E+02 0.13468653535E+02 0.14549876520E+02 0.15914318618E+02
 0.17618522519E+02 0.19729536468E+02 0.22323213775E+02 0.25474886736E+02 0.29243115504E+02
 0.33651852462E+02 0.38677921760E+02 0.44247526123E+02 0.50239768304E+02 0.56491673532E+02
 0.62801291613E+02 0.68898250011E+02 0.74275274551E+02 0.78511275052E+02 0.81476172557E+02
 0.83292830812E+02 0.84219148624E+02 0.84495730310E+02 0.84219148624E+02 0.83292830812E+02
 0.81476172557E+02 0.78511275052E+02 0.74275274551E+02 0.68898250011E+02 0.62801291613E+02
 0.56491673532E+02 0.50239768304E+02 0.44247526123E+02 0.38677921760E+02 0.33651852462E+02
 0.29243115504E+02 0.25474886736E+02 0.22323213775E+02 0.19729536468E+02 0.17618522519E+02
 0.15914318618E+02 0.14549876520E+02 0.13468653535E+02 0.12622059731E+02 0.11966964113E+02
 0.11465545044E+02 0.11086952598E+02 0.10808801776E+02 0.10617029112E+02 0.10504122264E+02
 0.85487937780E+01 0.85933840982E+01 0.87284852424E+01 0.89588180355E+01 0.92944188345E+01
 0.97529135061E+01 0.10360896917E+02 0.11153581085E+02 0.12173270551E+02 0.13468653535E+02
 0.15096788919E+02 0.17127330093E+02 0.19645249152E+02 0.22746861413E+02 0.26526390128E+02
 0.31055857942E+02 0.36365858441E+02 0.42434496263E+02 0.49185798470E+02 0.56491673532E+02
 0.64169750315E+02 0.71880131938E+02 0.78817315180E+02 0.84263100156E+02 0.87896400972E+02
 0.89834567711E+02 0.90541587781E+02 0.90625302211E+02 0.90588581254E+02 0.90625302211E+02
 0.90541587781E+02 0.89834567711E+02 0.87896400972E+02 0.84263100156E+02 0.78817315180E+02
 0.71880131938E+02 0.64169750315E+02 0.56491673532E+02 0.49185798470E+02 0.42434496263E+02
 0.36365858441E+02 0.31055857942E+02 0.26526390128E+02 0.22746861413E+02 0.19645249152E+02
 0.17127330093E+02 0.15096788919E+02 0.13468653535E+02 0.12173270551E+02 0.11153581085E+02
 0.10360896917E+02 0.97529135061E+01 0.92944188345E+01 0.89588180355E+01 0.87284852424E+01
 0.85933840982E+01 0.70765155748E+01 0.71254801340E+01 0.72741913843E+01 0.75289432300E+01
 0.79025760628E+01 0.84165941066E+01 0.91020307959E+01 0.99986354359E+01 0.11153581085E+02
 0.12622059731E+02 0.14471284189E+02 0.16786227882E+02 0.19671892649E+02 0.23246354458E+02
 0.27623110270E+02 0.32888140540E+02 0.39081171190E+02 0.46187448266E+02 0.54137104548E+02
 0.62801291613E+02 0.71880131938E+02 0.80365467370E+02 0.87121407929E+02 0.91425163685E+02
 0.93149791964E+02 0.92791783626E+02 0.91314484399E+02 0.89832175171E+02 0.89226581831E+02
 0.89832175171E+02 0.91314484399E+02 0.92791783626E+02 0.93149791964E+02 0.91425163685E+02
 0.87121407929E+02 0.80365467370E+02 0.71880131938E+02 0.62801291613E+02 0.54137104548E+02
 0.46187448266E+02 0.39081171190E+02 0.32888140540E+02 0.27623110270E+02 0.23246354458E+02
 0.19671892649E+02 0.16786227882E+02 0.14471284189E+02 0.12622059731E+02 0.11153581085E+02
 0.99986354359E+01 0.91020307959E+01 0.84165941066E+01 0.79025760628E+01 0.75289432300E+01
 0.72741913843E+01 0.71254801340E+01 0.59580894208E+01 0.60095965046E+01 0.61663858122E+01
 0.64362453987E+01 0.68347116435E+01 0.73869506606E+01 0.81280717581E+01 0.91020307959E+01
 0.10360896917E+02 0.11966964113E+02 0.13998680748E+02 0.16557508265E+02 0.19769158374E+02
 0.23773273956E+02 0.28701948150E+02 0.34655412507E+02 0.41685600119E+02 0.49791244512E+02
 0.58915735463E+02 0.68898250011E+02 0.78817315180E+02 0.87121407929E+02 0.92516373369E+02
 0.94322008045E+02 0.92692090718E+02 0.88635540978E+02 0.83784714465E+02 0.79933970755E+02
 0.78475607007E+02 0.79933970755E+02 0.83784714465E+02 0.88635540978E+02 0.92692090718E+02
 0.94322008045E+02 0.92516373369E+02 0.87121407929E+02 0.78817315180E+02 0.68898250011E+02
 0.58915735463E+02 0.49791244512E+02 0.41685600119E+02 0.34655412507E+02 0.28701948150E+02
 0.23773273956E+02 0.19769158374E+02 0.16557508265E+02 0.13998680748E+02 0.11966964113E+02
 0.10360896917E+02 0.91020307959E+01 0.81280717581E+01 0.73869506606E+01 0.68347116435E+01
 0.64362453987E+01 0.61663858122E+01 0.60095965046E+01 0.51228589088E+01 0.51757256706E+01
 0.53369564851E+01 0.56156053553E+01 0.60295624161E+01 0.66071566508E+01 0.73869506606E+01
 0.84165941066E+01 0.97529135061E+01 0.11465545044E+02 0.13644477268E+02 0.16407571263E+02
 0.19900392665E+02 0.24282544558E+02 0.29703150660E+02 0.36276690854E+02 0.44070107864E+02
 0.53100579749E+02 0.63328038263E+02 0.74275274551E+02 0.84263100156E+02 0.91425163685E+02
 0.94322008045E+02 0.92347118253E+02 0.86003403714E+02 0.76929393522E+02 0.67583896624E+02
 0.60606554242E+02 0.58026851467E+02 0.60606554242E+02 0.67583896624E+02 0.76929393522E+02
 0.86003403714E+02 0.92347118253E+02 0.94322008045E+02 0.91425163685E+02 0.84263100156E+02
 0.74275274551E+02 0.63328038263E+02 0.53100579749E+02 0.44070107864E+02 0.36276690854E+02
 0.29703150660E+02 0.24282544558E+02 0.19900392665E+02 0.16407571263E+02 0.13644477268E+02
 0.11465545044E+02 0.97529135061E+01 0.84165941066E+01 0.73869506606E+01 0.66071566508E+01
 0.60295624161E+01 0.56156053553E+01 0.53369564851E+01 0.51757256706E+01 0.45140093985E+01
 0.45674461149E+01 0.47306501136E+01 0.50136708078E+01 0.54363349050E+01 0.60295624161E+01
 0.68347116435E+01 0.79025760628E+01 0.92944188345E+01 0.11086952598E+02 0.13381078093E+02
 0.16309676172E+02 0.20035927428E+02 0.24736678616E+02 0.30575864476E+02 0.37681689109E+02
 0.46137659208E+02 0.55981483878E+02 0.67144146356E+02 0.78511275052E+02 0.87896400972E+02
 0.93149791964E+02 0.92692090718E+02 0.86003403714E+02 0.73974038608E+02 0.58947338151E+02
 0.44315311368E+02 0.33676999408E+02 0.29786854679E+02 0.33676999408E+02 0.44315311368E+02
 0.58947338151E+02 0.73974038608E+02 0.86003403714E+02 0.92692090718E+02 0.93149791964E+02
 0.87896400972E+02 0.78511275052E+02 0.67144146356E+02 0.55981483878E+02 0.46137659208E+02
 0.37681689109E+02 0.30575864476E+02 0.24736678616E+02 0.20035927428E+02 0.16309676172E+02
 0.13381078093E+02 0.11086952598E+02 0.92944188345E+01 0.79025760628E+01 0.68347116435E+01
 0.60295624161E+01 0.54363349050E+01 0.50136708078E+01 0.47306501136E+01 0.45674461149E+01
 0.40852603898E+01 0.41387768521E+01 0.43023984227E+01 0.45869160736E+01 0.50136708078E+01
 0.56156053553E+01 0.64362453987E+01 0.75289432300E+01 0.89588180355E+01 0.10808801776E+02
 0.13189170607E+02 0.16245354855E+02 0.20154885022E+02 0.25108414080E+02 0.31281990275E+02
 0.38816197702E+02 0.47810683211E+02 0.58322429995E+02 0.70126888217E+02 0.81476172557E+02
 0.89834567711E+02 0.92791783626E+02 0.88635540978E+02 0.76929393522E+02 0.58947338151E+02
 0.37740573299E+02 0.17644912443E+02 0.32322743867E+01 -.20073908625E+01 0.32322743867E+01
 0.17644912443E+02 0.37740573299E+02 0.58947338151E+02 0.76929393522E+02 0.88635540978E+02
 0.92791783626E+02 0.89834567711E+02 0.81476172557E+02 0.70126888217E+02 0.58322429995E+02
 0.47810683211E+02 0.38816197702E+02 0.31281990275E+02 0.25108414080E+02 0.20154885022E+02
 0.16245354855E+02 0.13189170607E+02 0.10808801776E+02 0.89588180355E+01 0.75289432300E+01
 0.64362453987E+01 0.56156053553E+01 0.50136708078E+01 0.45869160736E+01 0.43023984227E+01
 0.41387768521E+01 0.38010994621E+01 0.38544829271E+01 0.40178164590E+01 0.43023984227E+01
 0.47306501136E+01 0.53369564851E+01 0.61663858122E+01 0.72741913843E+01 0.87284852424E+01
 0.10617029112E+02 0.13057230529E+02 0.16203854783E+02 0.20244908212E+02 0.25381032441E+02
 0.31797297982E+02 0.39644274912E+02 0.49035116279E+02 0.60041835125E+02 0.72194288732E+02
 0.83292830812E+02 0.90541587781E+02 0.91314484399E+02 0.83784714465E+02 0.67583896624E+02
 0.44315311368E+02 0.17644912443E+02 -.72684836262E+01 -.25004195832E+02 -.31431169412E+02
 -.25004195832E+02 -.72684836262E+01 0.17644912443E+02 0.44315311368E+02 0.67583896624E+02
 0.83784714465E+02 0.91314484399E+02 0.90541587781E+02 0.83292830812E+02 0.72194288732E+02
 0.60041835125E+02 0.49035116279E+02 0.39644274912E+02 0.31797297982E+02 0.25381032441E+02
 0.20244908212E+02 0.16203854783E+02 0.13057230529E+02 0.10617029112E+02 0.87284852424E+01
 0.72741913843E+01 0.61663858122E+01 0.53369564851E+01 0.47306501136E+01 0.43023984227E+01
 0.40178164590E+01 0.38544829271E+01 0.36382621872E+01 0.36915071051E+01 0.38544829271E+01
 0.41387768521E+01 0.45674461149E+01 0.51757256706E+01 0.60095965046E+01 0.71254801340E+01
 0.85933840982E+01 0.10504122264E+02 0.12979538220E+02 0.16180111390E+02 0.20300180283E+02
 0.25546404486E+02 0.32109440340E+02 0.40146386028E+02 0.49779345711E+02 0.61086282445E+02
 0.73384206057E+02 0.84219148624E+02 0.90625302211E+02 0.89832175171E+02 0.79933970755E+02
 0.60606554242E+02 0.33676999408E+02 0.32322743867E+01 -.25004195832E+02 -.45029818544E+02
 -.52274561928E+02 -.45029818544E+02 -.25004195832E+02 0.32322743867E+01 0.33676999408E+02
 0.60606554242E+02 0.79933970755E+02 0.89832175171E+02 0.90625302211E+02 0.84219148624E+02
 0.73384206057E+02 0.61086282445E+02 0.49779345711E+02 0.40146386028E+02 0.32109440340E+02
 0.25546404486E+02 0.20300180283E+02 0.16180111390E+02 0.12979538220E+02 0.10504122264E+02
 0.85933840982E+01 0.71254801340E+01 0.60095965046E+01 0.51757256706E+01 0.45674461149E+01
 0.41387768521E+01 0.38544829271E+01 0.36915071051E+01 0.35850692519E+01 0.36382621872E+01
 0.38010994621E+01 0.40852603898E+01 0.45140093985E+01 0.51228589088E+01 0.59580894208E+01
 0.70765155748E+01 0.85487937780E+01 0.10466781125E+02 0.12953824398E+02 0.16172322606E+02
 0.20318727770E+02 0.25601706872E+02 0.32213810219E+02 0.40314410376E+02 0.50028740945E+02
 0.61435087601E+02 0.73769514946E+02 0.84495730310E+02 0.90588581254E+02 0.89226581831E+02
 0.78475607007E+02 0.58026851467E+02 0.29786854679E+02 -.20073908625E+01 -.31431169412E+02
 -.52274561928E+02 -.59811272233E+02 -.52274561928E+02 -.31431169412E+02 -.20073908625E+01
 0.29786854679E+02 0.58026851467E+02 0.78475607007E+02 0.89226581831E+02 0.90588581254E+02
 0.84495730310E+02 0.73769514946E+02 0.61435087601E+02 0.50028740945E+02 0.40314410376E+02
 0.32213810219E+02 0.25601706872E+02 0.20318727770E+02 0.16172322606E+02 0.12953824398E+02
 0.10466781125E+02 0.85487937780E+01 0.70765155748E+01 0.59580894208E+01 0.51228589088E+01