   8   8   0   0
  0.2082684E+02  0.5502640E-09  0.5502640E-09  0.5502640E-09  0.1000000E-15
  1.000000000000000E-004
  CAR 
 GaAs                                    
     11.13884199    -10.73212324  301      4.72563709      1.00000000
    -10.732  0.0000E+00  0.0000E+00
    -10.659  0.0000E+00  0.0000E+00
    -10.586  0.0000E+00  0.0000E+00
    -10.513  0.0000E+00  0.0000E+00
    -10.441  0.0000E+00  0.0000E+00
    -10.368  0.0000E+00  0.0000E+00
    -10.295  0.0000E+00  0.0000E+00
    -10.222  0.0000E+00  0.0000E+00
    -10.149  0.0000E+00  0.0000E+00
    -10.076  0.0000E+00  0.0000E+00
    -10.003  0.0000E+00  0.0000E+00
     -9.930  0.0000E+00  0.0000E+00
     -9.857  0.0000E+00  0.0000E+00
     -9.784  0.0000E+00  0.0000E+00
     -9.711  0.4487E-04  0.3088E-06
     -9.639  0.9213E-03  0.2873E-04
     -9.566  0.2917E-02  0.1618E-03
     -9.493  0.5423E-02  0.4704E-03
     -9.420  0.6870E-02  0.9254E-03
     -9.347  0.7229E-02  0.1445E-02
     -9.274  0.7588E-02  0.1982E-02
     -9.201  0.8380E-02  0.2562E-02
     -9.128  0.9460E-02  0.3212E-02
     -9.055  0.1060E-01  0.3942E-02
     -8.982  0.1346E-01  0.4780E-02
     -8.910  0.1850E-01  0.5953E-02
     -8.837  0.2224E-01  0.7446E-02
     -8.764  0.1903E-01  0.8947E-02
     -8.691  0.1637E-01  0.1023E-01
     -8.618  0.1588E-01  0.1140E-01
     -8.545  0.1567E-01  0.1255E-01
     -8.472  0.1532E-01  0.1368E-01
     -8.399  0.1482E-01  0.1478E-01
     -8.326  0.1996E-01  0.1599E-01
     -8.253  0.1528E-01  0.1727E-01
     -8.181  0.8407E-02  0.1811E-01
     -8.108  0.1104E-01  0.1875E-01
     -8.035  0.1779E-01  0.1980E-01
     -7.962  0.2282E-01  0.2133E-01
     -7.889  0.2395E-01  0.2305E-01
     -7.816  0.2560E-01  0.2491E-01
     -7.743  0.2578E-01  0.2670E-01
     -7.670  0.2776E-01  0.2866E-01
     -7.597  0.5785E-01  0.3100E-01
     -7.524  0.5401E-01  0.3507E-01
     -7.451  0.4274E-01  0.3860E-01
     -7.379  0.3292E-01  0.4137E-01
     -7.306  0.2807E-01  0.4335E-01
     -7.233  0.3013E-01  0.4547E-01
     -7.160  0.3251E-01  0.4776E-01
     -7.087  0.5445E-01  0.5086E-01
     -7.014  0.5079E-01  0.5484E-01
     -6.941  0.5455E-01  0.5861E-01
     -6.868  0.5817E-01  0.6276E-01
     -6.795  0.5189E-01  0.6679E-01
     -6.722  0.3871E-01  0.6972E-01
     -6.650  0.3617E-01  0.7245E-01
     -6.577  0.3375E-01  0.7499E-01
     -6.504  0.3054E-01  0.7739E-01
     -6.431  0.1802E-01  0.7982E-01
     -6.358  0.0000E+00  0.8000E-01
     -6.285  0.0000E+00  0.8000E-01
     -6.212  0.0000E+00  0.8000E-01
     -6.139  0.0000E+00  0.8000E-01
     -6.066  0.0000E+00  0.8000E-01
     -5.993  0.0000E+00  0.8000E-01
     -5.921  0.0000E+00  0.8000E-01
     -5.848  0.0000E+00  0.8000E-01
     -5.775  0.0000E+00  0.8000E-01
     -5.702  0.0000E+00  0.8000E-01
     -5.629  0.0000E+00  0.8000E-01
     -5.556  0.0000E+00  0.8000E-01
     -5.483  0.0000E+00  0.8000E-01
     -5.410  0.0000E+00  0.8000E-01
     -5.337  0.0000E+00  0.8000E-01
     -5.264  0.0000E+00  0.8000E-01
     -5.191  0.0000E+00  0.8000E-01
     -5.119  0.0000E+00  0.8000E-01
     -5.046  0.0000E+00  0.8000E-01
     -4.973  0.0000E+00  0.8000E-01
     -4.900  0.0000E+00  0.8000E-01
     -4.827  0.0000E+00  0.8000E-01
     -4.754  0.0000E+00  0.8000E-01
     -4.681  0.0000E+00  0.8000E-01
     -4.608  0.0000E+00  0.8000E-01
     -4.535  0.0000E+00  0.8000E-01
     -4.462  0.0000E+00  0.8000E-01
     -4.390  0.0000E+00  0.8000E-01
     -4.317  0.0000E+00  0.8000E-01
     -4.244  0.0000E+00  0.8000E-01
     -4.171  0.0000E+00  0.8000E-01
     -4.098  0.0000E+00  0.8000E-01
     -4.025  0.0000E+00  0.8000E-01
     -3.952  0.0000E+00  0.8000E-01
     -3.879  0.0000E+00  0.8000E-01
     -3.806  0.0000E+00  0.8000E-01
     -3.733  0.0000E+00  0.8000E-01
     -3.661  0.0000E+00  0.8000E-01
     -3.588  0.0000E+00  0.8000E-01
     -3.515  0.0000E+00  0.8000E-01
     -3.442  0.0000E+00  0.8000E-01
     -3.369  0.0000E+00  0.8000E-01
     -3.296  0.0000E+00  0.8000E-01
     -3.223  0.0000E+00  0.8000E-01
     -3.150  0.2556E-02  0.8005E-01
     -3.077  0.2505E-01  0.8106E-01
     -3.004  0.2661E-01  0.8269E-01
     -2.931  0.4179E-01  0.8516E-01
     -2.859  0.8066E-01  0.8937E-01
     -2.786  0.8579E-01  0.9712E-01
     -2.713  0.6419E-01  0.1019E+00
     -2.640  0.6433E-01  0.1066E+00
     -2.567  0.6797E-01  0.1114E+00
     -2.494  0.4835E-01  0.1155E+00
     -2.421  0.3772E-01  0.1186E+00
     -2.348  0.3282E-01  0.1210E+00
     -2.275  0.2159E-01  0.1227E+00
     -2.202  0.2104E-01  0.1243E+00
     -2.130  0.2052E-01  0.1258E+00
     -2.057  0.2002E-01  0.1272E+00
     -1.984  0.1956E-01  0.1287E+00
     -1.911  0.1912E-01  0.1301E+00
     -1.838  0.1872E-01  0.1315E+00
     -1.765  0.1834E-01  0.1328E+00
     -1.692  0.1518E-01  0.1341E+00
     -1.619  0.1499E-01  0.1352E+00
     -1.546  0.1477E-01  0.1362E+00
     -1.473  0.1454E-01  0.1373E+00
     -1.401  0.1422E-01  0.1384E+00
     -1.328  0.1388E-01  0.1394E+00
     -1.255  0.1353E-01  0.1404E+00
     -1.182  0.1316E-01  0.1413E+00
     -1.109  0.1278E-01  0.1423E+00
     -1.036  0.1238E-01  0.1432E+00
     -0.963  0.1197E-01  0.1441E+00
     -0.890  0.1212E-01  0.1450E+00
     -0.817  0.1158E-01  0.1459E+00
     -0.744  0.1116E-01  0.1467E+00
     -0.671  0.1085E-01  0.1475E+00
     -0.599  0.1054E-01  0.1482E+00
     -0.526  0.1293E-01  0.1491E+00
     -0.453  0.2658E-01  0.1502E+00
     -0.380  0.2043E-01  0.1519E+00
     -0.307  0.1761E-01  0.1532E+00
     -0.234  0.1840E-01  0.1545E+00
     -0.161  0.1992E-01  0.1559E+00
     -0.088  0.2142E-01  0.1574E+00
     -0.015  0.3532E-01  0.1593E+00
      0.058  0.3712E-01  0.1619E+00
      0.130  0.3360E-01  0.1646E+00
      0.203  0.3387E-01  0.1669E+00
      0.276  0.4192E-01  0.1697E+00
      0.349  0.4951E-01  0.1730E+00
      0.422  0.5249E-01  0.1768E+00
      0.495  0.5232E-01  0.1807E+00
      0.568  0.4501E-01  0.1844E+00
      0.641  0.3906E-01  0.1875E+00
      0.714  0.3636E-01  0.1902E+00
      0.787  0.3953E-01  0.1930E+00
      0.859  0.3402E-01  0.1958E+00
      0.932  0.3012E-01  0.1980E+00
      1.005  0.3141E-01  0.2002E+00
      1.078  0.3368E-01  0.2026E+00
      1.151  0.3934E-01  0.2052E+00
      1.224  0.4105E-01  0.2080E+00
      1.297  0.5938E-01  0.2118E+00
      1.370  0.8622E-01  0.2168E+00
      1.443  0.7165E-01  0.2218E+00
      1.516  0.7089E-01  0.2271E+00
      1.589  0.5797E-01  0.2318E+00
      1.661  0.4925E-01  0.2357E+00
      1.734  0.3770E-01  0.2389E+00
      1.807  0.3314E-01  0.2415E+00
      1.880  0.3058E-01  0.2438E+00
      1.953  0.3002E-01  0.2460E+00
      2.026  0.3463E-01  0.2483E+00
      2.099  0.4270E-01  0.2511E+00
      2.172  0.5519E-01  0.2546E+00
      2.245  0.4616E-01  0.2586E+00
      2.318  0.5174E-01  0.2624E+00
      2.390  0.4677E-01  0.2658E+00
      2.463  0.4822E-01  0.2692E+00
      2.536  0.5521E-01  0.2733E+00
      2.609  0.6082E-01  0.2783E+00
      2.682  0.4349E-01  0.2818E+00
      2.755  0.3888E-01  0.2849E+00
      2.828  0.3432E-01  0.2875E+00
      2.901  0.2838E-01  0.2903E+00
      2.974  0.2042E-01  0.2919E+00
      3.047  0.1874E-01  0.2933E+00
      3.119  0.1749E-01  0.2946E+00
      3.192  0.2152E-01  0.2960E+00
      3.265  0.2888E-01  0.2978E+00
      3.338  0.4117E-01  0.3006E+00
      3.411  0.4154E-01  0.3034E+00
      3.484  0.4532E-01  0.3066E+00
      3.557  0.4797E-01  0.3099E+00
      3.630  0.2928E-01  0.3127E+00
      3.703  0.1375E-01  0.3140E+00
      3.776  0.1216E-01  0.3149E+00
      3.849  0.1063E-01  0.3157E+00
      3.921  0.9168E-02  0.3165E+00
      3.994  0.7766E-02  0.3171E+00
      4.067  0.7711E-02  0.3176E+00
      4.140  0.7832E-02  0.3182E+00
      4.213  0.7329E-02  0.3187E+00
      4.286  0.6201E-02  0.3192E+00
      4.359  0.4447E-02  0.3196E+00
      4.432  0.2069E-02  0.3199E+00
      4.505  0.6928E-03  0.3200E+00
      4.578  0.2244E-03  0.3200E+00
      4.650  0.1324E-04  0.3200E+00
      4.723  0.0000E+00  0.3200E+00
      4.796  0.0000E+00  0.3200E+00
      4.869  0.0000E+00  0.3200E+00
      4.942  0.0000E+00  0.3200E+00
      5.015  0.0000E+00  0.3200E+00
      5.088  0.0000E+00  0.3200E+00
      5.161  0.0000E+00  0.3200E+00
      5.234  0.0000E+00  0.3200E+00
      5.307  0.0000E+00  0.3200E+00
      5.379  0.0000E+00  0.3200E+00
      5.452  0.0000E+00  0.3200E+00
      5.525  0.0000E+00  0.3200E+00
      5.598  0.0000E+00  0.3200E+00
      5.671  0.2740E-04  0.3200E+00
      5.744  0.1988E-02  0.3201E+00
      5.817  0.2499E-02  0.3202E+00
      5.890  0.3126E-02  0.3204E+00
      5.963  0.3870E-02  0.3207E+00
      6.036  0.4732E-02  0.3210E+00
      6.109  0.5710E-02  0.3214E+00
      6.181  0.6763E-02  0.3218E+00
      6.254  0.7386E-02  0.3224E+00
      6.327  0.8105E-02  0.3229E+00
      6.400  0.9202E-02  0.3236E+00
      6.473  0.1430E-01  0.3245E+00
      6.546  0.1743E-01  0.3255E+00
      6.619  0.3156E-01  0.3272E+00
      6.692  0.2582E-01  0.3295E+00
      6.765  0.2560E-01  0.3313E+00
      6.838  0.2770E-01  0.3333E+00
      6.910  0.3020E-01  0.3354E+00
      6.983  0.3296E-01  0.3377E+00
      7.056  0.3569E-01  0.3402E+00
      7.129  0.7909E-01  0.3441E+00
      7.202  0.7850E-01  0.3496E+00
      7.275  0.6335E-01  0.3545E+00
      7.348  0.4439E-01  0.3588E+00
      7.421  0.5312E-01  0.3623E+00
      7.494  0.7324E-01  0.3670E+00
      7.567  0.3940E-01  0.3708E+00
      7.639  0.4001E-01  0.3737E+00
      7.712  0.5292E-01  0.3770E+00
      7.785  0.5846E-01  0.3811E+00
      7.858  0.6161E-01  0.3855E+00
      7.931  0.5003E-01  0.3894E+00
      8.004  0.4626E-01  0.3929E+00
      8.077  0.3700E-01  0.3958E+00
      8.150  0.3499E-01  0.3984E+00
      8.223  0.3328E-01  0.4008E+00
      8.296  0.3317E-01  0.4033E+00
      8.369  0.3361E-01  0.4057E+00
      8.441  0.2855E-01  0.4080E+00
      8.514  0.2421E-01  0.4099E+00
      8.587  0.1840E-01  0.4114E+00
      8.660  0.1970E-01  0.4128E+00
      8.733  0.2987E-01  0.4146E+00
      8.806  0.5035E-01  0.4174E+00
      8.879  0.6423E-01  0.4213E+00
      8.952  0.9992E-01  0.4294E+00
      9.025  0.6553E-01  0.4350E+00
      9.098  0.5583E-01  0.4393E+00
      9.170  0.4515E-01  0.4428E+00
      9.243  0.4206E-01  0.4459E+00
      9.316  0.3975E-01  0.4489E+00
      9.389  0.3731E-01  0.4517E+00
      9.462  0.3797E-01  0.4543E+00
      9.535  0.4863E-01  0.4574E+00
      9.608  0.4614E-01  0.4611E+00
      9.681  0.4589E-01  0.4644E+00
      9.754  0.4461E-01  0.4677E+00
      9.827  0.4230E-01  0.4709E+00
      9.899  0.3897E-01  0.4739E+00
      9.972  0.2531E-01  0.4763E+00
     10.045  0.3354E-01  0.4783E+00
     10.118  0.7301E-02  0.4799E+00
     10.191  0.0000E+00  0.4800E+00
     10.264  0.0000E+00  0.4800E+00
     10.337  0.0000E+00  0.4800E+00
     10.410  0.0000E+00  0.4800E+00
     10.483  0.0000E+00  0.4800E+00
     10.556  0.0000E+00  0.4800E+00
     10.629  0.0000E+00  0.4800E+00
     10.701  0.0000E+00  0.4800E+00
     10.774  0.0000E+00  0.4800E+00
     10.847  0.0000E+00  0.4800E+00
     10.920  0.0000E+00  0.4800E+00
     10.993  0.0000E+00  0.4800E+00
     11.066  0.0000E+00  0.4800E+00
     11.139  0.0000E+00  0.4800E+00
