<?xml version="1.0" encoding="ISO-8859-1"?>
<modeling>
 <generator>
  <i name="program" type="string">vasp </i>
  <i name="version" type="string">6.4.3  </i>
  <i name="subversion" type="string">19Mar24 (build Aug 29 2024 15:27:20) complex                          parallel </i>
  <i name="platform" type="string">LinuxIFC </i>
  <i name="date" type="string">2025 03 19 </i>
  <i name="time" type="string">11:21:37 </i>
 </generator>
 <incar>
  <i type="string" name="SYSTEM">GaAs</i>
  <i type="string" name="PREC">Normal</i>
  <i type="int" name="IBRION">     2</i>
  <i type="int" name="NFREE">     2</i>
  <i type="int" name="NSW">   100</i>
  <i type="int" name="ISIF">     3</i>
  <i name="ENCUT">    400.00000000</i>
  <i name="POTIM">      0.10000000</i>
  <i type="int" name="ISMEAR">    -5</i>
  <i name="SIGMA">      0.10000000</i>
  <i name="PSTRESS">    300.00000000</i>
 </incar>
 <primitive_cell>
  <structure name="primitive_cell" >
   <crystal>
    <varray name="basis" >
     <v>       2.75132003      -2.75132003       0.00000000 </v>
     <v>       2.75132003       0.00000000       2.75132003 </v>
     <v>       0.00000000      -2.75132003       2.75132003 </v>
    </varray>
    <i name="volume">     41.65367512 </i>
    <varray name="rec_basis" >
     <v>       0.18173095      -0.18173095      -0.18173095 </v>
     <v>       0.18173095       0.18173095       0.18173095 </v>
     <v>      -0.18173095      -0.18173095       0.18173095 </v>
    </varray>
   </crystal>
   <varray name="positions" >
    <v>       0.00000000       0.00000000       0.00000000 </v>
    <v>       0.75000000       0.75000000       0.75000000 </v>
   </varray>
  </structure>
  <varray name="primitive_index" >
   <v type="int" >        1 </v>
   <v type="int" >        5 </v>
  </varray>
 </primitive_cell>
 <kpoints>
  <generation param="Gamma">
   <v type="int" name="divisions">       5        5        5 </v>
   <v name="usershift">      0.00000000       0.00000000       0.00000000 </v>
   <v name="genvec1">      0.20000000       0.00000000       0.00000000 </v>
   <v name="genvec2">      0.00000000       0.20000000       0.00000000 </v>
   <v name="genvec3">      0.00000000       0.00000000       0.20000000 </v>
   <v name="shift">      0.00000000       0.00000000       0.00000000 </v>
  </generation>
  <varray name="kpointlist" >
   <v>       0.00000000       0.00000000       0.00000000 </v>
   <v>       0.20000000       0.00000000       0.00000000 </v>
   <v>       0.40000000       0.00000000       0.00000000 </v>
   <v>       0.20000000       0.20000000       0.00000000 </v>
   <v>       0.40000000       0.20000000       0.00000000 </v>
   <v>       0.40000000       0.40000000       0.00000000 </v>
   <v>       0.20000000       0.20000000       0.20000000 </v>
   <v>       0.40000000       0.20000000       0.20000000 </v>
   <v>       0.40000000       0.40000000       0.20000000 </v>
   <v>       0.40000000       0.40000000       0.40000000 </v>
  </varray>
  <varray name="weights" >
   <v>       0.00800000 </v>
   <v>       0.04800000 </v>
   <v>       0.04800000 </v>
   <v>       0.09600000 </v>
   <v>       0.19200000 </v>
   <v>       0.09600000 </v>
   <v>       0.06400000 </v>
   <v>       0.19200000 </v>
   <v>       0.19200000 </v>
   <v>       0.06400000 </v>
  </varray>
  <varray name="tetrahedronlist"  type="int" >
   <v type="int" >       12        7        8        8        9 </v>
   <v type="int" >       18        8        8        9        9 </v>
   <v type="int" >       24        8        9        9       10 </v>
   <v type="int" >       12        8        9        9        9 </v>
   <v type="int" >       24        9        9        9       10 </v>
   <v type="int" >       18        9        9       10       10 </v>
   <v type="int" >       24        4        5        7        8 </v>
   <v type="int" >       12        5        7        8        8 </v>
   <v type="int" >       24        5        8        8        9 </v>
   <v type="int" >       24        4        5        5        8 </v>
   <v type="int" >       24        5        5        6        8 </v>
   <v type="int" >       12        5        6        8        9 </v>
   <v type="int" >       12        9       10       10       10 </v>
   <v type="int" >       12        8        8        9       10 </v>
   <v type="int" >       12        8        9       10       10 </v>
   <v type="int" >       12        5        5        8        9 </v>
   <v type="int" >       12        5        8        9        9 </v>
   <v type="int" >       12        5        5        6        9 </v>
   <v type="int" >       12        5        6        6        9 </v>
   <v type="int" >       12        5        6        9        9 </v>
   <v type="int" >       12        5        6        8        8 </v>
   <v type="int" >       12        5        6        6        8 </v>
   <v type="int" >       12        6        8        8        9 </v>
   <v type="int" >       12        6        8        9        9 </v>
   <v type="int" >       12        6        6        8        9 </v>
   <v type="int" >       12        7        8        9       10 </v>
   <v type="int" >       12        4        5        8        9 </v>
   <v type="int" >       12        4        7        8        9 </v>
   <v type="int" >       12        4        5        6        9 </v>
   <v type="int" >       12        5        6        7        8 </v>
   <v type="int" >       12        4        5        6        7 </v>
   <v type="int" >       12        6        7        8        9 </v>
   <v type="int" >       12        2        4        7        8 </v>
   <v type="int" >       12        2        4        5        8 </v>
   <v type="int" >       12        2        3        5        8 </v>
   <v type="int" >       12        4        4        5        7 </v>
   <v type="int" >       12        2        4        4        5 </v>
   <v type="int" >       12        2        3        4        5 </v>
   <v type="int" >       12        3        4        5        5 </v>
   <v type="int" >       12        2        3        4        7 </v>
   <v type="int" >       12        3        4        5        7 </v>
   <v type="int" >       12        3        5        7        8 </v>
   <v type="int" >        6       10       10       10       10 </v>
   <v type="int" >       12        6        6        9        9 </v>
   <v type="int" >       12        6        9        9        9 </v>
   <v type="int" >       12        6        6        6        9 </v>
   <v type="int" >       12        3        5        8        8 </v>
   <v type="int" >       12        3        5        5        8 </v>
   <v type="int" >       12        3        3        5        8 </v>
   <v type="int" >       12        5        5        5        8 </v>
   <v type="int" >       12        3        5        5        5 </v>
   <v type="int" >        6        3        3        5        5 </v>
   <v type="int" >        6        5        5        8        8 </v>
   <v type="int" >       12        2        4        4        7 </v>
   <v type="int" >       12        2        2        4        4 </v>
   <v type="int" >       12        1        2        2        4 </v>
   <v type="int" >       12        1        2        4        7 </v>
  </varray>
  <i name="volumeweight">      0.00133333 </i>
 </kpoints>
 <parameters>
  <separator name="general" >
   <i type="string" name="SYSTEM">GaAs</i>
   <i type="logical" name="LCOMPAT"> F  </i>
  </separator>
  <separator name="electronic" >
   <i type="string" name="PREC">normal</i>
   <i name="ENMAX">    400.00000000</i>
   <i name="ENAUG">    462.75800000</i>
   <i name="EDIFF">      0.00010000</i>
   <i type="int" name="IALGO">    38</i>
   <i type="int" name="IWAVPR">    11</i>
   <i type="int" name="NBANDS">    24</i>
   <i type="int" name="NBANDSLOW">    -1</i>
   <i type="int" name="NBANDSHIGH">    -1</i>
   <i name="NELECT">     32.00000000</i>
   <i type="int" name="TURBO">     0</i>
   <i type="int" name="IRESTART">     0</i>
   <i type="int" name="NREBOOT">     0</i>
   <i type="int" name="NMIN">     0</i>
   <i name="EREF">      0.00000000</i>
   <separator name="electronic smearing" >
    <i type="int" name="ISMEAR">    -5</i>
    <i name="SIGMA">      0.10000000</i>
    <i name="KSPACING">      0.50000000</i>
    <i type="logical" name="KGAMMA"> T  </i>
    <i type="logical" name="KBLOWUP"> T  </i>
   </separator>
   <separator name="electronic projectors" >
    <i type="logical" name="LREAL"> F  </i>
    <v name="ROPT">      0.00000000      0.00000000</v>
    <i type="int" name="LMAXPAW">  -100</i>
    <i type="int" name="LMAXMIX">     2</i>
    <i type="logical" name="NLSPLINE"> F  </i>
   </separator>
   <separator name="electronic startup" >
    <i type="int" name="ISTART">     1</i>
    <i type="int" name="ICHARG">     0</i>
    <i type="int" name="INIWAV">     1</i>
   </separator>
   <separator name="electronic spin" >
    <i type="int" name="ISPIN">     1</i>
    <i type="logical" name="LNONCOLLINEAR"> F  </i>
    <v name="MAGMOM">      1.00000000      1.00000000      1.00000000      1.00000000      1.00000000      1.00000000      1.00000000      1.00000000</v>
    <i name="NUPDOWN">     -1.00000000</i>
    <i type="logical" name="LSORBIT"> F  </i>
    <v name="SAXIS">      0.00000000      0.00000000      1.00000000</v>
    <i type="logical" name="LSPIRAL"> F  </i>
    <v name="QSPIRAL">      0.00000000      0.00000000      0.00000000</v>
    <i type="logical" name="LZEROZ"> F  </i>
   </separator>
   <separator name="electronic exchange-correlation" >
    <i type="logical" name="LASPH"> F  </i>
   </separator>
   <separator name="electronic convergence" >
    <i type="int" name="NELM">    60</i>
    <i type="int" name="NELMDL">     0</i>
    <i type="int" name="NELMIN">     2</i>
    <i name="ENINI">    400.00000000</i>
    <separator name="electronic convergence detail" >
     <i type="logical" name="LDIAG"> T  </i>
     <i type="logical" name="LSUBROT"> F  </i>
     <i name="WEIMIN">      0.00100000</i>
     <i name="EBREAK">      0.00000104</i>
     <i name="DEPER">      0.30000000</i>
     <i type="int" name="NRMM">     4</i>
     <i name="TIME">      0.40000000</i>
    </separator>
   </separator>
   <separator name="electronic mixer" >
    <i name="AMIX">      0.40000000</i>
    <i name="BMIX">      1.00000000</i>
    <i name="AMIN">      0.10000000</i>
    <i name="AMIX_MAG">      1.60000000</i>
    <i name="BMIX_MAG">      1.00000000</i>
    <separator name="electronic mixer details" >
     <i type="int" name="IMIX">     4</i>
     <i type="logical" name="MIXFIRST"> F  </i>
     <i type="int" name="MAXMIX">   -45</i>
     <i name="WC">    100.00000000</i>
     <i type="int" name="INIMIX">     1</i>
     <i type="int" name="MIXPRE">     1</i>
     <i type="int" name="MREMOVE">     5</i>
    </separator>
   </separator>
   <separator name="electronic dipolcorrection" >
    <i type="logical" name="LDIPOL"> F  </i>
    <i type="logical" name="LMONO"> F  </i>
    <i type="int" name="IDIPOL">     0</i>
    <i name="EPSILON">      1.00000000</i>
    <v name="DIPOL">   -100.00000000   -100.00000000   -100.00000000</v>
    <i name="EFIELD">      0.00000000</i>
    <i type="logical" name="LVACPOTAV"> F  </i>
   </separator>
  </separator>
  <separator name="grids" >
   <i type="int" name="NGX">    28</i>
   <i type="int" name="NGY">    28</i>
   <i type="int" name="NGZ">    28</i>
   <i type="int" name="NGXF">    56</i>
   <i type="int" name="NGYF">    56</i>
   <i type="int" name="NGZF">    56</i>
   <i type="logical" name="ADDGRID"> F  </i>
  </separator>
  <separator name="ionic" >
   <i type="int" name="NSW">   100</i>
   <i type="int" name="IBRION">     2</i>
   <i type="int" name="MDALGO">     0</i>
   <i type="int" name="ISIF">     3</i>
   <i name="PSTRESS">    300.00000000</i>
   <i name="EDIFFG">      0.00100000</i>
   <i type="int" name="NFREE">     2</i>
   <i name="POTIM">      0.10000000</i>
   <i name="SMASS">     -3.00000000</i>
   <i name="SCALEE">      1.00000000</i>
  </separator>
  <separator name="ionic md" >
   <i name="TEBEG">      0.00010000</i>
   <i name="TEEND">      0.00010000</i>
   <i type="int" name="NBLOCK">     1</i>
   <i type="int" name="KBLOCK">   100</i>
   <i type="int" name="NPACO">   256</i>
   <i name="APACO">     10.00000000</i>
  </separator>
  <separator name="symmetry" >
   <i type="int" name="ISYM">     2</i>
   <i name="SYMPREC">      0.00001000</i>
  </separator>
  <separator name="dos" >
   <i type="int" name="LORBIT">     0</i>
   <v name="RWIGS">     -1.00000000     -1.00000000</v>
   <i type="int" name="NEDOS">   301</i>
   <i name="EMIN">     10.00000000</i>
   <i name="EMAX">    -10.00000000</i>
   <i name="EFERMI">      0.00000000</i>
  </separator>
  <separator name="writing" >
   <i type="int" name="NWRITE">     2</i>
   <i type="logical" name="LWAVE"> T  </i>
   <i type="logical" name="LDOWNSAMPLE"> F  </i>
   <i type="logical" name="LCHARG"> T  </i>
   <i type="logical" name="LPARD"> F  </i>
   <i type="logical" name="LVTOT"> F  </i>
   <i type="logical" name="LVHAR"> F  </i>
   <i type="logical" name="LELF"> F  </i>
   <i type="logical" name="LOPTICS"> F  </i>
   <v name="STM">      0.00000000      0.00000000      0.00000000      0.00000000      0.00000000      0.00000000      0.00000000</v>
  </separator>
  <separator name="performance" >
   <i type="int" name="NPAR">     8</i>
   <i type="int" name="NSIM">     4</i>
   <i type="int" name="NBLK">    -1</i>
   <i type="logical" name="LPLANE"> T  </i>
   <i type="logical" name="LSCALAPACK"> T  </i>
   <i type="logical" name="LSCAAWARE"> F  </i>
   <i type="logical" name="LSCALU"> F  </i>
   <i type="logical" name="LASYNC"> F  </i>
   <i type="logical" name="LORBITALREAL"> F  </i>
  </separator>
  <separator name="miscellaneous" >
   <i type="int" name="IDIOT">     3</i>
   <i type="int" name="PHON_NSTRUCT">    -1</i>
   <i type="logical" name="LMUSIC"> F  </i>
   <v name="POMASS">     74.92200000     69.72300000</v>
   <v name="DARWINR">      0.00000000      0.00000000</v>
   <v name="DARWINV">      1.00000000      1.00000000</v>
   <i type="logical" name="LCORR"> T  </i>
  </separator>
  <i type="logical" name="GGA_COMPAT"> T  </i>
  <i type="logical" name="LBERRY"> F  </i>
  <i type="int" name="ICORELEVEL">     0</i>
  <i type="logical" name="LDAU"> F  </i>
  <i type="int" name="I_CONSTRAINED_M">     0</i>
  <separator name="electronic exchange-correlation" >
   <i type="string" name="GGA    ">PE</i>
   <i type="string" name="XC_C">1</i>
   <i type="int" name="VOSKOWN">     0</i>
   <i type="logical" name="LHFCALC"> F  </i>
   <i type="string" name="PRECFOCK"></i>
   <i type="logical" name="LSYMGRAD"> F  </i>
   <i type="logical" name="LHFONE"> F  </i>
   <i type="logical" name="LRHFCALC"> F  </i>
   <i type="logical" name="LTHOMAS"> F  </i>
   <i type="logical" name="LMODELHF"> F  </i>
   <i type="logical" name="LFOCKACE"> F  </i>
   <i name="ENCUT4O">     -1.00000000</i>
   <i type="int" name="EXXOEP">     0</i>
   <i type="int" name="FOURORBIT">     0</i>
   <i name="AEXX">      0.00000000</i>
   <i name="HFALPHA">      0.00000000</i>
   <i name="MCALPHA">      0.00000000</i>
   <i name="ALDAX">      1.00000000</i>
   <i name="AGGAX">      1.00000000</i>
   <i name="AMGGAX">      1.00000000</i>
   <i name="ALDAC">      1.00000000</i>
   <i name="AGGAC">      1.00000000</i>
   <i name="AMGGAC">      1.00000000</i>
   <i type="int" name="NKREDX">     1</i>
   <i type="int" name="NKREDY">     1</i>
   <i type="int" name="NKREDZ">     1</i>
   <i type="logical" name="SHIFTRED"> F  </i>
   <i type="logical" name="ODDONLY"> F  </i>
   <i type="logical" name="EVENONLY"> F  </i>
   <i type="int" name="LMAXFOCK">     0</i>
   <i type="int" name="NMAXFOCKAE">     0</i>
   <i type="logical" name="LFOCKAEDFT"> F  </i>
   <i name="HFSCREEN">      0.00000000</i>
   <i name="HFSCREENC">      0.00000000</i>
   <i type="int" name="NBANDSGWLOW">     0</i>
  </separator>
  <separator name="vdW DFT" >
   <i type="logical" name="LUSE_VDW"> F  </i>
   <i type="int" name="IVDW_NL">    -1</i>
   <i type="logical" name="LSPIN_VDW"> F  </i>
   <i name="ZAB_VDW">     -0.84910000</i>
   <i name="GAMMA_VDW">      1.39626340</i>
   <i name="ALPHA_VDW">      0.00000000</i>
   <i name="PARAM1">      0.12340000</i>
   <i name="PARAM2">      1.00000000</i>
   <i name="BPARAM">      6.30000000</i>
   <i name="CPARAM">      0.00930000</i>
  </separator>
  <separator name="model GW" >
   <i type="int" name="MODEL_GW">     0</i>
   <i name="MODEL_EPS0">     12.49610254</i>
   <i name="MODEL_ALPHA">      1.00000000</i>
  </separator>
  <separator name="linear response parameters" >
   <i type="logical" name="LEPSILON"> F  </i>
   <i type="logical" name="LRPA"> F  </i>
   <i type="logical" name="LNABLA"> F  </i>
   <i type="logical" name="LVEL"> F  </i>
   <i name="CSHIFT">      0.10000000</i>
   <i name="OMEGAMAX">     -1.00000000</i>
   <i name="DEG_THRESHOLD">      0.00200000</i>
   <i name="RTIME">     -0.10000000</i>
   <i name="WPLASMAI">      0.00000000</i>
   <v name="DFIELD">      0.00000000      0.00000000      0.00000000</v>
   <v name="WPLASMA">      0.00000000      0.00000000      0.00000000      0.00000000      0.00000000      0.00000000      0.00000000      0.00000000      0.00000000</v>
  </separator>
  <separator name="orbital magnetization" >
   <i type="logical" name="NUCIND"> F  </i>
   <v name="MAGPOS">      0.00000000      0.00000000      0.00000000</v>
   <i type="logical" name="LNICSALL"> T  </i>
   <i type="logical" name="ORBITALMAG"> F  </i>
   <i type="logical" name="LMAGBLOCH"> F  </i>
   <i type="logical" name="LCHIMAG"> F  </i>
   <i type="logical" name="LGAUGE"> T  </i>
   <i type="int" name="MAGATOM">     0</i>
   <v name="MAGDIPOL">      0.00000000      0.00000000      0.00000000</v>
   <v name="AVECCONST">      0.00000000      0.00000000      0.00000000</v>
  </separator>
  <separator name="response functions" >
   <i type="logical" name="LALL_IN_ONE"> F  </i>
   <i type="int" name="IALL_IN_ONE">    -1</i>
   <i type="int" name="NBANDS_WAVE">    -1</i>
   <i type="logical" name="LFINITE_TEMPERATURE"> F  </i>
   <i type="logical" name="LADDER"> F  </i>
   <i type="logical" name="LRPAFORCE"> F  </i>
   <i type="logical" name="LFXC"> F  </i>
   <i type="logical" name="LHARTREE"> T  </i>
   <i type="int" name="IBSE">     0</i>
   <v type="int" name="KPOINT">    -1     0     0     0</v>
   <i type="logical" name="LTCTC"> F  </i>
   <i type="logical" name="LTCTE"> F  </i>
   <i type="logical" name="LTETE"> F  </i>
   <i type="logical" name="LTRIPLET"> F  </i>
   <i type="logical" name="LFXCEPS"> F  </i>
   <i type="logical" name="LFXHEG"> F  </i>
   <i type="int" name="NATURALO">     2</i>
   <i type="logical" name="LHOLEGF"> F  </i>
   <i type="logical" name="L2ORDER"> F  </i>
   <i type="logical" name="LDMP1"> F  </i>
   <i type="logical" name="LMP2LT"> F  </i>
   <i type="logical" name="LSMP2LT"> F  </i>
   <i type="logical" name="LGWLF"> F  </i>
   <i name="ENCUTGW">     -1.60000002</i>
   <i name="ENCUTGWSOFT">     -1.60000002</i>
   <i name="ENCUTLF">     -1.00000000</i>
   <i type="logical" name="ESF_SPLINES"> F  </i>
   <i name="ESF_CONV">      0.01000000</i>
   <i type="int" name="ESF_NINTER">    15</i>
   <i type="int" name="LMAXMP2">    -1</i>
   <i name="SCISSOR">      0.00000000</i>
   <i type="int" name="NOMEGA">     0</i>
   <i type="int" name="NOMEGAR">     0</i>
   <i type="int" name="NBANDSGW">    -1</i>
   <i type="int" name="NBANDSO">    -1</i>
   <i type="int" name="NBANDSV">    -1</i>
   <i type="int" name="NELMGW">     1</i>
   <i type="int" name="NELMHF">     1</i>
   <i type="int" name="DIM">     3</i>
   <i type="int" name="IESPILON">     4</i>
   <i type="int" name="ANTIRES">     0</i>
   <i name="OMEGAMAX">    -30.00000000</i>
   <i name="OMEGAMIN">    -30.00000000</i>
   <i name="OMEGATL">   -200.00000000</i>
   <i type="int" name="OMEGAGRID">     0</i>
   <i name="CSHIFT">     -0.10000000</i>
   <i type="logical" name="LSELFENERGY"> F  </i>
   <i type="logical" name="LSPECTRAL"> F  </i>
   <i type="logical" name="LSPECTRALGW"> F  </i>
   <i type="logical" name="LSINGLES"> F  </i>
   <i type="logical" name="LFERMIGW"> F  </i>
   <i type="logical" name="ODDONLYGW"> F  </i>
   <i type="logical" name="EVENONLYGW"> F  </i>
   <i type="int" name="NKREDLFX">     1</i>
   <i type="int" name="NKREDLFY">     1</i>
   <i type="int" name="NKREDLFZ">     1</i>
   <i type="int" name="MAXMEM">  2800</i>
   <i type="int" name="TELESCOPE">     0</i>
   <i type="int" name="NTAUPAR">    -1</i>
   <i type="int" name="NOMEGAPAR">    -1</i>
   <i name="DAMP_NEWTON">      0.80000001</i>
   <i name="LAMBDA">      1.00000000</i>
  </separator>
  <separator name="External order field" >
   <i name="OFIELD_KAPPA">      0.00000000</i>
   <v name="OFIELD_K">      0.00000000      0.00000000      0.00000000</v>
   <i name="OFIELD_Q6_NEAR">      0.00000000</i>
   <i name="OFIELD_Q6_FAR">      0.00000000</i>
   <i name="OFIELD_A">      0.00000000</i>
  </separator>
  <separator name="optional k-points parameters" >
   <i type="int" name="KPOINTS_OPT_MODE">     1</i>
   <i type="logical" name="LKPOINTS_OPT"> F  </i>
  </separator>
 </parameters>
 <atominfo>
  <atoms>       8 </atoms>
  <types>       2 </types>
  <array name="atoms" >
   <dimension dim="1">ion</dimension>
   <field type="string">element</field>
   <field type="int">atomtype</field>
   <set>
    <rc><c>As</c><c>   1</c></rc>
    <rc><c>As</c><c>   1</c></rc>
    <rc><c>As</c><c>   1</c></rc>
    <rc><c>As</c><c>   1</c></rc>
    <rc><c>Ga</c><c>   2</c></rc>
    <rc><c>Ga</c><c>   2</c></rc>
    <rc><c>Ga</c><c>   2</c></rc>
    <rc><c>Ga</c><c>   2</c></rc>
   </set>
  </array>
  <array name="atomtypes" >
   <dimension dim="1">type</dimension>
   <field type="int">atomspertype</field>
   <field type="string">element</field>
   <field>mass</field>
   <field>valence</field>
   <field type="string">pseudopotential</field>
   <set>
    <rc><c>   4</c><c>As</c><c>     74.92200000</c><c>      5.00000000</c><c>  PAW_PBE As 22Sep2009                  </c></rc>
    <rc><c>   4</c><c>Ga</c><c>     69.72300000</c><c>      3.00000000</c><c>  PAW_PBE Ga 08Apr2002                  </c></rc>
   </set>
  </array>
 </atominfo>
 <structure name="initialpos" >
  <crystal>
   <varray name="basis" >
    <v>       5.50264006       0.00000000       0.00000000 </v>
    <v>       0.00000000       5.50264006       0.00000000 </v>
    <v>       0.00000000       0.00000000       5.50264006 </v>
   </varray>
   <i name="volume">    166.61470049 </i>
   <varray name="rec_basis" >
    <v>       0.18173095       0.00000000       0.00000000 </v>
    <v>       0.00000000       0.18173095       0.00000000 </v>
    <v>       0.00000000       0.00000000       0.18173095 </v>
   </varray>
  </crystal>
  <varray name="positions" >
   <v>       0.00000000       0.00000000       0.00000000 </v>
   <v>       0.50000000       0.50000000       0.00000000 </v>
   <v>       0.50000000       0.00000000       0.50000000 </v>
   <v>       0.00000000       0.50000000       0.50000000 </v>
   <v>       0.25000000       0.25000000       0.25000000 </v>
   <v>       0.75000000       0.25000000       0.75000000 </v>
   <v>       0.75000000       0.75000000       0.25000000 </v>
   <v>       0.25000000       0.75000000       0.75000000 </v>
  </varray>
 </structure>
 <calculation>
  <scstep>
   <time name="dav">    0.20    0.22</time>
   <time name="total">    0.23    0.24</time>
   <energy>
    <i name="alphaZ">     82.12872199 </i>
    <i name="ewald">   -941.78307081 </i>
    <i name="hartreedc">    -71.54195235 </i>
    <i name="XCdc">   -119.79238163 </i>
    <i name="pawpsdc">   2888.93764376 </i>
    <i name="pawaedc">  -2710.21976758 </i>
    <i name="eentropy">      0.00000000 </i>
    <i name="bandstr">    -76.53513492 </i>
    <i name="atom">    916.21663293 </i>
    <i name="e_fr_energy">    -32.58930860 </i>
    <i name="e_wo_entrp">    -32.58930860 </i>
    <i name="e_0_energy">    -32.58930860 </i>
   </energy>
  </scstep>
  <scstep>
   <time name="dav">    0.19    0.20</time>
   <time name="total">    0.21    0.22</time>
   <energy>
    <i name="e_fr_energy">    -32.39905543 </i>
    <i name="e_wo_entrp">    -32.39905543 </i>
    <i name="e_0_energy">    -32.39905543 </i>
   </energy>
  </scstep>
  <scstep>
   <time name="dav">    0.19    0.20</time>
   <time name="total">    0.21    0.22</time>
   <energy>
    <i name="e_fr_energy">    -32.34089031 </i>
    <i name="e_wo_entrp">    -32.34089031 </i>
    <i name="e_0_energy">    -32.34089031 </i>
   </energy>
  </scstep>
  <scstep>
   <time name="dav">    0.19    0.20</time>
   <time name="total">    0.21    0.22</time>
   <energy>
    <i name="e_fr_energy">    -32.33572446 </i>
    <i name="e_wo_entrp">    -32.33572446 </i>
    <i name="e_0_energy">    -32.33572446 </i>
   </energy>
  </scstep>
  <scstep>
   <time name="dav">    0.20    0.22</time>
   <time name="total">    0.23    0.24</time>
   <energy>
    <i name="e_fr_energy">    -32.33532833 </i>
    <i name="e_wo_entrp">    -32.33532833 </i>
    <i name="e_0_energy">    -32.33532833 </i>
   </energy>
  </scstep>
  <scstep>
   <time name="dav">    0.14    0.14</time>
   <time name="total">    0.15    0.16</time>
   <energy>
    <i name="alphaZ">     82.12872199 </i>
    <i name="ewald">   -941.78307081 </i>
    <i name="hartreedc">    -78.87910271 </i>
    <i name="XCdc">   -120.02893403 </i>
    <i name="pawpsdc">   2304.73592825 </i>
    <i name="pawaedc">  -2126.23692148 </i>
    <i name="eentropy">      0.00000000 </i>
    <i name="bandstr">    -68.48860613 </i>
    <i name="atom">    916.21663293 </i>
    <i name="e_fr_energy">    -32.33535200 </i>
    <i name="e_wo_entrp">    -32.33535200 </i>
    <i name="e_0_energy">    -32.33535200 </i>
   </energy>
  </scstep>
  <structure>
   <crystal>
    <varray name="basis" >
     <v>       5.50264006       0.00000000       0.00000000 </v>
     <v>       0.00000000       5.50264006       0.00000000 </v>
     <v>       0.00000000       0.00000000       5.50264006 </v>
    </varray>
    <i name="volume">    166.61470049 </i>
    <varray name="rec_basis" >
     <v>       0.18173095       0.00000000       0.00000000 </v>
     <v>       0.00000000       0.18173095       0.00000000 </v>
     <v>       0.00000000       0.00000000       0.18173095 </v>
    </varray>
   </crystal>
   <varray name="positions" >
    <v>       0.00000000       0.00000000       0.00000000 </v>
    <v>       0.50000000       0.50000000       0.00000000 </v>
    <v>       0.50000000       0.00000000       0.50000000 </v>
    <v>       0.00000000       0.50000000       0.50000000 </v>
    <v>       0.25000000       0.25000000       0.25000000 </v>
    <v>       0.75000000       0.25000000       0.75000000 </v>
    <v>       0.75000000       0.75000000       0.25000000 </v>
    <v>       0.25000000       0.75000000       0.75000000 </v>
   </varray>
  </structure>
  <varray name="forces" >
   <v>       0.00000000      -0.00000000      -0.00000000 </v>
   <v>      -0.00000000       0.00000000       0.00000000 </v>
   <v>      -0.00000000       0.00000000       0.00000000 </v>
   <v>      -0.00000000       0.00000000       0.00000000 </v>
   <v>       0.00000000      -0.00000000      -0.00000000 </v>
   <v>       0.00000000      -0.00000000       0.00000000 </v>
   <v>       0.00000000      -0.00000000      -0.00000000 </v>
   <v>       0.00000000      -0.00000000      -0.00000000 </v>
  </varray>
  <varray name="stress" >
   <v>     119.27026750      -0.00000000      -0.00000000 </v>
   <v>      -0.00000000     119.27026750      -0.00000000 </v>
   <v>       0.00000000       0.00000000     119.27026750 </v>
  </varray>
  <energy>
   <i name="e_fr_energy">     -1.13755060 </i>
   <i name="e_wo_entrp">     -1.13755060 </i>
   <i name="e_0_energy">     -1.13755060 </i>
  </energy>
  <time name="totalsc">    1.70    1.79</time>
 </calculation>
 <calculation>
  <scstep>
   <time name="dav">    0.20    0.21</time>
   <time name="total">    0.22    0.24</time>
   <energy>
    <i name="alphaZ">     87.97677467 </i>
    <i name="ewald">   -963.62606038 </i>
    <i name="hartreedc">    -80.74814493 </i>
    <i name="XCdc">   -119.50006367 </i>
    <i name="pawpsdc">   2306.43656668 </i>
    <i name="pawaedc">  -2127.93409276 </i>
    <i name="eentropy">      0.00000000 </i>
    <i name="bandstr">    -50.24967428 </i>
    <i name="atom">    916.21663293 </i>
    <i name="e_fr_energy">    -31.42806174 </i>
    <i name="e_wo_entrp">    -31.42806174 </i>
    <i name="e_0_energy">    -31.42806174 </i>
   </energy>
  </scstep>
  <scstep>
   <time name="dav">    0.19    0.20</time>
   <time name="total">    0.21    0.22</time>
   <energy>
    <i name="e_fr_energy">    -31.27692669 </i>
    <i name="e_wo_entrp">    -31.27692669 </i>
    <i name="e_0_energy">    -31.27692669 </i>
   </energy>
  </scstep>
  <scstep>
   <time name="dav">    0.19    0.20</time>
   <time name="total">    0.22    0.23</time>
   <energy>
    <i name="e_fr_energy">    -31.22258095 </i>
    <i name="e_wo_entrp">    -31.22258095 </i>
    <i name="e_0_energy">    -31.22258095 </i>
   </energy>
  </scstep>
  <scstep>
   <time name="dav">    0.19    0.20</time>
   <time name="total">    0.21    0.23</time>
   <energy>
    <i name="e_fr_energy">    -31.22117378 </i>
    <i name="e_wo_entrp">    -31.22117378 </i>
    <i name="e_0_energy">    -31.22117378 </i>
   </energy>
  </scstep>
  <scstep>
   <time name="dav">    0.20    0.21</time>
   <time name="total">    0.22    0.24</time>
   <energy>
    <i name="e_fr_energy">    -31.21981109 </i>
    <i name="e_wo_entrp">    -31.21981109 </i>
    <i name="e_0_energy">    -31.21981109 </i>
   </energy>
  </scstep>
  <scstep>
   <time name="dav">    0.16    0.17</time>
   <time name="total">    0.18    0.19</time>
   <energy>
    <i name="alphaZ">     87.97677467 </i>
    <i name="ewald">   -963.62606038 </i>
    <i name="hartreedc">    -74.15587722 </i>
    <i name="XCdc">   -119.17795730 </i>
    <i name="pawpsdc">   2612.45968659 </i>
    <i name="pawaedc">  -2434.29139508 </i>
    <i name="eentropy">      0.00000000 </i>
    <i name="bandstr">    -56.62161030 </i>
    <i name="atom">    916.21663293 </i>
    <i name="e_fr_energy">    -31.21980609 </i>
    <i name="e_wo_entrp">    -31.21980609 </i>
    <i name="e_0_energy">    -31.21980609 </i>
   </energy>
  </scstep>
  <structure>
   <crystal>
    <varray name="basis" >
     <v>       5.37790899      -0.00000000      -0.00000000 </v>
     <v>      -0.00000000       5.37790899      -0.00000000 </v>
     <v>       0.00000000       0.00000000       5.37790899 </v>
    </varray>
    <i name="volume">    155.53937351 </i>
    <varray name="rec_basis" >
     <v>       0.18594588       0.00000000      -0.00000000 </v>
     <v>       0.00000000       0.18594588      -0.00000000 </v>
     <v>       0.00000000       0.00000000       0.18594588 </v>
    </varray>
   </crystal>
   <varray name="positions" >
    <v>       0.00000000       1.00000000       1.00000000 </v>
    <v>       0.50000000       0.50000000       0.00000000 </v>
    <v>       0.50000000       0.00000000       0.50000000 </v>
    <v>       1.00000000       0.50000000       0.50000000 </v>
    <v>       0.25000000       0.25000000       0.25000000 </v>
    <v>       0.75000000       0.25000000       0.75000000 </v>
    <v>       0.75000000       0.75000000       0.25000000 </v>
    <v>       0.25000000       0.75000000       0.75000000 </v>
   </varray>
  </structure>
  <varray name="forces" >
   <v>      -0.00000000       0.00000000      -0.00000000 </v>
   <v>      -0.00000000       0.00000000       0.00000000 </v>
   <v>      -0.00000000       0.00000000       0.00000000 </v>
   <v>      -0.00000000       0.00000000      -0.00000000 </v>
   <v>       0.00000000      -0.00000000       0.00000000 </v>
   <v>       0.00000000      -0.00000000       0.00000000 </v>
   <v>       0.00000000      -0.00000000       0.00000000 </v>
   <v>       0.00000000      -0.00000000       0.00000000 </v>
  </varray>
  <varray name="stress" >
   <v>     208.97887328      -0.00000000      -0.00000000 </v>
   <v>      -0.00000000     208.97887328       0.00000000 </v>
   <v>       0.00000000       0.00000000     208.97887328 </v>
  </varray>
  <energy>
   <i name="e_fr_energy">     -2.09580641 </i>
   <i name="e_wo_entrp">     -2.09580641 </i>
   <i name="e_0_energy">     -2.09580641 </i>
  </energy>
  <time name="totalsc">    1.59    1.68</time>
 </calculation>
 <calculation>
  <scstep>
   <time name="dav">    0.20    0.21</time>
   <time name="total">    0.22    0.24</time>
   <energy>
    <i name="alphaZ">     92.35532289 </i>
    <i name="ewald">   -979.35430078 </i>
    <i name="hartreedc">    -75.35999419 </i>
    <i name="XCdc">   -118.80501544 </i>
    <i name="pawpsdc">   2605.04559536 </i>
    <i name="pawaedc">  -2426.88454183 </i>
    <i name="eentropy">      0.00000000 </i>
    <i name="bandstr">    -43.39958447 </i>
    <i name="atom">    916.21663293 </i>
    <i name="e_fr_energy">    -30.18588552 </i>
    <i name="e_wo_entrp">    -30.18588552 </i>
    <i name="e_0_energy">    -30.18588552 </i>
   </energy>
  </scstep>
  <scstep>
   <time name="dav">    0.19    0.20</time>
   <time name="total">    0.21    0.23</time>
   <energy>
    <i name="e_fr_energy">    -30.11199148 </i>
    <i name="e_wo_entrp">    -30.11199148 </i>
    <i name="e_0_energy">    -30.11199148 </i>
   </energy>
  </scstep>
  <scstep>
   <time name="dav">    0.19    0.20</time>
   <time name="total">    0.21    0.23</time>
   <energy>
    <i name="e_fr_energy">    -30.08512563 </i>
    <i name="e_wo_entrp">    -30.08512563 </i>
    <i name="e_0_energy">    -30.08512563 </i>
   </energy>
  </scstep>
  <scstep>
   <time name="dav">    0.19    0.20</time>
   <time name="total">    0.22    0.23</time>
   <energy>
    <i name="e_fr_energy">    -30.08450889 </i>
    <i name="e_wo_entrp">    -30.08450889 </i>
    <i name="e_0_energy">    -30.08450889 </i>
   </energy>
  </scstep>
  <scstep>
   <time name="dav">    0.20    0.21</time>
   <time name="total">    0.22    0.24</time>
   <energy>
    <i name="e_fr_energy">    -30.08386837 </i>
    <i name="e_wo_entrp">    -30.08386837 </i>
    <i name="e_0_energy">    -30.08386837 </i>
   </energy>
  </scstep>
  <scstep>
   <time name="dav">    0.14    0.14</time>
   <time name="total">    0.15    0.16</time>
   <energy>
    <i name="alphaZ">     92.35532289 </i>
    <i name="ewald">   -979.35430078 </i>
    <i name="hartreedc">    -70.86676784 </i>
    <i name="XCdc">   -118.58209499 </i>
    <i name="pawpsdc">   2847.36116436 </i>
    <i name="pawaedc">  -2669.46488344 </i>
    <i name="eentropy">      0.00000000 </i>
    <i name="bandstr">    -47.74893717 </i>
    <i name="atom">    916.21663293 </i>
    <i name="e_fr_energy">    -30.08386403 </i>
    <i name="e_wo_entrp">    -30.08386403 </i>
    <i name="e_0_energy">    -30.08386403 </i>
   </energy>
  </scstep>
  <structure>
   <crystal>
    <varray name="basis" >
     <v>       5.29154081      -0.00000000      -0.00000000 </v>
     <v>      -0.00000000       5.29154081      -0.00000000 </v>
     <v>       0.00000000       0.00000000       5.29154081 </v>
    </varray>
    <i name="volume">    148.16528153 </i>
    <varray name="rec_basis" >
     <v>       0.18898087       0.00000000      -0.00000000 </v>
     <v>       0.00000000       0.18898087      -0.00000000 </v>
     <v>       0.00000000       0.00000000       0.18898087 </v>
    </varray>
   </crystal>
   <varray name="positions" >
    <v>       0.00000000       0.00000000       0.00000000 </v>
    <v>       0.50000000       0.50000000       0.00000000 </v>
    <v>       0.50000000       0.00000000       0.50000000 </v>
    <v>       0.00000000       0.50000000       0.50000000 </v>
    <v>       0.25000000       0.25000000       0.25000000 </v>
    <v>       0.75000000       0.25000000       0.75000000 </v>
    <v>       0.75000000       0.75000000       0.25000000 </v>
    <v>       0.25000000       0.75000000       0.75000000 </v>
   </varray>
  </structure>
  <varray name="forces" >
   <v>      -0.00000000       0.00000000      -0.00000000 </v>
   <v>       0.00000000      -0.00000000      -0.00000000 </v>
   <v>      -0.00000000      -0.00000000      -0.00000000 </v>
   <v>       0.00000000      -0.00000000      -0.00000000 </v>
   <v>      -0.00000000       0.00000000       0.00000000 </v>
   <v>      -0.00000000       0.00000000       0.00000000 </v>
   <v>      -0.00000000       0.00000000       0.00000000 </v>
   <v>       0.00000000       0.00000000       0.00000000 </v>
  </varray>
  <varray name="stress" >
   <v>     287.97379510       0.00000000       0.00000000 </v>
   <v>       0.00000000     287.97379510      -0.00000000 </v>
   <v>      -0.00000000       0.00000000     287.97379510 </v>
  </varray>
  <energy>
   <i name="e_fr_energy">     -2.34062761 </i>
   <i name="e_wo_entrp">     -2.34062761 </i>
   <i name="e_0_energy">     -2.34062761 </i>
  </energy>
  <time name="totalsc">    1.56    1.65</time>
 </calculation>
 <calculation>
  <scstep>
   <time name="dav">    0.20    0.22</time>
   <time name="total">    0.23    0.24</time>
   <energy>
    <i name="alphaZ">     93.00952424 </i>
    <i name="ewald">   -981.66128942 </i>
    <i name="hartreedc">    -71.03221577 </i>
    <i name="XCdc">   -118.52570047 </i>
    <i name="pawpsdc">   2842.02294918 </i>
    <i name="pawaedc">  -2664.13228671 </i>
    <i name="eentropy">      0.00000000 </i>
    <i name="bandstr">    -45.79224113 </i>
    <i name="atom">    916.21663293 </i>
    <i name="e_fr_energy">    -29.89462714 </i>
    <i name="e_wo_entrp">    -29.89462714 </i>
    <i name="e_0_energy">    -29.89462714 </i>
   </energy>
  </scstep>
  <scstep>
   <time name="dav">    0.19    0.20</time>
   <time name="total">    0.21    0.22</time>
   <energy>
    <i name="e_fr_energy">    -29.89310580 </i>
    <i name="e_wo_entrp">    -29.89310580 </i>
    <i name="e_0_energy">    -29.89310580 </i>
   </energy>
  </scstep>
  <scstep>
   <time name="dav">    0.19    0.21</time>
   <time name="total">    0.22    0.23</time>
   <energy>
    <i name="e_fr_energy">    -29.89258375 </i>
    <i name="e_wo_entrp">    -29.89258375 </i>
    <i name="e_0_energy">    -29.89258375 </i>
   </energy>
  </scstep>
  <scstep>
   <time name="dav">    0.13    0.14</time>
   <time name="total">    0.15    0.16</time>
   <energy>
    <i name="alphaZ">     93.00952424 </i>
    <i name="ewald">   -981.66128942 </i>
    <i name="hartreedc">    -70.41136703 </i>
    <i name="XCdc">   -118.50074892 </i>
    <i name="pawpsdc">   2877.79517057 </i>
    <i name="pawaedc">  -2699.93738470 </i>
    <i name="eentropy">      0.00000000 </i>
    <i name="bandstr">    -46.40310924 </i>
    <i name="atom">    916.21663293 </i>
    <i name="e_fr_energy">    -29.89257156 </i>
    <i name="e_wo_entrp">    -29.89257156 </i>
    <i name="e_0_energy">    -29.89257156 </i>
   </energy>
  </scstep>
  <structure>
   <crystal>
    <varray name="basis" >
     <v>       5.27910524      -0.00000000      -0.00000000 </v>
     <v>      -0.00000000       5.27910524      -0.00000000 </v>
     <v>       0.00000000       0.00000000       5.27910524 </v>
    </varray>
    <i name="volume">    147.12313096 </i>
    <varray name="rec_basis" >
     <v>       0.18942604       0.00000000      -0.00000000 </v>
     <v>       0.00000000       0.18942604      -0.00000000 </v>
     <v>       0.00000000       0.00000000       0.18942604 </v>
    </varray>
   </crystal>
   <varray name="positions" >
    <v>       0.00000000       1.00000000       1.00000000 </v>
    <v>       0.50000000       0.50000000       0.00000000 </v>
    <v>       0.50000000       0.00000000       0.50000000 </v>
    <v>       1.00000000       0.50000000       0.50000000 </v>
    <v>       0.25000000       0.25000000       0.25000000 </v>
    <v>       0.75000000       0.25000000       0.75000000 </v>
    <v>       0.75000000       0.75000000       0.25000000 </v>
    <v>       0.25000000       0.75000000       0.75000000 </v>
   </varray>
  </structure>
  <varray name="forces" >
   <v>       0.00000000       0.00000000       0.00000000 </v>
   <v>      -0.00000000      -0.00000000       0.00000000 </v>
   <v>       0.00000000      -0.00000000       0.00000000 </v>
   <v>       0.00000000       0.00000000       0.00000000 </v>
   <v>      -0.00000000      -0.00000000      -0.00000000 </v>
   <v>      -0.00000000      -0.00000000      -0.00000000 </v>
   <v>      -0.00000000      -0.00000000      -0.00000000 </v>
   <v>      -0.00000000       0.00000000      -0.00000000 </v>
  </varray>
  <varray name="stress" >
   <v>     300.50523563       0.00000000      -0.00000000 </v>
   <v>      -0.00000000     300.50523563       0.00000000 </v>
   <v>      -0.00000000       0.00000000     300.50523563 </v>
  </varray>
  <energy>
   <i name="e_fr_energy">     -2.34447282 </i>
   <i name="e_wo_entrp">     -2.34447282 </i>
   <i name="e_0_energy">     -2.34447282 </i>
  </energy>
  <time name="totalsc">    1.12    1.20</time>
  <eigenvalues>
   <array>
    <dimension dim="1">band</dimension>
    <dimension dim="2">kpoint</dimension>
    <dimension dim="3">spin</dimension>
    <field>eigene</field>
    <field>occ</field>
    <set>
     <set comment="spin 1">
      <set comment="kpoint 1">
       <r>   -9.7321    1.0000 </r>
       <r>   -6.4662    1.0000 </r>
       <r>   -6.4662    1.0000 </r>
       <r>   -6.4662    1.0000 </r>
       <r>   -3.2075    1.0000 </r>
       <r>   -3.2075    1.0000 </r>
       <r>   -3.2075    1.0000 </r>
       <r>    1.1788    1.0000 </r>
       <r>    1.1788    1.0000 </r>
       <r>    1.1788    1.0000 </r>
       <r>    1.1788    1.0000 </r>
       <r>    1.1788    1.0000 </r>
       <r>    1.1788    1.0000 </r>
       <r>    4.6738    1.0000 </r>
       <r>    4.6738    1.0000 </r>
       <r>    4.6738    1.0000 </r>
       <r>    5.6639    0.0000 </r>
       <r>    5.6639    0.0000 </r>
       <r>    5.6639    0.0000 </r>
       <r>    6.1409    0.0000 </r>
       <r>    6.1409    0.0000 </r>
       <r>    6.1409    0.0000 </r>
       <r>    6.9091    0.0000 </r>
       <r>    8.4522    0.0000 </r>
      </set>
      <set comment="kpoint 2">
       <r>   -9.5488    1.0000 </r>
       <r>   -7.1052    1.0000 </r>
       <r>   -6.4344    1.0000 </r>
       <r>   -6.4344    1.0000 </r>
       <r>   -3.1110    1.0000 </r>
       <r>   -3.1110    1.0000 </r>
       <r>   -2.3244    1.0000 </r>
       <r>    0.7280    1.0000 </r>
       <r>    0.7280    1.0000 </r>
       <r>    0.7948    1.0000 </r>
       <r>    0.7948    1.0000 </r>
       <r>    1.3833    1.0000 </r>
       <r>    1.3833    1.0000 </r>
       <r>    3.3656    1.0000 </r>
       <r>    4.0266    1.0000 </r>
       <r>    4.0266    1.0000 </r>
       <r>    5.7236    0.0000 </r>
       <r>    6.5857    0.0000 </r>
       <r>    6.5857    0.0000 </r>
       <r>    6.5890    0.0000 </r>
       <r>    7.0722    0.0000 </r>
       <r>    7.0722    0.0000 </r>
       <r>    7.8311    0.0000 </r>
       <r>    8.1767    0.0000 </r>
      </set>
      <set comment="kpoint 3">
       <r>   -9.0081    1.0000 </r>
       <r>   -8.1488    1.0000 </r>
       <r>   -6.3810    1.0000 </r>
       <r>   -6.3810    1.0000 </r>
       <r>   -2.9265    1.0000 </r>
       <r>   -2.9265    1.0000 </r>
       <r>   -0.5748    1.0000 </r>
       <r>    0.1018    1.0000 </r>
       <r>    0.1018    1.0000 </r>
       <r>    0.3063    1.0000 </r>
       <r>    0.3063    1.0000 </r>
       <r>    1.3933    1.0000 </r>
       <r>    1.9823    1.0000 </r>
       <r>    1.9823    1.0000 </r>
       <r>    2.9197    1.0000 </r>
       <r>    2.9197    1.0000 </r>
       <r>    6.1137    0.0000 </r>
       <r>    6.8766    0.0000 </r>
       <r>    7.6751    0.0000 </r>
       <r>    8.6509    0.0000 </r>
       <r>    8.6509    0.0000 </r>
       <r>    8.8603    0.0000 </r>
       <r>    9.2059    0.0000 </r>
       <r>    9.2059    0.0000 </r>
      </set>
      <set comment="kpoint 4">
       <r>   -9.3686    1.0000 </r>
       <r>   -7.0152    1.0000 </r>
       <r>   -7.0152    1.0000 </r>
       <r>   -6.4590    1.0000 </r>
       <r>   -3.0218    1.0000 </r>
       <r>   -2.3770    1.0000 </r>
       <r>   -2.3770    1.0000 </r>
       <r>   -0.1403    1.0000 </r>
       <r>    0.8308    1.0000 </r>
       <r>    0.8308    1.0000 </r>
       <r>    1.2063    1.0000 </r>
       <r>    1.2063    1.0000 </r>
       <r>    1.5245    1.0000 </r>
       <r>    2.1250    1.0000 </r>
       <r>    3.3647    1.0000 </r>
       <r>    4.4557    1.0000 </r>
       <r>    6.2222    0.0000 </r>
       <r>    6.6975    0.0000 </r>
       <r>    6.6975    0.0000 </r>
       <r>    7.4318    0.0000 </r>
       <r>    7.4318    0.0000 </r>
       <r>    7.8744    0.0000 </r>
       <r>    8.6354    0.0000 </r>
       <r>    8.8296    0.0000 </r>
      </set>
      <set comment="kpoint 5">
       <r>   -8.8392    1.0000 </r>
       <r>   -8.0056    1.0000 </r>
       <r>   -6.7945    1.0000 </r>
       <r>   -6.5730    1.0000 </r>
       <r>   -2.8065    1.0000 </r>
       <r>   -2.5569    1.0000 </r>
       <r>   -0.9615    1.0000 </r>
       <r>   -0.4554    1.0000 </r>
       <r>   -0.0309    1.0000 </r>
       <r>    0.5638    1.0000 </r>
       <r>    1.1351    1.0000 </r>
       <r>    1.3583    1.0000 </r>
       <r>    1.4305    1.0000 </r>
       <r>    2.1805    1.0000 </r>
       <r>    2.2604    1.0000 </r>
       <r>    3.5075    1.0000 </r>
       <r>    7.1279    0.0000 </r>
       <r>    7.4781    0.0000 </r>
       <r>    7.8764    0.0000 </r>
       <r>    8.3534    0.0000 </r>
       <r>    8.7749    0.0000 </r>
       <r>    8.7837    0.0000 </r>
       <r>    9.4450    0.0000 </r>
       <r>   10.0675    0.0000 </r>
      </set>
      <set comment="kpoint 6">
       <r>   -8.3497    1.0000 </r>
       <r>   -7.6063    1.0000 </r>
       <r>   -7.6063    1.0000 </r>
       <r>   -7.0589    1.0000 </r>
       <r>   -2.4070    1.0000 </r>
       <r>   -1.7283    1.0000 </r>
       <r>   -1.7283    1.0000 </r>
       <r>   -0.6551    1.0000 </r>
       <r>   -0.3495    1.0000 </r>
       <r>    0.3504    1.0000 </r>
       <r>    0.3504    1.0000 </r>
       <r>    1.1828    1.0000 </r>
       <r>    2.4647    1.0000 </r>
       <r>    2.5369    1.0000 </r>
       <r>    2.5369    1.0000 </r>
       <r>    3.6448    1.0000 </r>
       <r>    7.1962    0.0000 </r>
       <r>    8.1581    0.0000 </r>
       <r>    8.5591    0.0000 </r>
       <r>    8.5591    0.0000 </r>
       <r>    9.4053    0.0000 </r>
       <r>    9.4053    0.0000 </r>
       <r>    9.9240    0.0000 </r>
       <r>   10.1388    0.0000 </r>
      </set>
      <set comment="kpoint 7">
       <r>   -9.1925    1.0000 </r>
       <r>   -6.9621    1.0000 </r>
       <r>   -6.9621    1.0000 </r>
       <r>   -6.9621    1.0000 </r>
       <r>   -2.5195    1.0000 </r>
       <r>   -2.5195    1.0000 </r>
       <r>   -2.5195    1.0000 </r>
       <r>    0.3231    1.0000 </r>
       <r>    0.3231    1.0000 </r>
       <r>    0.3231    1.0000 </r>
       <r>    1.0354    1.0000 </r>
       <r>    1.7131    1.0000 </r>
       <r>    1.7131    1.0000 </r>
       <r>    1.7131    1.0000 </r>
       <r>    3.9920    1.0000 </r>
       <r>    3.9920    1.0000 </r>
       <r>    6.4532    0.0000 </r>
       <r>    6.4532    0.0000 </r>
       <r>    6.4532    0.0000 </r>
       <r>    7.0802    0.0000 </r>
       <r>    8.8590    0.0000 </r>
       <r>    8.8590    0.0000 </r>
       <r>    8.8590    0.0000 </r>
       <r>    9.3224    0.0000 </r>
      </set>
      <set comment="kpoint 8">
       <r>   -8.6777    1.0000 </r>
       <r>   -7.8784    1.0000 </r>
       <r>   -6.8696    1.0000 </r>
       <r>   -6.8696    1.0000 </r>
       <r>   -2.7792    1.0000 </r>
       <r>   -2.7792    1.0000 </r>
       <r>   -1.5319    1.0000 </r>
       <r>   -0.3458    1.0000 </r>
       <r>    0.1489    1.0000 </r>
       <r>    0.1489    1.0000 </r>
       <r>    1.5770    1.0000 </r>
       <r>    1.7207    1.0000 </r>
       <r>    1.7207    1.0000 </r>
       <r>    2.2590    1.0000 </r>
       <r>    3.0866    1.0000 </r>
       <r>    3.1492    1.0000 </r>
       <r>    7.0858    0.0000 </r>
       <r>    7.5466    0.0000 </r>
       <r>    7.6838    0.0000 </r>
       <r>    7.6838    0.0000 </r>
       <r>    8.9441    0.0000 </r>
       <r>    9.4187    0.0000 </r>
       <r>    9.9789    0.0000 </r>
       <r>    9.9789    0.0000 </r>
      </set>
      <set comment="kpoint 9">
       <r>   -8.2158    1.0000 </r>
       <r>   -7.5406    1.0000 </r>
       <r>   -7.5406    1.0000 </r>
       <r>   -7.1372    1.0000 </r>
       <r>   -2.8636    1.0000 </r>
       <r>   -2.3891    1.0000 </r>
       <r>   -2.3891    1.0000 </r>
       <r>   -1.5331    1.0000 </r>
       <r>    0.6210    1.0000 </r>
       <r>    1.2379    1.0000 </r>
       <r>    1.2379    1.0000 </r>
       <r>    2.2428    1.0000 </r>
       <r>    2.5841    1.0000 </r>
       <r>    2.6304    1.0000 </r>
       <r>    2.6304    1.0000 </r>
       <r>    3.5535    1.0000 </r>
       <r>    7.3463    0.0000 </r>
       <r>    7.4061    0.0000 </r>
       <r>    8.0168    0.0000 </r>
       <r>    8.0168    0.0000 </r>
       <r>    8.8815    0.0000 </r>
       <r>    8.8815    0.0000 </r>
       <r>    9.5356    0.0000 </r>
       <r>    9.5874    0.0000 </r>
      </set>
      <set comment="kpoint 10">
       <r>   -7.8572    1.0000 </r>
       <r>   -7.4239    1.0000 </r>
       <r>   -7.4239    1.0000 </r>
       <r>   -7.4239    1.0000 </r>
       <r>   -3.0818    1.0000 </r>
       <r>   -3.0818    1.0000 </r>
       <r>   -3.0818    1.0000 </r>
       <r>   -2.5745    1.0000 </r>
       <r>    2.2943    1.0000 </r>
       <r>    2.2943    1.0000 </r>
       <r>    2.2943    1.0000 </r>
       <r>    2.8989    1.0000 </r>
       <r>    2.8989    1.0000 </r>
       <r>    2.8989    1.0000 </r>
       <r>    3.2782    1.0000 </r>
       <r>    3.2782    1.0000 </r>
       <r>    6.4403    0.0000 </r>
       <r>    7.1643    0.0000 </r>
       <r>    7.1643    0.0000 </r>
       <r>    7.1643    0.0000 </r>
       <r>    9.0314    0.0000 </r>
       <r>    9.0314    0.0000 </r>
       <r>    9.0314    0.0000 </r>
       <r>    9.4175    0.0000 </r>
      </set>
     </set>
    </set>
   </array>
  </eigenvalues>
  <separator name="orbital magnetization" >
   <v name="MAGDIPOLOUT">      0.00000000      0.00000000      0.00000000</v>
  </separator>
  <dos>
   <i name="efermi">      4.72563709 </i>
   <total>
    <array>
     <dimension dim="1">gridpoints</dimension>
     <dimension dim="2">spin</dimension>
     <field>energy</field>
     <field>total</field>
     <field>integrated</field>
     <set>
      <set comment="spin 1">
       <r>   -10.7321     0.0000     0.0000 </r>
       <r>   -10.6592     0.0000     0.0000 </r>
       <r>   -10.5863     0.0000     0.0000 </r>
       <r>   -10.5134     0.0000     0.0000 </r>
       <r>   -10.4405     0.0000     0.0000 </r>
       <r>   -10.3676     0.0000     0.0000 </r>
       <r>   -10.2947     0.0000     0.0000 </r>
       <r>   -10.2218     0.0000     0.0000 </r>
       <r>   -10.1489     0.0000     0.0000 </r>
       <r>   -10.0760     0.0000     0.0000 </r>
       <r>   -10.0031     0.0000     0.0000 </r>
       <r>    -9.9302     0.0000     0.0000 </r>
       <r>    -9.8573     0.0000     0.0000 </r>
       <r>    -9.7844     0.0000     0.0000 </r>
       <r>    -9.7115     0.0045     0.0000 </r>
       <r>    -9.6386     0.0921     0.0029 </r>
       <r>    -9.5657     0.2917     0.0162 </r>
       <r>    -9.4928     0.5423     0.0470 </r>
       <r>    -9.4199     0.6870     0.0925 </r>
       <r>    -9.3470     0.7229     0.1445 </r>
       <r>    -9.2741     0.7588     0.1982 </r>
       <r>    -9.2012     0.8380     0.2562 </r>
       <r>    -9.1283     0.9460     0.3212 </r>
       <r>    -9.0553     1.0601     0.3942 </r>
       <r>    -8.9824     1.3461     0.4780 </r>
       <r>    -8.9095     1.8501     0.5953 </r>
       <r>    -8.8366     2.2240     0.7446 </r>
       <r>    -8.7637     1.9034     0.8947 </r>
       <r>    -8.6908     1.6366     1.0234 </r>
       <r>    -8.6179     1.5880     1.1398 </r>
       <r>    -8.5450     1.5672     1.2549 </r>
       <r>    -8.4721     1.5320     1.3680 </r>
       <r>    -8.3992     1.4824     1.4779 </r>
       <r>    -8.3263     1.9957     1.5989 </r>
       <r>    -8.2534     1.5278     1.7270 </r>
       <r>    -8.1805     0.8407     1.8113 </r>
       <r>    -8.1076     1.1041     1.8755 </r>
       <r>    -8.0347     1.7785     1.9798 </r>
       <r>    -7.9618     2.2816     2.1335 </r>
       <r>    -7.8889     2.3954     2.3045 </r>
       <r>    -7.8160     2.5602     2.4906 </r>
       <r>    -7.7431     2.5784     2.6702 </r>
       <r>    -7.6702     2.7763     2.8656 </r>
       <r>    -7.5973     5.7845     3.1000 </r>
       <r>    -7.5244     5.4007     3.5075 </r>
       <r>    -7.4515     4.2739     3.8600 </r>
       <r>    -7.3786     3.2924     4.1373 </r>
       <r>    -7.3057     2.8072     4.3355 </r>
       <r>    -7.2328     3.0128     4.5474 </r>
       <r>    -7.1599     3.2509     4.7756 </r>
       <r>    -7.0870     5.4452     5.0863 </r>
       <r>    -7.0141     5.0792     5.4839 </r>
       <r>    -6.9412     5.4549     5.8611 </r>
       <r>    -6.8683     5.8174     6.2756 </r>
       <r>    -6.7953     5.1889     6.6789 </r>
       <r>    -6.7224     3.8715     6.9716 </r>
       <r>    -6.6495     3.6174     7.2445 </r>
       <r>    -6.5766     3.3747     7.4993 </r>
       <r>    -6.5037     3.0541     7.7388 </r>
       <r>    -6.4308     1.8016     7.9821 </r>
       <r>    -6.3579     0.0000     8.0000 </r>
       <r>    -6.2850     0.0000     8.0000 </r>
       <r>    -6.2121     0.0000     8.0000 </r>
       <r>    -6.1392     0.0000     8.0000 </r>
       <r>    -6.0663     0.0000     8.0000 </r>
       <r>    -5.9934     0.0000     8.0000 </r>
       <r>    -5.9205     0.0000     8.0000 </r>
       <r>    -5.8476     0.0000     8.0000 </r>
       <r>    -5.7747     0.0000     8.0000 </r>
       <r>    -5.7018     0.0000     8.0000 </r>
       <r>    -5.6289     0.0000     8.0000 </r>
       <r>    -5.5560     0.0000     8.0000 </r>
       <r>    -5.4831     0.0000     8.0000 </r>
       <r>    -5.4102     0.0000     8.0000 </r>
       <r>    -5.3373     0.0000     8.0000 </r>
       <r>    -5.2644     0.0000     8.0000 </r>
       <r>    -5.1915     0.0000     8.0000 </r>
       <r>    -5.1186     0.0000     8.0000 </r>
       <r>    -5.0457     0.0000     8.0000 </r>
       <r>    -4.9728     0.0000     8.0000 </r>
       <r>    -4.8999     0.0000     8.0000 </r>
       <r>    -4.8270     0.0000     8.0000 </r>
       <r>    -4.7541     0.0000     8.0000 </r>
       <r>    -4.6812     0.0000     8.0000 </r>
       <r>    -4.6083     0.0000     8.0000 </r>
       <r>    -4.5353     0.0000     8.0000 </r>
       <r>    -4.4624     0.0000     8.0000 </r>
       <r>    -4.3895     0.0000     8.0000 </r>
       <r>    -4.3166     0.0000     8.0000 </r>
       <r>    -4.2437     0.0000     8.0000 </r>
       <r>    -4.1708     0.0000     8.0000 </r>
       <r>    -4.0979     0.0000     8.0000 </r>
       <r>    -4.0250     0.0000     8.0000 </r>
       <r>    -3.9521     0.0000     8.0000 </r>
       <r>    -3.8792     0.0000     8.0000 </r>
       <r>    -3.8063     0.0000     8.0000 </r>
       <r>    -3.7334     0.0000     8.0000 </r>
       <r>    -3.6605     0.0000     8.0000 </r>
       <r>    -3.5876     0.0000     8.0000 </r>
       <r>    -3.5147     0.0000     8.0000 </r>
       <r>    -3.4418     0.0000     8.0000 </r>
       <r>    -3.3689     0.0000     8.0000 </r>
       <r>    -3.2960     0.0000     8.0000 </r>
       <r>    -3.2231     0.0000     8.0000 </r>
       <r>    -3.1502     0.2556     8.0049 </r>
       <r>    -3.0773     2.5046     8.1060 </r>
       <r>    -3.0044     2.6609     8.2692 </r>
       <r>    -2.9315     4.1792     8.5157 </r>
       <r>    -2.8586     8.0657     8.9372 </r>
       <r>    -2.7857     8.5789     9.7123 </r>
       <r>    -2.7128     6.4188    10.1878 </r>
       <r>    -2.6399     6.4334    10.6561 </r>
       <r>    -2.5670     6.7971    11.1434 </r>
       <r>    -2.4941     4.8353    11.5463 </r>
       <r>    -2.4212     3.7716    11.8589 </r>
       <r>    -2.3483     3.2819    12.0952 </r>
       <r>    -2.2754     2.1593    12.2701 </r>
       <r>    -2.2024     2.1041    12.4255 </r>
       <r>    -2.1295     2.0518    12.5769 </r>
       <r>    -2.0566     2.0024    12.7247 </r>
       <r>    -1.9837     1.9559    12.8690 </r>
       <r>    -1.9108     1.9124    13.0100 </r>
       <r>    -1.8379     1.8718    13.1479 </r>
       <r>    -1.7650     1.8341    13.2830 </r>
       <r>    -1.6921     1.5176    13.4050 </r>
       <r>    -1.6192     1.4990    13.5150 </r>
       <r>    -1.5463     1.4771    13.6235 </r>
       <r>    -1.4734     1.4537    13.7305 </r>
       <r>    -1.4005     1.4216    13.8353 </r>
       <r>    -1.3276     1.3879    13.9378 </r>
       <r>    -1.2547     1.3527    14.0377 </r>
       <r>    -1.1818     1.3160    14.1350 </r>
       <r>    -1.1089     1.2778    14.2295 </r>
       <r>    -1.0360     1.2380    14.3212 </r>
       <r>    -0.9631     1.1968    14.4100 </r>
       <r>    -0.8902     1.2121    14.5005 </r>
       <r>    -0.8173     1.1584    14.5869 </r>
       <r>    -0.7444     1.1162    14.6697 </r>
       <r>    -0.6715     1.0855    14.7499 </r>
       <r>    -0.5986     1.0537    14.8246 </r>
       <r>    -0.5257     1.2931    14.9090 </r>
       <r>    -0.4528     2.6579    15.0181 </r>
       <r>    -0.3799     2.0432    15.1915 </r>
       <r>    -0.3070     1.7609    15.3229 </r>
       <r>    -0.2341     1.8396    15.4537 </r>
       <r>    -0.1612     1.9918    15.5929 </r>
       <r>    -0.0883     2.1417    15.7440 </r>
       <r>    -0.0154     3.5316    15.9252 </r>
       <r>     0.0576     3.7118    16.1878 </r>
       <r>     0.1305     3.3603    16.4615 </r>
       <r>     0.2034     3.3867    16.6911 </r>
       <r>     0.2763     4.1924    16.9660 </r>
       <r>     0.3492     4.9509    17.3031 </r>
       <r>     0.4221     5.2490    17.6832 </r>
       <r>     0.4950     5.2322    18.0659 </r>
       <r>     0.5679     4.5010    18.4414 </r>
       <r>     0.6408     3.9057    18.7500 </r>
       <r>     0.7137     3.6356    19.0244 </r>
       <r>     0.7866     3.9529    19.3046 </r>
       <r>     0.8595     3.4020    19.5837 </r>
       <r>     0.9324     3.0125    19.8011 </r>
       <r>     1.0053     3.1407    20.0249 </r>
       <r>     1.0782     3.3681    20.2612 </r>
       <r>     1.1511     3.9340    20.5229 </r>
       <r>     1.2240     4.1055    20.8023 </r>
       <r>     1.2969     5.9382    21.1802 </r>
       <r>     1.3698     8.6216    21.6788 </r>
       <r>     1.4427     7.1651    22.1783 </r>
       <r>     1.5156     7.0890    22.7142 </r>
       <r>     1.5885     5.7973    23.1807 </r>
       <r>     1.6614     4.9249    23.5721 </r>
       <r>     1.7343     3.7705    23.8929 </r>
       <r>     1.8072     3.3140    24.1499 </r>
       <r>     1.8801     3.0578    24.3809 </r>
       <r>     1.9530     3.0018    24.6006 </r>
       <r>     2.0259     3.4627    24.8305 </r>
       <r>     2.0988     4.2704    25.1117 </r>
       <r>     2.1717     5.5192    25.4589 </r>
       <r>     2.2446     4.6160    25.8587 </r>
       <r>     2.3176     5.1744    26.2400 </r>
       <r>     2.3905     4.6767    26.5752 </r>
       <r>     2.4634     4.8217    26.9215 </r>
       <r>     2.5363     5.5215    27.3269 </r>
       <r>     2.6092     6.0820    27.8259 </r>
       <r>     2.6821     4.3494    28.1849 </r>
       <r>     2.7550     3.8883    28.4852 </r>
       <r>     2.8279     3.4319    28.7520 </r>
       <r>     2.9008     2.8379    29.0322 </r>
       <r>     2.9737     2.0422    29.1862 </r>
       <r>     3.0466     1.8737    29.3292 </r>
       <r>     3.1195     1.7492    29.4598 </r>
       <r>     3.1924     2.1520    29.5956 </r>
       <r>     3.2653     2.8876    29.7790 </r>
       <r>     3.3382     4.1167    30.0565 </r>
       <r>     3.4111     4.1538    30.3424 </r>
       <r>     3.4840     4.5316    30.6596 </r>
       <r>     3.5569     4.7967    30.9903 </r>
       <r>     3.6298     2.9285    31.2713 </r>
       <r>     3.7027     1.3746    31.3958 </r>
       <r>     3.7756     1.2158    31.4902 </r>
       <r>     3.8485     1.0632    31.5732 </r>
       <r>     3.9214     0.9168    31.6453 </r>
       <r>     3.9943     0.7766    31.7070 </r>
       <r>     4.0672     0.7711    31.7621 </r>
       <r>     4.1401     0.7832    31.8191 </r>
       <r>     4.2130     0.7329    31.8747 </r>
       <r>     4.2859     0.6201    31.9244 </r>
       <r>     4.3588     0.4447    31.9636 </r>
       <r>     4.4317     0.2069    31.9878 </r>
       <r>     4.5046     0.0693    31.9961 </r>
       <r>     4.5776     0.0224    31.9993 </r>
       <r>     4.6505     0.0013    32.0000 </r>
       <r>     4.7234     0.0000    32.0000 </r>
       <r>     4.7963     0.0000    32.0000 </r>
       <r>     4.8692     0.0000    32.0000 </r>
       <r>     4.9421     0.0000    32.0000 </r>
       <r>     5.0150     0.0000    32.0000 </r>
       <r>     5.0879     0.0000    32.0000 </r>
       <r>     5.1608     0.0000    32.0000 </r>
       <r>     5.2337     0.0000    32.0000 </r>
       <r>     5.3066     0.0000    32.0000 </r>
       <r>     5.3795     0.0000    32.0000 </r>
       <r>     5.4524     0.0000    32.0000 </r>
       <r>     5.5253     0.0000    32.0000 </r>
       <r>     5.5982     0.0000    32.0000 </r>
       <r>     5.6711     0.0027    32.0000 </r>
       <r>     5.7440     0.1988    32.0076 </r>
       <r>     5.8169     0.2499    32.0239 </r>
       <r>     5.8898     0.3126    32.0444 </r>
       <r>     5.9627     0.3870    32.0698 </r>
       <r>     6.0356     0.4732    32.1011 </r>
       <r>     6.1085     0.5710    32.1391 </r>
       <r>     6.1814     0.6763    32.1847 </r>
       <r>     6.2543     0.7386    32.2366 </r>
       <r>     6.3272     0.8105    32.2929 </r>
       <r>     6.4001     0.9202    32.3557 </r>
       <r>     6.4730     1.4304    32.4479 </r>
       <r>     6.5459     1.7431    32.5530 </r>
       <r>     6.6188     3.1557    32.7221 </r>
       <r>     6.6917     2.5817    32.9535 </r>
       <r>     6.7646     2.5601    33.1336 </r>
       <r>     6.8376     2.7702    33.3278 </r>
       <r>     6.9105     3.0196    33.5383 </r>
       <r>     6.9834     3.2964    33.7685 </r>
       <r>     7.0563     3.5689    34.0188 </r>
       <r>     7.1292     7.9091    34.4134 </r>
       <r>     7.2021     7.8496    34.9594 </r>
       <r>     7.2750     6.3346    35.4515 </r>
       <r>     7.3479     4.4389    35.8849 </r>
       <r>     7.4208     5.3118    36.2330 </r>
       <r>     7.4937     7.3239    36.6990 </r>
       <r>     7.5666     3.9404    37.0821 </r>
       <r>     7.6395     4.0010    37.3715 </r>
       <r>     7.7124     5.2916    37.7013 </r>
       <r>     7.7853     5.8458    38.1087 </r>
       <r>     7.8582     6.1611    38.5478 </r>
       <r>     7.9311     5.0035    38.9404 </r>
       <r>     8.0040     4.6259    39.2919 </r>
       <r>     8.0769     3.6998    39.5783 </r>
       <r>     8.1498     3.4991    39.8406 </r>
       <r>     8.2227     3.3281    40.0847 </r>
       <r>     8.2956     3.3175    40.3270 </r>
       <r>     8.3685     3.3610    40.5698 </r>
       <r>     8.4414     2.8550    40.7960 </r>
       <r>     8.5143     2.4208    40.9878 </r>
       <r>     8.5872     1.8395    41.1429 </r>
       <r>     8.6601     1.9701    41.2777 </r>
       <r>     8.7330     2.9871    41.4581 </r>
       <r>     8.8059     5.0350    41.7364 </r>
       <r>     8.8788     6.4233    42.1347 </r>
       <r>     8.9517     9.9918    42.9436 </r>
       <r>     9.0246     6.5533    43.5022 </r>
       <r>     9.0976     5.5830    43.9315 </r>
       <r>     9.1705     4.5149    44.2757 </r>
       <r>     9.2434     4.2058    44.5916 </r>
       <r>     9.3163     3.9750    44.8901 </r>
       <r>     9.3892     3.7310    45.1709 </r>
       <r>     9.4621     3.7966    45.4341 </r>
       <r>     9.5350     4.8633    45.7415 </r>
       <r>     9.6079     4.6143    46.1051 </r>
       <r>     9.6808     4.5891    46.4412 </r>
       <r>     9.7537     4.4612    46.7717 </r>
       <r>     9.8266     4.2304    47.0892 </r>
       <r>     9.8995     3.8970    47.3861 </r>
       <r>     9.9724     2.5308    47.6260 </r>
       <r>    10.0453     3.3540    47.8294 </r>
       <r>    10.1182     0.7301    47.9909 </r>
       <r>    10.1911     0.0000    48.0000 </r>
       <r>    10.2640     0.0000    48.0000 </r>
       <r>    10.3369     0.0000    48.0000 </r>
       <r>    10.4098     0.0000    48.0000 </r>
       <r>    10.4827     0.0000    48.0000 </r>
       <r>    10.5556     0.0000    48.0000 </r>
       <r>    10.6285     0.0000    48.0000 </r>
       <r>    10.7014     0.0000    48.0000 </r>
       <r>    10.7743     0.0000    48.0000 </r>
       <r>    10.8472     0.0000    48.0000 </r>
       <r>    10.9201     0.0000    48.0000 </r>
       <r>    10.9930     0.0000    48.0000 </r>
       <r>    11.0659     0.0000    48.0000 </r>
       <r>    11.1388     0.0000    48.0000 </r>
      </set>
     </set>
    </array>
   </total>
  </dos>
 </calculation>
 <structure name="finalpos" >
  <crystal>
   <varray name="basis" >
    <v>       5.27910524      -0.00000000      -0.00000000 </v>
    <v>      -0.00000000       5.27910524      -0.00000000 </v>
    <v>       0.00000000       0.00000000       5.27910524 </v>
   </varray>
   <i name="volume">    147.12313096 </i>
   <varray name="rec_basis" >
    <v>       0.18942604       0.00000000      -0.00000000 </v>
    <v>       0.00000000       0.18942604      -0.00000000 </v>
    <v>       0.00000000       0.00000000       0.18942604 </v>
   </varray>
  </crystal>
  <varray name="positions" >
   <v>       0.00000000       1.00000000       1.00000000 </v>
   <v>       0.50000000       0.50000000       0.00000000 </v>
   <v>       0.50000000       0.00000000       0.50000000 </v>
   <v>       1.00000000       0.50000000       0.50000000 </v>
   <v>       0.25000000       0.25000000       0.25000000 </v>
   <v>       0.75000000       0.25000000       0.75000000 </v>
   <v>       0.75000000       0.75000000       0.25000000 </v>
   <v>       0.25000000       0.75000000       0.75000000 </v>
  </varray>
 </structure>
</modeling>
