 running    8 mpi-ranks, on    1 nodes
 distrk:  each k-point on    8 cores,    1 groups
 distr:  one band on    1 cores,    8 groups
 vasp.6.4.3 19Mar24 (build Aug 29 2024 15:27:20) complex                        
  
 POSCAR found type information on POSCAR AsGa
 POSCAR found :  2 types and       8 ions
 scaLAPACK will be used
 -----------------------------------------------------------------------------
|                                                                             |
|           W    W    AA    RRRRR   N    N  II  N    N   GGGG   !!!           |
|           W    W   A  A   R    R  NN   N  II  NN   N  G    G  !!!           |
|           W    W  A    A  R    R  N N  N  II  N N  N  G       !!!           |
|           W WW W  AAAAAA  RRRRR   N  N N  II  N  N N  G  GGG   !            |
|           WW  WW  A    A  R   R   N   NN  II  N   NN  G    G                |
|           W    W  A    A  R    R  N    N  II  N    N   GGGG   !!!           |
|                                                                             |
|     For optimal performance we recommend to set                             |
|       NCORE = 2 up to number-of-cores-per-socket                            |
|     NCORE specifies how many cores store one orbital (NPAR=cpu/NCORE).      |
|     This setting can greatly improve the performance of VASP for DFT.       |
|     The default, NCORE=1 might be grossly inefficient on modern             |
|     multi-core architectures or massively parallel machines. Do your        |
|     own testing! More info at https://www.vasp.at/wiki/index.php/NCORE      |
|     Unfortunately you need to use the default for GW and RPA                |
|     calculations (for HF NCORE is supported but not extensively tested      |
|     yet).                                                                   |
|                                                                             |
 -----------------------------------------------------------------------------

 LDA part: xc-table for (Slater+PW92), standard interpolation
 found WAVECAR, reading the header
 POSCAR, INCAR and KPOINTS ok, starting setup
 FFT: planning ... GRIDC
 FFT: planning ... GRID_SOFT
 FFT: planning ... GRID
 reading WAVECAR
 the WAVECAR file was read successfully
 initial charge from wavefunction
 entering main loop
       N       E                     dE             d eps       ncg     rms          rms(c)
DAV:   1    -0.325893086012E+02   -0.32589E+02   -0.75425E+00   544   0.117E+01    0.528E+00
DAV:   2    -0.323990554323E+02    0.19025E+00   -0.38757E-01   496   0.286E+00    0.317E+00
DAV:   3    -0.323408903101E+02    0.58165E-01   -0.30976E-01   512   0.202E+00    0.319E-01
DAV:   4    -0.323357244572E+02    0.51659E-02   -0.23270E-02   504   0.682E-01    0.213E-01
DAV:   5    -0.323353283272E+02    0.39613E-03   -0.20480E-03   560   0.181E-01    0.582E-02
DAV:   6    -0.323353519957E+02   -0.23668E-04   -0.42759E-05   256   0.308E-02
   1 F= -.11375506E+01 E0= -.11375506E+01  d E =-.113755E+01
 curvature:   0.00 expect dE= 0.000E+00 dE for cont linesearch  0.000E+00
 trial: gam= 0.00000 g(F)=  0.205E-60 g(S)=  0.128E+01 ort = 0.000E+00 (trialstep = 0.100E+01)
 search vector abs. value=  0.128E+01
 bond charge predicted
       N       E                     dE             d eps       ncg     rms          rms(c)
DAV:   1    -0.314280617419E+02    0.90727E+00   -0.46259E+00   544   0.962E+00    0.238E+00
DAV:   2    -0.312769266875E+02    0.15114E+00   -0.28529E-01   504   0.235E+00    0.127E+00
DAV:   3    -0.312225809478E+02    0.54346E-01   -0.19002E-01   520   0.163E+00    0.448E-01
DAV:   4    -0.312211737800E+02    0.14072E-02   -0.66089E-03   512   0.393E-01    0.365E-01
DAV:   5    -0.312198110887E+02    0.13627E-02   -0.27980E-03   560   0.222E-01    0.130E-01
DAV:   6    -0.312198060898E+02    0.49989E-05   -0.21575E-04   368   0.609E-02
   2 F= -.20958064E+01 E0= -.20958064E+01  d E =-.958256E+00
 trial-energy change:   -0.958256  1 .order   -0.939485   -1.278077   -0.600892
 step:   1.6924(harm=  1.8873)  dis= 0.00000  next Energy=    -2.310078 (dE=-0.117E+01)
 bond charge predicted
       N       E                     dE             d eps       ncg     rms          rms(c)
DAV:   1    -0.301858855203E+02    0.10339E+01   -0.22324E+00   544   0.672E+00    0.168E+00
DAV:   2    -0.301119914840E+02    0.73894E-01   -0.13395E-01   504   0.164E+00    0.902E-01
DAV:   3    -0.300851256273E+02    0.26866E-01   -0.92210E-02   504   0.115E+00    0.317E-01
DAV:   4    -0.300845088875E+02    0.61674E-03   -0.31232E-03   520   0.272E-01    0.261E-01
DAV:   5    -0.300838683675E+02    0.64052E-03   -0.13021E-03   560   0.153E-01    0.904E-02
DAV:   6    -0.300838640346E+02    0.43329E-05   -0.94882E-05   248   0.418E-02
   3 F= -.23406276E+01 E0= -.23406276E+01  d E =-.120308E+01
 curvature:  -0.90 expect dE=-0.402E-02 dE for cont linesearch -0.402E-02
 ZBRENT: extrapolating
 opt :   1.7921  next Energy=    -2.344398 (dE=-0.121E+01)
 bond charge predicted
       N       E                     dE             d eps       ncg     rms          rms(c)
DAV:   1    -0.298946271446E+02    0.18924E+00   -0.46104E-02   552   0.958E-01    0.239E-01
DAV:   2    -0.298931057956E+02    0.15213E-02   -0.26582E-03   496   0.235E-01    0.128E-01
DAV:   3    -0.298925837477E+02    0.52205E-03   -0.19009E-03   520   0.165E-01    0.429E-02
DAV:   4    -0.298925715620E+02    0.12186E-04   -0.61462E-05   240   0.395E-02
   4 F= -.23444728E+01 E0= -.23444728E+01  d E =-.120692E+01
 curvature:  -0.84 expect dE=-0.656E-05 dE for cont linesearch -0.656E-05
 trial: gam= 0.00000 g(F)=  0.260E-59 g(S)=  0.779E-05 ort =-0.315E-02 (trialstep = 0.116E+01)
 search vector abs. value=  0.779E-05
 reached required accuracy - stopping structural energy minimisation
 writing wavefunctions
