  64  64   0   0
  0.2397535E+02  0.1158443E-08  0.1150893E-08  0.1150893E-08  0.1000000E-15
  1.000000000000000E-004
  CAR 
 GaAs                                    
      7.64378627    -11.02273738  301      2.30827159      1.00000000
    -11.023  0.0000E+00  0.0000E+00
    -10.961  0.0000E+00  0.0000E+00
    -10.898  0.0000E+00  0.0000E+00
    -10.836  0.0000E+00  0.0000E+00
    -10.774  0.0000E+00  0.0000E+00
    -10.712  0.0000E+00  0.0000E+00
    -10.649  0.0000E+00  0.0000E+00
    -10.587  0.0000E+00  0.0000E+00
    -10.525  0.0000E+00  0.0000E+00
    -10.463  0.0000E+00  0.0000E+00
    -10.401  0.0000E+00  0.0000E+00
    -10.338  0.0000E+00  0.0000E+00
    -10.276  0.0000E+00  0.0000E+00
    -10.214  0.0000E+00  0.0000E+00
    -10.152  0.0000E+00  0.0000E+00
    -10.089  0.0000E+00  0.0000E+00
    -10.027  0.0000E+00  0.0000E+00
     -9.965  0.3702E-01  0.9346E-03
     -9.903  0.5332E-01  0.3614E-02
     -9.841  0.1028E+00  0.8972E-02
     -9.778  0.7345E-01  0.1392E-01
     -9.716  0.6628E-01  0.1821E-01
     -9.654  0.1139E+00  0.2391E-01
     -9.592  0.1686E+00  0.3117E-01
     -9.529  0.1155E+00  0.3951E-01
     -9.467  0.1225E+00  0.4713E-01
     -9.405  0.1951E+00  0.5748E-01
     -9.343  0.9928E-01  0.6667E-01
     -9.281  0.1579E+00  0.7507E-01
     -9.218  0.1507E+00  0.8427E-01
     -9.156  0.2837E+00  0.9900E-01
     -9.094  0.3053E+00  0.1170E+00
     -9.032  0.9449E-01  0.1280E+00
     -8.969  0.4504E+00  0.1381E+00
     -8.907  0.2227E+00  0.1542E+00
     -8.845  0.1893E+00  0.1656E+00
     -8.783  0.4063E+00  0.1875E+00
     -8.721  0.2754E+00  0.2073E+00
     -8.658  0.3230E+00  0.2263E+00
     -8.596  0.3775E+00  0.2485E+00
     -8.534  0.5742E+00  0.2756E+00
     -8.472  0.5677E+00  0.3122E+00
     -8.409  0.1085E+01  0.3460E+00
     -8.347  0.6976E+00  0.3800E+00
     -8.285  0.3982E+00  0.4085E+00
     -8.223  0.5206E+00  0.4313E+00
     -8.161  0.6263E+00  0.4642E+00
     -8.098  0.6703E+00  0.5038E+00
     -8.036  0.5417E+00  0.5343E+00
     -7.974  0.7333E+00  0.5691E+00
     -7.912  0.7372E+00  0.6178E+00
     -7.849  0.7714E-01  0.6400E+00
     -7.787  0.0000E+00  0.6400E+00
     -7.725  0.0000E+00  0.6400E+00
     -7.663  0.0000E+00  0.6400E+00
     -7.601  0.0000E+00  0.6400E+00
     -7.538  0.0000E+00  0.6400E+00
     -7.476  0.0000E+00  0.6400E+00
     -7.414  0.0000E+00  0.6400E+00
     -7.352  0.0000E+00  0.6400E+00
     -7.289  0.0000E+00  0.6400E+00
     -7.227  0.0000E+00  0.6400E+00
     -7.165  0.0000E+00  0.6400E+00
     -7.103  0.0000E+00  0.6400E+00
     -7.041  0.0000E+00  0.6400E+00
     -6.978  0.0000E+00  0.6400E+00
     -6.916  0.0000E+00  0.6400E+00
     -6.854  0.0000E+00  0.6400E+00
     -6.792  0.0000E+00  0.6400E+00
     -6.729  0.0000E+00  0.6400E+00
     -6.667  0.0000E+00  0.6400E+00
     -6.605  0.0000E+00  0.6400E+00
     -6.543  0.0000E+00  0.6400E+00
     -6.481  0.0000E+00  0.6400E+00
     -6.418  0.0000E+00  0.6400E+00
     -6.356  0.0000E+00  0.6400E+00
     -6.294  0.0000E+00  0.6400E+00
     -6.232  0.0000E+00  0.6400E+00
     -6.169  0.0000E+00  0.6400E+00
     -6.107  0.0000E+00  0.6400E+00
     -6.045  0.0000E+00  0.6400E+00
     -5.983  0.0000E+00  0.6400E+00
     -5.921  0.0000E+00  0.6400E+00
     -5.858  0.0000E+00  0.6400E+00
     -5.796  0.0000E+00  0.6400E+00
     -5.734  0.0000E+00  0.6400E+00
     -5.672  0.0000E+00  0.6400E+00
     -5.609  0.0000E+00  0.6400E+00
     -5.547  0.0000E+00  0.6400E+00
     -5.485  0.0000E+00  0.6400E+00
     -5.423  0.0000E+00  0.6400E+00
     -5.361  0.0000E+00  0.6400E+00
     -5.298  0.0000E+00  0.6400E+00
     -5.236  0.0000E+00  0.6400E+00
     -5.174  0.0000E+00  0.6400E+00
     -5.112  0.0000E+00  0.6400E+00
     -5.049  0.0000E+00  0.6400E+00
     -4.987  0.0000E+00  0.6400E+00
     -4.925  0.0000E+00  0.6400E+00
     -4.863  0.0000E+00  0.6400E+00
     -4.801  0.0000E+00  0.6400E+00
     -4.738  0.0000E+00  0.6400E+00
     -4.676  0.0000E+00  0.6400E+00
     -4.614  0.0000E+00  0.6400E+00
     -4.552  0.0000E+00  0.6400E+00
     -4.489  0.0000E+00  0.6400E+00
     -4.427  0.0000E+00  0.6400E+00
     -4.365  0.0000E+00  0.6400E+00
     -4.303  0.0000E+00  0.6400E+00
     -4.241  0.2869E-01  0.6404E+00
     -4.178  0.1215E+00  0.6448E+00
     -4.116  0.2763E+00  0.6562E+00
     -4.054  0.7716E+00  0.6888E+00
     -3.992  0.7286E+00  0.7278E+00
     -3.929  0.1201E+01  0.7789E+00
     -3.867  0.1092E+01  0.8454E+00
     -3.805  0.4601E+00  0.8769E+00
     -3.743  0.1193E+01  0.9267E+00
     -3.681  0.1979E+00  0.9447E+00
     -3.618  0.1898E+00  0.9554E+00
     -3.556  0.5420E+00  0.9755E+00
     -3.494  0.3042E+00  0.9988E+00
     -3.432  0.1996E+00  0.1014E+01
     -3.369  0.1478E+00  0.1024E+01
     -3.307  0.3024E+00  0.1035E+01
     -3.245  0.3234E+00  0.1063E+01
     -3.183  0.1374E+00  0.1073E+01
     -3.121  0.1148E+00  0.1082E+01
     -3.058  0.7531E-01  0.1087E+01
     -2.996  0.1183E+00  0.1093E+01
     -2.934  0.1243E+00  0.1101E+01
     -2.872  0.1788E+00  0.1111E+01
     -2.809  0.1402E+00  0.1120E+01
     -2.747  0.1337E+00  0.1128E+01
     -2.685  0.1293E+00  0.1137E+01
     -2.623  0.1308E+00  0.1145E+01
     -2.561  0.1217E+00  0.1152E+01
     -2.498  0.6519E-01  0.1158E+01
     -2.436  0.6340E-01  0.1162E+01
     -2.374  0.7142E-01  0.1166E+01
     -2.312  0.8175E-01  0.1171E+01
     -2.249  0.1177E+00  0.1177E+01
     -2.187  0.1086E+00  0.1184E+01
     -2.125  0.7336E-01  0.1190E+01
     -2.063  0.8073E-01  0.1195E+01
     -2.001  0.6233E-01  0.1200E+01
     -1.938  0.4810E-01  0.1202E+01
     -1.876  0.4199E-01  0.1205E+01
     -1.814  0.3709E-01  0.1207E+01
     -1.752  0.3783E-01  0.1210E+01
     -1.689  0.4026E-01  0.1212E+01
     -1.627  0.7675E-01  0.1216E+01
     -1.565  0.9758E-01  0.1222E+01
     -1.503  0.8446E-01  0.1228E+01
     -1.441  0.6957E-01  0.1232E+01
     -1.378  0.6328E-01  0.1236E+01
     -1.316  0.1347E+00  0.1242E+01
     -1.254  0.2846E+00  0.1256E+01
     -1.192  0.4658E+00  0.1277E+01
     -1.129  0.4468E+00  0.1307E+01
     -1.067  0.4395E+00  0.1334E+01
     -1.005  0.5890E+00  0.1366E+01
     -0.943  0.3782E+00  0.1393E+01
     -0.881  0.4166E+00  0.1418E+01
     -0.818  0.3447E+00  0.1439E+01
     -0.756  0.2517E+00  0.1461E+01
     -0.694  0.3285E+00  0.1478E+01
     -0.632  0.2854E+00  0.1498E+01
     -0.569  0.4720E+00  0.1522E+01
     -0.507  0.4095E+00  0.1547E+01
     -0.445  0.4495E+00  0.1573E+01
     -0.383  0.5115E+00  0.1603E+01
     -0.321  0.5075E+00  0.1634E+01
     -0.258  0.5023E+00  0.1665E+01
     -0.196  0.4497E+00  0.1694E+01
     -0.134  0.5325E+00  0.1723E+01
     -0.072  0.6067E+00  0.1759E+01
     -0.009  0.4814E+00  0.1794E+01
      0.053  0.5555E+00  0.1828E+01
      0.115  0.5014E+00  0.1858E+01
      0.177  0.5758E+00  0.1892E+01
      0.239  0.5021E+00  0.1924E+01
      0.302  0.4422E+00  0.1947E+01
      0.364  0.4301E+00  0.1977E+01
      0.426  0.5761E+00  0.2012E+01
      0.488  0.6494E+00  0.2044E+01
      0.551  0.7937E+00  0.2082E+01
      0.613  0.4181E+00  0.2113E+01
      0.675  0.5197E+00  0.2139E+01
      0.737  0.5171E+00  0.2169E+01
      0.799  0.4631E+00  0.2199E+01
      0.862  0.4915E+00  0.2225E+01
      0.924  0.4555E+00  0.2256E+01
      0.986  0.3509E+00  0.2279E+01
      1.048  0.4307E+00  0.2303E+01
      1.111  0.4595E+00  0.2331E+01
      1.173  0.4200E+00  0.2359E+01
      1.235  0.5325E+00  0.2390E+01
      1.297  0.4230E+00  0.2419E+01
      1.359  0.2570E+00  0.2439E+01
      1.422  0.1932E+00  0.2452E+01
      1.484  0.2465E+00  0.2467E+01
      1.546  0.2215E+00  0.2480E+01
      1.608  0.2010E+00  0.2494E+01
      1.670  0.1151E+00  0.2503E+01
      1.733  0.1313E+00  0.2510E+01
      1.795  0.1327E+00  0.2519E+01
      1.857  0.1811E+00  0.2531E+01
      1.919  0.6323E-01  0.2536E+01
      1.982  0.1150E+00  0.2541E+01
      2.044  0.1165E+00  0.2550E+01
      2.106  0.5799E-01  0.2556E+01
      2.168  0.3127E-01  0.2558E+01
      2.230  0.1122E-01  0.2560E+01
      2.293  0.0000E+00  0.2560E+01
      2.355  0.0000E+00  0.2560E+01
      2.417  0.5189E-06  0.2560E+01
      2.479  0.1717E-04  0.2560E+01
      2.542  0.5727E-04  0.2560E+01
      2.604  0.1208E-03  0.2560E+01
      2.666  0.2078E-03  0.2560E+01
      2.728  0.3182E-03  0.2560E+01
      2.790  0.4521E-03  0.2560E+01
      2.853  0.6094E-03  0.2560E+01
      2.915  0.7901E-03  0.2560E+01
      2.977  0.9943E-03  0.2560E+01
      3.039  0.1222E-02  0.2560E+01
      3.102  0.1473E-02  0.2560E+01
      3.164  0.1821E-02  0.2560E+01
      3.226  0.5590E-02  0.2561E+01
      3.288  0.1357E-01  0.2561E+01
      3.350  0.2115E-01  0.2562E+01
      3.413  0.2868E-01  0.2564E+01
      3.475  0.6375E-01  0.2567E+01
      3.537  0.6919E-01  0.2571E+01
      3.599  0.8513E-01  0.2576E+01
      3.662  0.6859E-01  0.2580E+01
      3.724  0.8439E-01  0.2585E+01
      3.786  0.1120E+00  0.2591E+01
      3.848  0.1378E+00  0.2599E+01
      3.910  0.2280E+00  0.2613E+01
      3.973  0.2963E+00  0.2625E+01
      4.035  0.3462E+00  0.2645E+01
      4.097  0.2487E+00  0.2666E+01
      4.159  0.2030E+00  0.2678E+01
      4.222  0.2450E+00  0.2692E+01
      4.284  0.3565E+00  0.2709E+01
      4.346  0.5275E+00  0.2737E+01
      4.408  0.4552E+00  0.2765E+01
      4.470  0.5169E+00  0.2789E+01
      4.533  0.5889E+00  0.2821E+01
      4.595  0.5234E+00  0.2858E+01
      4.657  0.6987E+00  0.2896E+01
      4.719  0.6968E+00  0.2938E+01
      4.782  0.6959E+00  0.2980E+01
      4.844  0.3934E+00  0.3016E+01
      4.906  0.4004E+00  0.3041E+01
      4.968  0.3952E+00  0.3066E+01
      5.030  0.4025E+00  0.3089E+01
      5.093  0.3752E+00  0.3115E+01
      5.155  0.3129E+00  0.3135E+01
      5.217  0.3382E+00  0.3155E+01
      5.279  0.2869E+00  0.3176E+01
      5.342  0.2018E+00  0.3189E+01
      5.404  0.3158E+00  0.3205E+01
      5.466  0.3384E+00  0.3226E+01
      5.528  0.2860E+00  0.3245E+01
      5.590  0.3927E+00  0.3263E+01
      5.653  0.1821E+00  0.3278E+01
      5.715  0.1910E+00  0.3290E+01
      5.777  0.2279E+00  0.3303E+01
      5.839  0.1987E+00  0.3316E+01
      5.902  0.1537E+00  0.3327E+01
      5.964  0.1261E+00  0.3335E+01
      6.026  0.1030E+00  0.3342E+01
      6.088  0.8840E-01  0.3348E+01
      6.150  0.5830E-01  0.3353E+01
      6.213  0.3378E-01  0.3356E+01
      6.275  0.1896E-01  0.3358E+01
      6.337  0.1243E-01  0.3359E+01
      6.399  0.8979E-02  0.3359E+01
      6.462  0.5835E-02  0.3360E+01
      6.524  0.2666E-03  0.3360E+01
      6.586  0.4552E-04  0.3360E+01
      6.648  0.0000E+00  0.3360E+01
      6.710  0.0000E+00  0.3360E+01
      6.773  0.0000E+00  0.3360E+01
      6.835  0.0000E+00  0.3360E+01
      6.897  0.0000E+00  0.3360E+01
      6.959  0.0000E+00  0.3360E+01
      7.022  0.0000E+00  0.3360E+01
      7.084  0.0000E+00  0.3360E+01
      7.146  0.0000E+00  0.3360E+01
      7.208  0.0000E+00  0.3360E+01
      7.270  0.0000E+00  0.3360E+01
      7.333  0.0000E+00  0.3360E+01
      7.395  0.0000E+00  0.3360E+01
      7.457  0.0000E+00  0.3360E+01
      7.519  0.0000E+00  0.3360E+01
      7.582  0.0000E+00  0.3360E+01
      7.644  0.0000E+00  0.3360E+01
