Automatically generated mesh
      18
Reciprocal lattice
    0.00000000000000    0.00000000000000    0.00000000000000             1
    0.20000000000000    0.00000000000000    0.00000000000000             2
    0.40000000000000    0.00000000000000    0.00000000000000             2
    0.00000000000000    0.20000000000000    0.00000000000000             4
    0.20000000000000    0.20000000000000    0.00000000000000             8
    0.40000000000000    0.20000000000000    0.00000000000000             8
    0.00000000000000    0.40000000000000    0.00000000000000             4
    0.20000000000000    0.40000000000000    0.00000000000000             8
    0.40000000000000    0.40000000000000    0.00000000000000             8
    0.00000000000000    0.20000000000000    0.20000000000000             4
    0.20000000000000    0.20000000000000    0.20000000000000             8
    0.40000000000000    0.20000000000000    0.20000000000000             8
    0.00000000000000    0.40000000000000    0.20000000000000             8
    0.20000000000000    0.40000000000000    0.20000000000000            16
    0.40000000000000    0.40000000000000    0.20000000000000            16
    0.00000000000000    0.40000000000000    0.40000000000000             4
    0.20000000000000    0.40000000000000    0.40000000000000             8
    0.40000000000000    0.40000000000000    0.40000000000000             8
Tetrahedra
       177    0.00133333333333
         4        11        12        14        15
         4        11        14        14        15
         8        14        14        15        17
         4        12        14        15        15
         8        14        15        15        18
         4        14        15        17        18
         2        12        12        15        15
         4        12        15        15        15
        12        15        15        15        18
        10        15        15        18        18
         4        10        11        13        14
         4        11        13        14        14
         8        13        14        14        17
         4        10        13        13        14
         8        13        13        14        16
         4        13        14        16        17
         4        14        15        15        17
         4        14        15        17        17
         4        15        15        17        18
         4        15        17        18        18
         4        15        17        17        18
         8        15        18        18        18
         4        14        14        15        18
         4        14        15        18        18
         4        14        14        17        18
         4        14        17        17        18
         4        14        17        18        18
         4        13        13        14        17
         4        13        14        17        17
         4        13        13        16        17
         4        13        16        16        17
         4        13        16        17        17
         4        13        14        14        16
         4        13        14        16        16
         4        14        14        16        17
         4        14        16        17        17
         4        14        16        16        17
         4        12        14        15        17
         4        11        12        14        17
         4        12        15        17        18
         4        12        15        15        18
         4        12        12        15        18
         4        12        15        18        18
         4        11        14        15        18
         4        11        12        15        18
         4        11        14        17        18
         4        10        13        14        17
         4        10        11        14        17
         4        10        13        16        17
         4        11        13        14        16
         4        10        11        13        16
         4        11        14        16        17
         4         6        11        12        14
         4         5         6        11        14
         4         5         6         8        14
         4         6        12        14        15
         4         6         9        14        15
         4         6         8         9        14
         4         6        12        12        15
         4         6         6        12        15
         4         6         6         9        15
         4         6        12        15        15
         4         6         9        15        15
         4         6         9         9        15
         4         5        11        12        15
         4         5         6        12        15
         4         5         6         9        15
         4         5        11        14        15
         4         5         8        14        15
         4         5         8         9        15
         4         4        10        11        14
         4         4         5        11        14
         4         4         5         8        14
         4         4        10        13        14
         4         4         7        13        14
         4         4         7         8        14
         4         5        10        11        13
         4         4         5        10        13
         4         4         5         7        13
         4         5        11        13        14
         4         5         8        13        14
         4         5         7         8        13
         4         5         6         8        12
         4         5         8        11        12
         4         8        11        12        14
         4         6         8         9        12
         4         8         9        12        15
         4         8        12        14        15
         4         6         6         9        12
         4         6         9        12        12
         4         9        12        12        15
         4         6         9         9        12
         4         9         9        12        15
         4         9        12        15        15
         4         5         6         9        11
         4         6         9        11        12
         4         9        11        12        15
         4         5         8         9        11
         4         8         9        11        14
         4         9        11        14        15
         4         4         5         8        10
         4         5         8        10        11
         4         8        10        11        14
         4         4         7         8        10
         4         7         8        10        13
         4         8        10        13        14
         4         4         5         7        11
         4         4         7        10        11
         4         7        10        11        13
         4         5         7         8        11
         4         7         8        11        14
         4         7        11        13        14
         4        17        17        18        18
         4        17        17        17        18
         4        17        18        18        18
         6        18        18        18        18
         4        16        16        17        17
         4        16        17        17        17
         4        16        16        16        17
         4         9        14        14        15
         4         8         9        14        14
         4         8         8         9        14
         4         9        14        15        15
         4         9         9        14        15
         4         8         9         9        14
         8         9        15        15        15
         8         9         9        15        15
         8         9         9         9        15
         4         8        14        15        15
         4         8         9        15        15
         4         8         9         9        15
         4         8        14        14        15
         4         8         8        14        15
         4         8         8         9        15
         4         7        13        14        14
         4         7         8        14        14
         4         7         8         8        14
         4         7        13        13        14
         4         7         7        13        14
         4         7         7         8        14
         4         8        13        13        14
         4         7         8        13        13
         4         7         7         8        13
         4         8        13        14        14
         4         8         8        13        14
         4         7         8         8        13
         4         5         6        11        12
         4         5         5         6        11
         4         2         5         5         6
         4         5         6         6        12
         4         3         5         6         6
         4         2         3         5         6
         2         6         6        12        12
         4         6         6         6        12
         4         3         6         6         6
         2         3         3         6         6
         4         4         5        10        11
         4         4         5         5        11
         4         2         4         5         5
         4         4         4         5        10
         4         1         4         4         5
         4         1         2         4         5
         4         2         5         6        12
         4         2         5        11        12
         4         2         3         6        12
         4         3         6         6        12
         4         3         6        12        12
         4         3         3         6        12
         4         3         5         6        11
         4         3         6        11        12
         4         2         3         5        11
         4         2         4         5        10
         4         2         5        10        11
         4         1         2         4        10
         4         1         4         5        11
         4         1         4        10        11
         4         1         2         5        11
