       N       E                     dE             d eps       ncg     rms          rms(c)
DAV:   1     0.935845107857E+03    0.93585E+03   -0.80785E+04  6048   0.101E+03
DAV:   2    -0.167171235187E+03   -0.11030E+04   -0.10507E+04  7192   0.169E+02
DAV:   3    -0.267633895356E+03   -0.10046E+03   -0.99088E+02  7416   0.522E+01
DAV:   4    -0.270157206398E+03   -0.25233E+01   -0.24943E+01  7256   0.863E+00
DAV:   5    -0.270229373451E+03   -0.72167E-01   -0.71912E-01  7424   0.129E+00    0.201E+01
DAV:   6    -0.266041275564E+03    0.41881E+01   -0.65186E+00  7032   0.358E+00    0.118E+01
DAV:   7    -0.265212889720E+03    0.82839E+00   -0.43200E+00  7296   0.299E+00    0.245E+00
DAV:   8    -0.265171535970E+03    0.41354E-01   -0.50608E-01  7072   0.109E+00    0.615E-01
DAV:   9    -0.265183296910E+03   -0.11761E-01   -0.35850E-02  6936   0.393E-01    0.232E-01
DAV:  10    -0.265184363146E+03   -0.10662E-02   -0.97572E-04  7592   0.592E-02    0.108E-01
DAV:  11    -0.265185674324E+03   -0.13112E-02   -0.22004E-03  6528   0.873E-02    0.500E-02
DAV:  12    -0.265185681516E+03   -0.71920E-05   -0.30457E-05  7416   0.114E-02    0.224E-02
DAV:  13    -0.265185690463E+03   -0.89475E-05   -0.77991E-05  6920   0.133E-02    0.977E-03
DAV:  14    -0.265185689879E+03    0.58439E-06   -0.40313E-06  5944   0.388E-03
 Linear response reoptimize wavefunctions
DAV:   1    -0.265185690391E+03   -0.51146E-06   -0.22058E-06  7200   0.198E-03
DAV:   2    -0.265185690400E+03   -0.95006E-08   -0.90547E-08  6152   0.558E-04
DAV:   3    -0.265185690400E+03    0.70031E-10   -0.16534E-09  3768   0.793E-05
 Linear response G [H, r] |phi>, progress :
  Direction:   1
       N       E                     dE             d eps       ncg     rms
RMM:   1    -0.127395378982E+04   -0.12740E+04    0.18255E+03 14201   0.841E+01
RMM:   2    -0.109945189047E+04    0.17450E+03   -0.20695E+02  9783   0.227E+01
RMM:   3    -0.110174558897E+04   -0.22937E+01   -0.10170E+01 10090   0.379E+00
RMM:   4    -0.110186826173E+04   -0.12267E+00   -0.35765E-01 10477   0.668E-01
RMM:   5    -0.110186745988E+04    0.80185E-03   -0.34384E-02 10526   0.143E-01
RMM:   6    -0.110186657562E+04    0.88426E-03   -0.69708E-03 11156   0.390E-02
RMM:   7    -0.110186629237E+04    0.28325E-03   -0.30990E-03 11730   0.199E-02
RMM:   8    -0.110186620660E+04    0.85774E-04   -0.22860E-03 12434   0.169E-02
RMM:   9    -0.110186618972E+04    0.16875E-04   -0.24819E-03 12612   0.165E-02
RMM:  10    -0.110186619722E+04   -0.74931E-05   -0.16106E-03 12879   0.164E-02
RMM:  11    -0.110186620331E+04   -0.60880E-05   -0.16399E-03 13178   0.164E-02
 Linear response G [H, r] |phi>, progress :
  Direction:   2
       N       E                     dE             d eps       ncg     rms
RMM:   1    -0.126418093640E+04   -0.12642E+04    0.17282E+03 14262   0.837E+01
RMM:   2    -0.109885697439E+04    0.16532E+03   -0.20634E+02  9767   0.227E+01
RMM:   3    -0.110071211588E+04   -0.18551E+01   -0.98909E+00 10083   0.376E+00
RMM:   4    -0.110081829380E+04   -0.10618E+00   -0.40392E-01 10467   0.660E-01
RMM:   5    -0.110081414838E+04    0.41454E-02   -0.48612E-02 10494   0.143E-01
RMM:   6    -0.110081235577E+04    0.17926E-02   -0.11742E-02 11153   0.394E-02
RMM:   7    -0.110081168661E+04    0.66915E-03   -0.36895E-03 11749   0.202E-02
RMM:   8    -0.110081158135E+04    0.10526E-03   -0.27657E-03 12489   0.172E-02
RMM:   9    -0.110081153026E+04    0.51087E-04   -0.19966E-03 12656   0.168E-02
RMM:  10    -0.110081153860E+04   -0.83347E-05   -0.19695E-03 12993   0.167E-02
RMM:  11    -0.110081153037E+04    0.82240E-05   -0.21164E-03 13270   0.167E-02
 Linear response G [H, r] |phi>, progress :
  Direction:   3
       N       E                     dE             d eps       ncg     rms
RMM:   1    -0.138170321564E+04   -0.13817E+04    0.14052E+03 14611   0.858E+01
RMM:   2    -0.110404647278E+04    0.27766E+03   -0.23551E+02  9819   0.240E+01
RMM:   3    -0.110620113392E+04   -0.21547E+01   -0.11248E+01 10081   0.399E+00
RMM:   4    -0.110632549675E+04   -0.12436E+00   -0.44826E-01 10524   0.694E-01
RMM:   5    -0.110631932774E+04    0.61690E-02   -0.55286E-02 10501   0.149E-01
RMM:   6    -0.110631724259E+04    0.20851E-02   -0.13830E-02 11095   0.406E-02
RMM:   7    -0.110631647936E+04    0.76323E-03   -0.50857E-03 11732   0.208E-02
RMM:   8    -0.110631634830E+04    0.13106E-03   -0.34561E-03 12444   0.175E-02
RMM:   9    -0.110631632346E+04    0.24844E-04   -0.29727E-03 12582   0.171E-02
RMM:  10    -0.110631632164E+04    0.18140E-05   -0.36471E-03 12929   0.171E-02
RMM:  11    -0.110631632588E+04   -0.42349E-05   -0.37600E-03 13234   0.171E-02
 Linear response to external field, progress :
  Direction:   1
       N       E                     dE             d eps       ncg     rms          rms(c)
RMM:   1    -0.114470722020E+03   -0.11447E+03   -0.86552E+02 15511   0.666E+00
RMM:   2    -0.309316806511E+03   -0.19485E+03   -0.11280E+01 14820   0.147E+00    0.125E+01
RMM:   3    -0.306173543743E+03    0.31433E+01   -0.95137E-01 14747   0.161E+00    0.732E+00
RMM:   4    -0.297778160406E+03    0.83954E+01   -0.15108E+00 14258   0.224E+00    0.755E-01
RMM:   5    -0.297082949021E+03    0.69521E+00   -0.58795E-02 15060   0.451E-01    0.123E-01
RMM:   6    -0.297013893783E+03    0.69055E-01   -0.18681E-03 15269   0.850E-02    0.686E-02
RMM:   7    -0.296956573760E+03    0.57320E-01   -0.24937E-03 15058   0.610E-02    0.254E-02
RMM:   8    -0.296942918416E+03    0.13655E-01   -0.72930E-05 15861   0.104E-02    0.686E-03
RMM:   9    -0.296948620932E+03   -0.57025E-02    0.32619E-05 15934   0.655E-03    0.139E-03
RMM:  10    -0.296948268807E+03    0.35213E-03   -0.24392E-04 16140   0.216E-03    0.422E-04
RMM:  11    -0.296948082711E+03    0.18610E-03   -0.65287E-05 15806   0.197E-03    0.729E-05
RMM:  12    -0.296948106195E+03   -0.23484E-04   -0.13983E-04 14584   0.185E-03    0.360E-05
RMM:  13    -0.296948094264E+03    0.11931E-04   -0.95218E-05 14691   0.184E-03    0.769E-06
 Linear response to external field, progress :
  Direction:   2
       N       E                     dE             d eps       ncg     rms          rms(c)
RMM:   1    -0.138898777859E+03   -0.13890E+03   -0.10859E+03 22602   0.677E+00
RMM:   2    -0.589303418199E+03   -0.45040E+03    0.25258E+00 21397   0.152E+00    0.142E+01
RMM:   3    -0.587415949396E+03    0.18875E+01   -0.12243E+00 21457   0.163E+00    0.834E+00
RMM:   4    -0.577127467214E+03    0.10288E+02   -0.14182E+00 20630   0.235E+00    0.746E-01
RMM:   5    -0.576223009143E+03    0.90446E+00   -0.10861E-01 21843   0.513E-01    0.120E-01
RMM:   6    -0.576196287360E+03    0.26722E-01   -0.55903E-03 22481   0.658E-02    0.635E-02
RMM:   7    -0.576215837889E+03   -0.19551E-01   -0.22333E-03 22297   0.390E-02    0.210E-02
RMM:   8    -0.576192119750E+03    0.23718E-01   -0.12620E-03 21373   0.950E-03    0.345E-03
RMM:   9    -0.576192656062E+03   -0.53631E-03   -0.22900E-04 23535   0.508E-03    0.834E-04
RMM:  10    -0.576193320843E+03   -0.66478E-03    0.91648E-05 24123   0.229E-03    0.338E-04
RMM:  11    -0.576193051950E+03    0.26889E-03   -0.19094E-04 23631   0.211E-03    0.885E-05
RMM:  12    -0.576193105885E+03   -0.53935E-04   -0.30900E-05 22724   0.205E-03    0.253E-05
RMM:  13    -0.576193108452E+03   -0.25665E-05   -0.11783E-04 23004   0.205E-03    0.601E-06
 Linear response to external field, progress :
  Direction:   3
       N       E                     dE             d eps       ncg     rms          rms(c)
RMM:   1    -0.138898828529E+03   -0.13890E+03   -0.10859E+03 22606   0.677E+00
RMM:   2    -0.589303416244E+03   -0.45040E+03    0.25262E+00 21397   0.152E+00    0.142E+01
RMM:   3    -0.587416115135E+03    0.18873E+01   -0.12247E+00 21445   0.163E+00    0.834E+00
RMM:   4    -0.577127888899E+03    0.10288E+02   -0.14209E+00 20629   0.235E+00    0.746E-01
RMM:   5    -0.576223029126E+03    0.90486E+00   -0.10844E-01 21839   0.513E-01    0.120E-01
RMM:   6    -0.576196354592E+03    0.26675E-01   -0.52241E-03 22488   0.658E-02    0.635E-02
RMM:   7    -0.576215897693E+03   -0.19543E-01   -0.29574E-04 22307   0.390E-02    0.210E-02
RMM:   8    -0.576192189728E+03    0.23708E-01    0.26412E-03 21365   0.950E-03    0.345E-03
RMM:   9    -0.576192720625E+03   -0.53090E-03   -0.21643E-04 23559   0.507E-03    0.833E-04
RMM:  10    -0.576193396845E+03   -0.67622E-03   -0.38298E-04 24134   0.228E-03    0.339E-04
RMM:  11    -0.576193120551E+03    0.27629E-03   -0.10591E-04 23633   0.210E-03    0.891E-05
RMM:  12    -0.576193182358E+03   -0.61807E-04    0.92577E-05 22717   0.204E-03    0.253E-05
RMM:  13    -0.576193185224E+03   -0.28652E-05   -0.81055E-05 22989   0.204E-03    0.569E-06
   1 F= -.26518569E+03 E0= -.26518569E+03  d E =-.265186E+03
 imaginary and real dielectric function
