 vasp.6.4.3 19Mar24 (build Aug 29 2024 15:27:20) complex                        
  
 executed on             LinuxIFC date 2025.03.24  12:04:26
 running    8 mpi-ranks, on    1 nodes
 distrk:  each k-point on    8 cores,    1 groups
 distr:  one band on NCORE=   1 cores,    8 groups


--------------------------------------------------------------------------------------------------------


 INCAR:
   SYSTEM = GaAs
   PREC = Normal
   ENCUT = 400
   ISMEAR = -5
   SIGMA = 0.1
   IBRION = 2
   POTIM = 0.1
   NFREE = 2
   NSW = 100
   ISIF = 2
   LEPSILON = .TRUE.
   LOPTICS = .TRUE.

 POTCAR:    PAW_PBE As 22Sep2009                  
 POTCAR:    PAW_PBE Ga 08Apr2002                  
 -----------------------------------------------------------------------------
|                                                                             |
|           W    W    AA    RRRRR   N    N  II  N    N   GGGG   !!!           |
|           W    W   A  A   R    R  NN   N  II  NN   N  G    G  !!!           |
|           W    W  A    A  R    R  N N  N  II  N N  N  G       !!!           |
|           W WW W  AAAAAA  RRRRR   N  N N  II  N  N N  G  GGG   !            |
|           WW  WW  A    A  R   R   N   NN  II  N   NN  G    G                |
|           W    W  A    A  R    R  N    N  II  N    N   GGGG   !!!           |
|                                                                             |
|     For optimal performance we recommend to set                             |
|       NCORE = 2 up to number-of-cores-per-socket                            |
|     NCORE specifies how many cores store one orbital (NPAR=cpu/NCORE).      |
|     This setting can greatly improve the performance of VASP for DFT.       |
|     The default, NCORE=1 might be grossly inefficient on modern             |
|     multi-core architectures or massively parallel machines. Do your        |
|     own testing! More info at https://www.vasp.at/wiki/index.php/NCORE      |
|     Unfortunately you need to use the default for GW and RPA                |
|     calculations (for HF NCORE is supported but not extensively tested      |
|     yet).                                                                   |
|                                                                             |
 -----------------------------------------------------------------------------

 POTCAR:    PAW_PBE As 22Sep2009                  
   VRHFIN =As: s2p3                                                                                 
   LEXCH  = PE                                                                                      
   EATOM  =   170.1867 eV,   12.5084 Ry                                                             
                                                                                                    
   TITEL  = PAW_PBE As 22Sep2009                                                                    
   LULTRA =        F    use ultrasoft PP ?                                                          
   IUNSCR =        1    unscreen: 0-lin 1-nonlin 2-no                                               
   RPACOR =    1.900    partial core radius                                                         
   POMASS =   74.922; ZVAL   =    5.000    mass and valenz                                          
   RCORE  =    2.100    outmost cutoff radius                                                       
   RWIGS  =    2.300; RWIGS  =    1.217    wigner-seitz radius (au A)                               
   ENMAX  =  208.702; ENMIN  =  156.526 eV                                                          
   ICORE  =        3    local potential                                                             
   LCOR   =        T    correct aug charges                                                         
   LPAW   =        T    paw PP                                                                      
   EAUG   =  462.758                                                                                
   DEXC   =    0.000                                                                                
   RMAX   =    2.144    core radius for proj-oper                                                   
   RAUG   =    1.300    factor for augmentation sphere                                              
   RDEP   =    2.140    radius for radial grids                                                     
   RDEPT  =    1.956    core radius for aug-charge                                                  
                                                                                                    
   Atomic configuration                                                                             
   10 entries                                                                                       
     n  l   j            E        occ.                                                              
     1  0  0.50    -11718.0418   2.0000                                                             
     2  0  0.50     -1486.5454   2.0000                                                             
     2  1  1.50     -1303.3889   6.0000                                                             
     3  0  0.50      -190.2849   2.0000                                                             
     3  1  1.50      -133.6555   6.0000                                                             
     3  2  2.50       -40.6443  10.0000                                                             
     4  0  0.50       -14.4936   2.0000                                                             
     4  1  0.50        -5.1947   3.0000                                                             
     4  2  1.50        -5.4423   0.0000                                                             
     4  3  2.50        -5.4423   0.0000                                                             
   Description                                                                                      
     l       E           TYP  RCUT    TYP  RCUT                                                     
     0    -14.4935570     23  2.100                                                                 
     0    -11.9212055     23  2.100                                                                 
     1     -5.1947127     23  2.100                                                                 
     1     27.2116520     23  2.100                                                                 
     2     -5.4423304     23  2.100                                                                 
     3     -1.3605826      7  2.100                                                                 
  local pseudopotential read in
  partial core-charges read in
  partial kinetic energy density read in
  atomic valenz-charges read in
  non local Contribution for L=           0  read in
    real space projection operators read in
  non local Contribution for L=           0  read in
    real space projection operators read in
  non local Contribution for L=           1  read in
    real space projection operators read in
  non local Contribution for L=           1  read in
    real space projection operators read in
  non local Contribution for L=           2  read in
    real space projection operators read in
    PAW grid and wavefunctions read in
 
   number of l-projection  operators is LMAX  =           5
   number of lm-projection operators is LMMAX =          13
 
 POTCAR:    PAW_PBE Ga 08Apr2002                  
   VRHFIN =Ga: s2p1                                                                                 
   LEXCH  = PE                                                                                      
   EATOM  =    58.8688 eV,    4.3267 Ry                                                             
                                                                                                    
   TITEL  = PAW_PBE Ga 08Apr2002                                                                    
   LULTRA =        F    use ultrasoft PP ?                                                          
   IUNSCR =        1    unscreen: 0-lin 1-nonlin 2-no                                               
   RPACOR =    2.170    partial core radius                                                         
   POMASS =   69.723; ZVAL   =    3.000    mass and valenz                                          
   RCORE  =    2.600    outmost cutoff radius                                                       
   RWIGS  =    2.650; RWIGS  =    1.402    wigner-seitz radius (au A)                               
   ENMAX  =  134.678; ENMIN  =  101.009 eV                                                          
   ICORE  =        3    local potential                                                             
   LCOR   =        T    correct aug charges                                                         
   LPAW   =        T    paw PP                                                                      
   EAUG   =  320.264                                                                                
   DEXC   =    0.000                                                                                
   RMAX   =    2.658    core radius for proj-oper                                                   
   RAUG   =    1.300    factor for augmentation sphere                                              
   RDEP   =    2.684    radius for radial grids                                                     
   RDEPT  =    2.308    core radius for aug-charge                                                  
                                                                                                    
   Atomic configuration                                                                             
   10 entries                                                                                       
     n  l   j            E        occ.                                                              
     1  0  0.50    -10228.7830   2.0000                                                             
     2  0  0.50     -1262.1604   2.0000                                                             
     2  1  1.50     -1098.6333   6.0000                                                             
     3  0  0.50      -148.1110   2.0000                                                             
     3  1  1.50       -98.8436   6.0000                                                             
     3  2  2.50       -19.1549  10.0000                                                             
     4  0  0.50        -8.9483   2.0000                                                             
     4  1  0.50        -2.5791   1.0000                                                             
     4  2  1.50         5.4423   0.0000                                                             
     4  3  2.50        -2.7416   0.0000                                                             
   Description                                                                                      
     l       E           TYP  RCUT    TYP  RCUT                                                     
     0     -8.9483097     23  2.600                                                                 
     0     -5.8232215     23  2.600                                                                 
     1     -2.5790793     23  2.600                                                                 
     1      5.2230115     23  2.600                                                                 
     2      1.3605826     23  2.600                                                                 
     3     -1.3605826      7  2.600                                                                 
  local pseudopotential read in
  partial core-charges read in
  partial kinetic energy density read in
  atomic valenz-charges read in
  non local Contribution for L=           0  read in
    real space projection operators read in
  non local Contribution for L=           0  read in
    real space projection operators read in
  non local Contribution for L=           1  read in
    real space projection operators read in
  non local Contribution for L=           1  read in
    real space projection operators read in
  non local Contribution for L=           2  read in
    real space projection operators read in
    PAW grid and wavefunctions read in
 
   number of l-projection  operators is LMAX  =           5
   number of lm-projection operators is LMMAX =          13
 
 -----------------------------------------------------------------------------
|                                                                             |
|               ----> ADVICE to this user running VASP <----                  |
|                                                                             |
|     You have a (more or less) 'large supercell' and for larger cells it     |
|     might be more efficient to use real-space projection operators.         |
|     Therefore, try LREAL= Auto in the INCAR file.                           |
|     Mind: For very accurate calculation, you might also keep the            |
|     reciprocal projection scheme (i.e. LREAL=.FALSE.).                      |
|                                                                             |
 -----------------------------------------------------------------------------

  PAW_PBE As 22Sep2009                  :
 energy of atom  1       EATOM= -170.1867
 kinetic energy error for atom=    0.0013 (will be added to EATOM!!)
  PAW_PBE Ga 08Apr2002                  :
 energy of atom  2       EATOM=  -58.8688
 kinetic energy error for atom=    0.0001 (will be added to EATOM!!)
 
 
 POSCAR: cubic gallium arsenide
  positions in direct lattice
  velocities in cartesian coordinates


 exchange-correlation table for PE
   RHO(1)=    0.500       N(1)  =     2000
   RHO(2)=  100.500       N(2)  =     4000
 


--------------------------------------------------------------------------------------------------------


 ion  position               nearest neighbor table
   1  0.000  0.000  0.000-  33 2.50  46 2.50  55 2.50  60 2.50
   2  0.000  0.000  0.500-  34 2.50  45 2.50  56 2.50  59 2.50
   3  0.000  0.500  0.000-  35 2.50  48 2.50  53 2.50  58 2.50
   4  0.000  0.500  0.500-  36 2.50  47 2.50  54 2.50  57 2.50
   5  0.500  0.000  0.000-  37 2.50  42 2.50  51 2.50  64 2.50
   6  0.500  0.000  0.500-  38 2.50  41 2.50  52 2.50  63 2.50
   7  0.500  0.500  0.000-  39 2.50  44 2.50  49 2.50  62 2.50
   8  0.500  0.500  0.500-  40 2.50  43 2.50  50 2.50  61 2.50
   9  0.250  0.250  0.000-  33 2.50  42 2.50  49 2.50  58 2.50
  10  0.250  0.250  0.500-  34 2.50  41 2.50  50 2.50  57 2.50
  11  0.250  0.750  0.000-  35 2.50  44 2.50  51 2.50  60 2.50
  12  0.250  0.750  0.500-  36 2.50  43 2.50  52 2.50  59 2.50
  13  0.750  0.250  0.000-  37 2.50  46 2.50  53 2.50  62 2.50
  14  0.750  0.250  0.500-  38 2.50  45 2.50  54 2.50  61 2.50
  15  0.750  0.750  0.000-  39 2.50  48 2.50  55 2.50  64 2.50
  16  0.750  0.750  0.500-  40 2.50  47 2.50  56 2.50  63 2.50
  17  0.250  0.000  0.250-  33 2.50  41 2.50  51 2.50  59 2.50
  18  0.250  0.000  0.750-  34 2.50  42 2.50  52 2.50  60 2.50
  19  0.250  0.500  0.250-  35 2.50  43 2.50  49 2.50  57 2.50
  20  0.250  0.500  0.750-  36 2.50  44 2.50  50 2.50  58 2.50
  21  0.750  0.000  0.250-  37 2.50  45 2.50  55 2.50  63 2.50
  22  0.750  0.000  0.750-  38 2.50  46 2.50  56 2.50  64 2.50
  23  0.750  0.500  0.250-  39 2.50  47 2.50  53 2.50  61 2.50
  24  0.750  0.500  0.750-  40 2.50  48 2.50  54 2.50  62 2.50
  25  0.000  0.250  0.250-  33 2.50  45 2.50  53 2.50  57 2.50
  26  0.000  0.250  0.750-  34 2.50  46 2.50  54 2.50  58 2.50
  27  0.000  0.750  0.250-  35 2.50  47 2.50  55 2.50  59 2.50
  28  0.000  0.750  0.750-  36 2.50  48 2.50  56 2.50  60 2.50
  29  0.500  0.250  0.250-  37 2.50  41 2.50  49 2.50  61 2.50
  30  0.500  0.250  0.750-  38 2.50  42 2.50  50 2.50  62 2.50
  31  0.500  0.750  0.250-  39 2.50  43 2.50  51 2.50  63 2.50
  32  0.500  0.750  0.750-  40 2.50  44 2.50  52 2.50  64 2.50
  33  0.125  0.125  0.125-   1 2.50   9 2.50  17 2.50  25 2.50
  34  0.125  0.125  0.625-   2 2.50  10 2.50  18 2.50  26 2.50
  35  0.125  0.625  0.125-   3 2.50  11 2.50  19 2.50  27 2.50
  36  0.125  0.625  0.625-   4 2.50  12 2.50  20 2.50  28 2.50
  37  0.625  0.125  0.125-   5 2.50  13 2.50  21 2.50  29 2.50
  38  0.625  0.125  0.625-   6 2.50  14 2.50  22 2.50  30 2.50
  39  0.625  0.625  0.125-   7 2.50  15 2.50  23 2.50  31 2.50
  40  0.625  0.625  0.625-   8 2.50  16 2.50  24 2.50  32 2.50
  41  0.375  0.125  0.375-   6 2.50  10 2.50  17 2.50  29 2.50
  42  0.375  0.125  0.875-   5 2.50   9 2.50  18 2.50  30 2.50
  43  0.375  0.625  0.375-   8 2.50  12 2.50  19 2.50  31 2.50
  44  0.375  0.625  0.875-   7 2.50  11 2.50  20 2.50  32 2.50
  45  0.875  0.125  0.375-   2 2.50  14 2.50  21 2.50  25 2.50
  46  0.875  0.125  0.875-   1 2.50  13 2.50  22 2.50  26 2.50
  47  0.875  0.625  0.375-   4 2.50  16 2.50  23 2.50  27 2.50
  48  0.875  0.625  0.875-   3 2.50  15 2.50  24 2.50  28 2.50
  49  0.375  0.375  0.125-   7 2.50   9 2.50  19 2.50  29 2.50
  50  0.375  0.375  0.625-   8 2.50  10 2.50  20 2.50  30 2.50
  51  0.375  0.875  0.125-   5 2.50  11 2.50  17 2.50  31 2.50
  52  0.375  0.875  0.625-   6 2.50  12 2.50  18 2.50  32 2.50
  53  0.875  0.375  0.125-   3 2.50  13 2.50  23 2.50  25 2.50
  54  0.875  0.375  0.625-   4 2.50  14 2.50  24 2.50  26 2.50
  55  0.875  0.875  0.125-   1 2.50  15 2.50  21 2.50  27 2.50
  56  0.875  0.875  0.625-   2 2.50  16 2.50  22 2.50  28 2.50
  57  0.125  0.375  0.375-   4 2.50  10 2.50  19 2.50  25 2.50
  58  0.125  0.375  0.875-   3 2.50   9 2.50  20 2.50  26 2.50
  59  0.125  0.875  0.375-   2 2.50  12 2.50  17 2.50  27 2.50
  60  0.125  0.875  0.875-   1 2.50  11 2.50  18 2.50  28 2.50
  61  0.625  0.375  0.375-   8 2.50  14 2.50  23 2.50  29 2.50
  62  0.625  0.375  0.875-   7 2.50  13 2.50  24 2.50  30 2.50
  63  0.625  0.875  0.375-   6 2.50  16 2.50  21 2.50  31 2.50
  64  0.625  0.875  0.875-   5 2.50  15 2.50  22 2.50  32 2.50
 
  LATTYP: Found a simple tetragonal cell.
 ALAT       =    11.5089332938
 C/A-ratio  =     1.0065601683
  
  Lattice vectors:
  
 A1 = (   0.0000000000,  11.5089332938,   0.0000000000)
 A2 = (   0.0000000000,   0.0000000000,  11.5089332938)
 A3 = (  11.5844338327,   0.0000000000,   0.0000000000)


Analysis of symmetry for initial positions (statically):
=====================================================================
 Subroutine PRICEL returns following result:
 
  LATTYP: Found a body centered tetragonal cell.
 ALAT       =     4.0690223881
 C/A-ratio  =     1.4234910413
  
  Lattice vectors:
  
 A1 = (   2.8961084582,   0.0000000000,   2.8772333235)
 A2 = (   2.8961084582,   0.0000000000,  -2.8772333235)
 A3 = (  -2.8961084582,   2.8772333235,   0.0000000000)
 
  32 primitive cells build up your supercell.
 

 Routine SETGRP: Setting up the symmetry group for a 
 simple tetragonal supercell.


 Subroutine GETGRP returns: Found  8 space group operations
 (whereof  8 operations were pure point group operations)
 out of a pool of 16 trial point group operations.


The static configuration has the point symmetry D_2d.


Analysis of symmetry for dynamics (positions and initial velocities):
=====================================================================
 Subroutine PRICEL returns following result:
 
  LATTYP: Found a body centered tetragonal cell.
 ALAT       =     4.0690223881
 C/A-ratio  =     1.4234910413
  
  Lattice vectors:
  
 A1 = (   2.8961084582,   0.0000000000,   2.8772333235)
 A2 = (   2.8961084582,   0.0000000000,  -2.8772333235)
 A3 = (  -2.8961084582,   2.8772333235,   0.0000000000)
 
  32 primitive cells build up your supercell.
 

 Routine SETGRP: Setting up the symmetry group for a 
 simple tetragonal supercell.


 Subroutine GETGRP returns: Found  8 space group operations
 (whereof  8 operations were pure point group operations)
 out of a pool of 16 trial point group operations.


The dynamic configuration has the point symmetry D_2d.


 Subroutine INISYM returns: Found  8 space group operations
 (whereof  8 operations are pure point group operations),
 and found    32 'primitive' translations


----------------------------------------------------------------------------------------

                                     Primitive cell                                     

  volume of cell :      47.9507

  direct lattice vectors                    reciprocal lattice vectors
     2.896108458  0.000000000  2.877233323     0.172645468  0.173778051  0.173778051
     2.896108458  0.000000000 -2.877233323     0.172645468  0.173778051 -0.173778051
    -2.896108458  2.877233323  0.000000000     0.000000000  0.347556103  0.000000000

  length of vectors
     4.082390941  4.082390941  4.082390941     0.300339940  0.300339940  0.347556103

  position of ions in fractional coordinates (direct lattice)
     0.000000000  0.000000000  0.000000000
     0.750000000  0.250000000  0.500000000

  ion indices of the primitive-cell ions
   primitive index   ion index
                 1           1
                 2          33

----------------------------------------------------------------------------------------

 
 
 KPOINTS: Automatic mesh                          

Automatic generation of k-mesh.
 Grid dimensions read from file:
 generate k-points for:    5    5    5

 Generating k-lattice:

  Cartesian coordinates                     Fractional coordinates (reciprocal lattice)
     0.017264547  0.000000000  0.000000000     0.200000000  0.000000000  0.000000000
     0.000000000  0.017377805  0.000000000     0.000000000  0.200000000  0.000000000
     0.000000000  0.000000000  0.017377805     0.000000000  0.000000000  0.200000000

  Length of vectors
     0.017264547  0.017377805  0.017377805

  Shift w.r.t. Gamma in fractional coordinates (k-lattice)
     0.000000000  0.000000000  0.000000000

 TETIRR: Found    177 inequivalent tetrahedra from      750
 
 Subroutine IBZKPT returns following result:
 ===========================================
 
 Found     18 irreducible k-points:
 
 Following reciprocal coordinates:
            Coordinates               Weight
  0.000000  0.000000  0.000000      1.000000
  0.200000  0.000000  0.000000      2.000000
  0.400000  0.000000  0.000000      2.000000
  0.000000  0.200000  0.000000      4.000000
  0.200000  0.200000  0.000000      8.000000
  0.400000  0.200000  0.000000      8.000000
  0.000000  0.400000  0.000000      4.000000
  0.200000  0.400000  0.000000      8.000000
  0.400000  0.400000  0.000000      8.000000
  0.000000  0.200000  0.200000      4.000000
  0.200000  0.200000  0.200000      8.000000
  0.400000  0.200000  0.200000      8.000000
  0.000000  0.400000  0.200000      8.000000
  0.200000  0.400000  0.200000     16.000000
  0.400000  0.400000  0.200000     16.000000
  0.000000  0.400000  0.400000      4.000000
  0.200000  0.400000  0.400000      8.000000
  0.400000  0.400000  0.400000      8.000000
 
 Following cartesian coordinates:
            Coordinates               Weight
  0.000000  0.000000  0.000000      1.000000
  0.017265  0.000000  0.000000      2.000000
  0.034529  0.000000  0.000000      2.000000
  0.000000  0.017378  0.000000      4.000000
  0.017265  0.017378  0.000000      8.000000
  0.034529  0.017378  0.000000      8.000000
  0.000000  0.034756  0.000000      4.000000
  0.017265  0.034756  0.000000      8.000000
  0.034529  0.034756  0.000000      8.000000
  0.000000  0.017378  0.017378      4.000000
  0.017265  0.017378  0.017378      8.000000
  0.034529  0.017378  0.017378      8.000000
  0.000000  0.034756  0.017378      8.000000
  0.017265  0.034756  0.017378     16.000000
  0.034529  0.034756  0.017378     16.000000
  0.000000  0.034756  0.034756      4.000000
  0.017265  0.034756  0.034756      8.000000
  0.034529  0.034756  0.034756      8.000000
 
 
 Subroutine IBZKPT_HF returns following result:
 ==============================================
 
 Found    125 k-points in 1st BZ
 the following    125 k-points will be used (e.g. in the exchange kernel)
 Following reciprocal coordinates:   # in IRBZ
  0.000000  0.000000  0.000000    0.00800000   1 t-inv F
  0.200000  0.000000  0.000000    0.00800000   2 t-inv F
  0.400000  0.000000  0.000000    0.00800000   3 t-inv F
  0.000000  0.200000  0.000000    0.00800000   4 t-inv F
  0.200000  0.200000  0.000000    0.00800000   5 t-inv F
  0.400000  0.200000  0.000000    0.00800000   6 t-inv F
  0.000000  0.400000  0.000000    0.00800000   7 t-inv F
  0.200000  0.400000  0.000000    0.00800000   8 t-inv F
  0.400000  0.400000  0.000000    0.00800000   9 t-inv F
  0.000000  0.200000  0.200000    0.00800000  10 t-inv F
  0.200000  0.200000  0.200000    0.00800000  11 t-inv F
  0.400000  0.200000  0.200000    0.00800000  12 t-inv F
  0.000000  0.400000  0.200000    0.00800000  13 t-inv F
  0.200000  0.400000  0.200000    0.00800000  14 t-inv F
  0.400000  0.400000  0.200000    0.00800000  15 t-inv F
  0.000000  0.400000  0.400000    0.00800000  16 t-inv F
  0.200000  0.400000  0.400000    0.00800000  17 t-inv F
  0.400000  0.400000  0.400000    0.00800000  18 t-inv F
 -0.200000  0.000000  0.000000    0.00800000   2 t-inv F
 -0.400000  0.000000  0.000000    0.00800000   3 t-inv F
  0.000000  0.000000 -0.200000    0.00800000   4 t-inv F
  0.000000 -0.200000  0.000000    0.00800000   4 t-inv F
  0.000000  0.000000  0.200000    0.00800000   4 t-inv F
 -0.200000  0.000000 -0.200000    0.00800000   5 t-inv F
  0.200000 -0.200000  0.000000    0.00800000   5 t-inv F
 -0.200000  0.000000  0.200000    0.00800000   5 t-inv F
 -0.200000 -0.200000  0.000000    0.00800000   5 t-inv F
  0.200000  0.000000 -0.200000    0.00800000   5 t-inv F
 -0.200000  0.200000  0.000000    0.00800000   5 t-inv F
  0.200000  0.000000  0.200000    0.00800000   5 t-inv F
 -0.400000  0.000000 -0.200000    0.00800000   6 t-inv F
  0.400000 -0.200000  0.000000    0.00800000   6 t-inv F
 -0.400000  0.000000  0.200000    0.00800000   6 t-inv F
 -0.400000 -0.200000  0.000000    0.00800000   6 t-inv F
  0.400000  0.000000 -0.200000    0.00800000   6 t-inv F
 -0.400000  0.200000  0.000000    0.00800000   6 t-inv F
  0.400000  0.000000  0.200000    0.00800000   6 t-inv F
  0.000000  0.000000 -0.400000    0.00800000   7 t-inv F
  0.000000 -0.400000  0.000000    0.00800000   7 t-inv F
  0.000000  0.000000  0.400000    0.00800000   7 t-inv F
 -0.200000  0.000000 -0.400000    0.00800000   8 t-inv F
  0.200000 -0.400000  0.000000    0.00800000   8 t-inv F
 -0.200000  0.000000  0.400000    0.00800000   8 t-inv F
 -0.200000 -0.400000  0.000000    0.00800000   8 t-inv F
  0.200000  0.000000 -0.400000    0.00800000   8 t-inv F
 -0.200000  0.400000  0.000000    0.00800000   8 t-inv F
  0.200000  0.000000  0.400000    0.00800000   8 t-inv F
 -0.400000  0.000000 -0.400000    0.00800000   9 t-inv F
  0.400000 -0.400000  0.000000    0.00800000   9 t-inv F
 -0.400000  0.000000  0.400000    0.00800000   9 t-inv F
 -0.400000 -0.400000  0.000000    0.00800000   9 t-inv F
  0.400000  0.000000 -0.400000    0.00800000   9 t-inv F
 -0.400000  0.400000  0.000000    0.00800000   9 t-inv F
  0.400000  0.000000  0.400000    0.00800000   9 t-inv F
  0.000000  0.200000 -0.200000    0.00800000  10 t-inv F
  0.000000 -0.200000 -0.200000    0.00800000  10 t-inv F
  0.000000 -0.200000  0.200000    0.00800000  10 t-inv F
 -0.200000  0.200000 -0.200000    0.00800000  11 t-inv F
  0.200000 -0.200000 -0.200000    0.00800000  11 t-inv F
 -0.200000 -0.200000  0.200000    0.00800000  11 t-inv F
 -0.400000  0.200000 -0.200000    0.00800000  12 t-inv F
  0.400000 -0.200000 -0.200000    0.00800000  12 t-inv F
 -0.400000 -0.200000  0.200000    0.00800000  12 t-inv F
  0.000000  0.200000 -0.400000    0.00800000  13 t-inv F
  0.000000 -0.400000 -0.200000    0.00800000  13 t-inv F
  0.000000 -0.200000  0.400000    0.00800000  13 t-inv F
  0.000000 -0.400000  0.200000    0.00800000  13 t-inv F
  0.000000 -0.200000 -0.400000    0.00800000  13 t-inv F
  0.000000  0.400000 -0.200000    0.00800000  13 t-inv F
  0.000000  0.200000  0.400000    0.00800000  13 t-inv F
 -0.200000  0.200000 -0.400000    0.00800000  14 t-inv F
  0.200000 -0.400000 -0.200000    0.00800000  14 t-inv F
 -0.200000 -0.200000  0.400000    0.00800000  14 t-inv F
 -0.200000 -0.400000  0.200000    0.00800000  14 t-inv F
  0.200000 -0.200000 -0.400000    0.00800000  14 t-inv F
 -0.200000  0.400000 -0.200000    0.00800000  14 t-inv F
  0.200000  0.200000  0.400000    0.00800000  14 t-inv F
 -0.400000  0.200000 -0.400000    0.00800000  15 t-inv F
  0.400000 -0.400000 -0.200000    0.00800000  15 t-inv F
 -0.400000 -0.200000  0.400000    0.00800000  15 t-inv F
 -0.400000 -0.400000  0.200000    0.00800000  15 t-inv F
  0.400000 -0.200000 -0.400000    0.00800000  15 t-inv F
 -0.400000  0.400000 -0.200000    0.00800000  15 t-inv F
  0.400000  0.200000  0.400000    0.00800000  15 t-inv F
  0.000000  0.400000 -0.400000    0.00800000  16 t-inv F
  0.000000 -0.400000 -0.400000    0.00800000  16 t-inv F
  0.000000 -0.400000  0.400000    0.00800000  16 t-inv F
 -0.200000  0.400000 -0.400000    0.00800000  17 t-inv F
  0.200000 -0.400000 -0.400000    0.00800000  17 t-inv F
 -0.200000 -0.400000  0.400000    0.00800000  17 t-inv F
 -0.400000  0.400000 -0.400000    0.00800000  18 t-inv F
  0.400000 -0.400000 -0.400000    0.00800000  18 t-inv F
 -0.400000 -0.400000  0.400000    0.00800000  18 t-inv F
 -0.200000 -0.200000 -0.200000    0.00800000  11 t-inv T
  0.200000 -0.200000  0.200000    0.00800000  11 t-inv T
 -0.200000  0.200000  0.200000    0.00800000  11 t-inv T
  0.200000  0.200000 -0.200000    0.00800000  11 t-inv T
 -0.400000 -0.200000 -0.200000    0.00800000  12 t-inv T
  0.400000 -0.200000  0.200000    0.00800000  12 t-inv T
 -0.400000  0.200000  0.200000    0.00800000  12 t-inv T
  0.400000  0.200000 -0.200000    0.00800000  12 t-inv T
 -0.200000 -0.400000 -0.200000    0.00800000  14 t-inv T
  0.200000 -0.200000  0.400000    0.00800000  14 t-inv T
 -0.200000  0.400000  0.200000    0.00800000  14 t-inv T
  0.200000  0.200000 -0.400000    0.00800000  14 t-inv T
  0.200000  0.400000 -0.200000    0.00800000  14 t-inv T
 -0.200000  0.200000  0.400000    0.00800000  14 t-inv T
  0.200000 -0.400000  0.200000    0.00800000  14 t-inv T
 -0.200000 -0.200000 -0.400000    0.00800000  14 t-inv T
 -0.400000 -0.400000 -0.200000    0.00800000  15 t-inv T
  0.400000 -0.200000  0.400000    0.00800000  15 t-inv T
 -0.400000  0.400000  0.200000    0.00800000  15 t-inv T
  0.400000  0.200000 -0.400000    0.00800000  15 t-inv T
  0.400000  0.400000 -0.200000    0.00800000  15 t-inv T
 -0.400000  0.200000  0.400000    0.00800000  15 t-inv T
  0.400000 -0.400000  0.200000    0.00800000  15 t-inv T
 -0.400000 -0.200000 -0.400000    0.00800000  15 t-inv T
 -0.200000 -0.400000 -0.400000    0.00800000  17 t-inv T
  0.200000 -0.400000  0.400000    0.00800000  17 t-inv T
 -0.200000  0.400000  0.400000    0.00800000  17 t-inv T
  0.200000  0.400000 -0.400000    0.00800000  17 t-inv T
 -0.400000 -0.400000 -0.400000    0.00800000  18 t-inv T
  0.400000 -0.400000  0.400000    0.00800000  18 t-inv T
 -0.400000  0.400000  0.400000    0.00800000  18 t-inv T
  0.400000  0.400000 -0.400000    0.00800000  18 t-inv T


--------------------------------------------------------------------------------------------------------




 Dimension of arrays:
   k-points           NKPTS =     18   k-points in BZ     NKDIM =     18   number of bands    NBANDS=    168
   number of dos      NEDOS =    301   number of ions     NIONS =     64
   non local maximal  LDIM  =      5   non local SUM 2l+1 LMDIM =     13
   total plane-waves  NPLWV = 188160
   max r-space proj   IRMAX =      1   max aug-charges    IRDMAX=   9012
   dimension x,y,z NGX =    60 NGY =   56 NGZ =   56
   dimension x,y,z NGXF=   120 NGYF=  112 NGZF=  112
   support grid    NGXF=   120 NGYF=  112 NGZF=  112
   ions per type =              32  32
   NGX,Y,Z   is equivalent  to a cutoff of   8.61,  8.09,  8.09 a.u.
   NGXF,Y,Z  is equivalent  to a cutoff of  17.22, 16.18, 16.18 a.u.

 SYSTEM =  GaAs                                    
 POSCAR =  cubic gallium arsenide                  

 Startparameter for this run:
   NWRITE =      2    write-flag & timer
   PREC   = normal    normal or accurate (medium, high low for compatibility)
   ISTART =      0    job   : 0-new  1-cont  2-samecut
   ICHARG =      2    charge: 1-file 2-atom 10-const
   ISPIN  =      1    spin polarized calculation?
   LNONCOLLINEAR =      F non collinear calculations
   LSORBIT =      F    spin-orbit coupling
   INIWAV =      1    electr: 0-lowe 1-rand  2-diag
   LASPH  =      F    aspherical Exc in radial PAW
 Electronic Relaxation 1
   ENCUT  =  400.0 eV  29.40 Ry    5.42 a.u.  18.89 18.77 18.77*2*pi/ulx,y,z
   ENINI  =  400.0     initial cutoff
   ENAUG  =  462.8 eV  augmentation charge cutoff
   NELM   =     60;   NELMIN=  2; NELMDL= -5     # of ELM steps 
   EDIFF  = 0.1E-05   stopping-criterion for ELM
   LREAL  =      F    real-space projection
   NLSPLINE    = F    spline interpolate recip. space projectors
   LCOMPAT=      F    compatible to vasp.4.4
   GGA_COMPAT  = T    GGA compatible to vasp.4.4-vasp.4.6
   LMAXPAW     = -100 max onsite density
   LMAXMIX     =    2 max onsite mixed and CHGCAR
   VOSKOWN=      0    Vosko Wilk Nusair interpolation
   ROPT   =    0.00000   0.00000
 Ionic relaxation
   EDIFFG = 0.1E-02   stopping-criterion for IOM
   NSW    =    100    number of steps for IOM
   NBLOCK =      1;   KBLOCK =    100    inner block; outer block 
   IBRION =      2    ionic relax: 0-MD 1-quasi-New 2-CG
   NFREE  =      2    steps in history (QN), initial steepest desc. (CG)
   ISIF   =      2    stress and relaxation
   IWAVPR =     11    prediction:  0-non 1-charg 2-wave 3-comb
   ISYM   =      2    0-nonsym 1-usesym 2-fastsym
   LCORR  =      T    Harris-Foulkes like correction to forces

   POTIM  = 0.1000    time-step for ionic-motion
   TEIN   =    0.0    initial temperature
   TEBEG  =    0.0;   TEEND  =   0.0 temperature during run
   SMASS  =  -3.00    Nose mass-parameter (am)
   estimated Nose-frequenzy (Omega)   =  0.10E-29 period in steps = 0.63E+47 mass=  -0.307E-26a.u.
   SCALEE = 1.0000    scale energy and forces
   NPACO  =    256;   APACO  = 10.0  distance and # of slots for P.C.
   PSTRESS=    0.0 pullay stress

  Mass of Ions in am
   POMASS =  74.92 69.72
  Ionic Valenz
   ZVAL   =   5.00  3.00
  Atomic Wigner-Seitz radii
   RWIGS  =  -1.00 -1.00
  virtual crystal weights 
   VCA    =   1.00  1.00
   NELECT =     256.0000    total number of electrons
   NUPDOWN=      -1.0000    fix difference up-down

 DOS related values:
   EMIN   =  10.00;   EMAX   =-10.00  energy-range for DOS
   EFERMI =   0.00;   METHOD = LEGACY      
   ISMEAR =    -5;   SIGMA  =   0.10  broadening in eV -4-tet -1-fermi 0-gaus

 Electronic relaxation 2 (details)
   IALGO  =     38    algorithm
   LDIAG  =      T    sub-space diagonalisation (order eigenvalues)
   LSUBROT=      F    optimize rotation matrix (better conditioning)
   TURBO    =      0    0=normal 1=particle mesh
   IRESTART =      0    0=no restart 2=restart with 2 vectors
   NREBOOT  =      0    no. of reboots
   NMIN     =      0    reboot dimension
   EREF     =   0.00    reference energy to select bands
   IMIX   =      4    mixing-type and parameters
     AMIX     =   0.40;   BMIX     =  1.00
     AMIX_MAG =   1.60;   BMIX_MAG =  1.00
     AMIN     =   0.10
     WC   =   100.;   INIMIX=   1;  MIXPRE=   1;  MAXMIX= -45

 Intra band minimization:
   WEIMIN = 0.0010     energy-eigenvalue tresh-hold
   EBREAK =  0.15E-08  absolut break condition
   DEPER  =   0.30     relativ break condition  

   TIME   =   0.40     timestep for ELM

  volume/ion in A,a.u.               =      23.98       161.79
  Fermi-wavevector in a.u.,A,eV,Ry     =   0.901239  1.703094 11.051076  0.812231
  Thomas-Fermi vector in A             =   2.024295
 
 Write flags
   LWAVE        =      T    write WAVECAR
   LDOWNSAMPLE  =      F    k-point downsampling of WAVECAR
   LCHARG       =      T    write CHGCAR
   LVTOT        =      F    write LOCPOT, total local potential
   LVHAR        =      F    write LOCPOT, Hartree potential only
   WRT_POTENTIAL= false  ! write potential to hdf5 file
   LELF         =      F    write electronic localiz. function (ELF)
   LORBIT       =      0    0 simple, 1 ext, 2 COOP (PROOUT), +10 PAW based schemes


 Dipole corrections
   LMONO      =      F    monopole corrections only (constant potential shift)
   LDIPOL     =      F    correct potential (dipole corrections)
   IDIPOL     =      0    1-x, 2-y, 3-z, 4-all directions 
   EPSILON    =  1.0000000 bulk dielectric constant
   LVACPOTAV  =      F  vacuum potentials using an averaging scheme for the charge density
   VACPOTFLAT =  0.1000000 required flatness to determine vacuum potential
 Exchange correlation treatment:
   GGA     = PE    functional components
   XC_C    = 1    coefficients multiplying the functional components
   LIBXC   =     F    Libxc                    
   VOSKOWN =     0    Vosko Wilk Nusair interpolation
   LHFCALC =     F    Hartree Fock is set to
   LHFONE  =     F    Hartree Fock one center treatment
   AEXX    =    0.0000 exact exchange contribution

 Parameters of functionals:
   PE:
     No parameter
 
 Van der Waals corrections
   IVDW    =     0    specifies the selected vdW correction

 Linear response parameters
   LEPSILON=     T    determine dielectric tensor
   LRPA    =     F    only Hartree local field effects (RPA)
   LNABLA  =     F    use nabla operator in PAW spheres
   LVEL    =     F    velocity operator in full k-point grid
   CSHIFT  =0.1000    complex shift for real part using Kramers Kronig
   OMEGAMAX=  -1.0    maximum frequency
   DEG_THRESHOLD= 0.2000000E-02 threshold for treating states as degnerate
   RTIME   =   -0.100 relaxation time in fs
  (WPLASMAI=    0.000 imaginary part of plasma frequency in eV, 0.658/RTIME)
   DFIELD  = 0.0000000 0.0000000 0.0000000 field for delta impulse in time
 
  Optional k-point grid parameters
   LKPOINTS_OPT  =     F    use optional k-point grid
   KPOINTS_OPT_MODE=     1    mode for optional k-point grid
 
 Orbital magnetization related:
   ORBITALMAG=     F  switch on orbital magnetization
   LCHIMAG   =     F  perturbation theory with respect to B field
   DQ        =  0.001000  dq finite difference perturbation B field
   LLRAUG    =     F  two centre corrections for induced B field
   LBONE     =     F  B-component reconstruction in AE one-centre
   LVGVCALC  =     T  calculate vGv susceptibility
   LVGVAPPL  =     F  apply vGv susceptibility instead of pGv for G=0

 Random number generation:
   RANDOM_GENERATOR = DEFAULT
   PCG_SEED         = not used


--------------------------------------------------------------------------------------------------------


 conjugate gradient relaxation of ions
 charge density and potential will be updated during run
 non-spin polarized calculation
 Variant of blocked Davidson
 Davidson routine will perform the subspace rotation
 perform sub-space diagonalisation
    after iterative eigenvector-optimisation
 modified Broyden-mixing scheme, WC =      100.0
 initial mixing is a Kerker type mixing with AMIX =  0.4000 and BMIX =      1.0000
 Hartree-type preconditioning will be used
 using additional bands           40
 reciprocal scheme for non local part
 use partial core corrections
 calculate Harris-corrections to forces 
   (improved forces if not selfconsistent)
 use gradient corrections 
 use of overlap-Matrix (Vanderbilt PP)
 Fermi weights with tetrahedron method with Bloechl corrections


--------------------------------------------------------------------------------------------------------


  energy-cutoff  :      400.00
  volume of cell :     1534.42
      direct lattice vectors                 reciprocal lattice vectors
    11.584433833  0.000000000  0.000000000     0.086322734  0.000000000  0.000000000
     0.000000000 11.508933294  0.000000000     0.000000000  0.086889026  0.000000000
     0.000000000  0.000000000 11.508933294     0.000000000  0.000000000  0.086889026

  length of vectors
    11.584433833 11.508933294 11.508933294     0.086322734  0.086889026  0.086889026


 
 k-points in units of 2pi/SCALE and weight: Automatic mesh                          
   0.00000000  0.00000000  0.00000000       0.008
   0.01726455  0.00000000  0.00000000       0.016
   0.03452909  0.00000000  0.00000000       0.016
   0.00000000  0.01737781  0.00000000       0.032
   0.01726455  0.01737781  0.00000000       0.064
   0.03452909  0.01737781  0.00000000       0.064
   0.00000000  0.03475561  0.00000000       0.032
   0.01726455  0.03475561  0.00000000       0.064
   0.03452909  0.03475561  0.00000000       0.064
   0.00000000  0.01737781  0.01737781       0.032
   0.01726455  0.01737781  0.01737781       0.064
   0.03452909  0.01737781  0.01737781       0.064
   0.00000000  0.03475561  0.01737781       0.064
   0.01726455  0.03475561  0.01737781       0.128
   0.03452909  0.03475561  0.01737781       0.128
   0.00000000  0.03475561  0.03475561       0.032
   0.01726455  0.03475561  0.03475561       0.064
   0.03452909  0.03475561  0.03475561       0.064
 
 k-points in reciprocal lattice and weights: Automatic mesh                          
   0.00000000  0.00000000  0.00000000       0.008
   0.20000000  0.00000000  0.00000000       0.016
   0.40000000  0.00000000  0.00000000       0.016
   0.00000000  0.20000000  0.00000000       0.032
   0.20000000  0.20000000  0.00000000       0.064
   0.40000000  0.20000000  0.00000000       0.064
   0.00000000  0.40000000  0.00000000       0.032
   0.20000000  0.40000000  0.00000000       0.064
   0.40000000  0.40000000  0.00000000       0.064
   0.00000000  0.20000000  0.20000000       0.032
   0.20000000  0.20000000  0.20000000       0.064
   0.40000000  0.20000000  0.20000000       0.064
   0.00000000  0.40000000  0.20000000       0.064
   0.20000000  0.40000000  0.20000000       0.128
   0.40000000  0.40000000  0.20000000       0.128
   0.00000000  0.40000000  0.40000000       0.032
   0.20000000  0.40000000  0.40000000       0.064
   0.40000000  0.40000000  0.40000000       0.064
 
 position of ions in fractional coordinates (direct lattice) 
   0.00000000  0.00000000  0.00000000
   0.00000000  0.00000000  0.50000000
   0.00000000  0.50000000  0.00000000
   0.00000000  0.50000000  0.50000000
   0.50000000  0.00000000  0.00000000
   0.50000000  0.00000000  0.50000000
   0.50000000  0.50000000  0.00000000
   0.50000000  0.50000000  0.50000000
   0.25000000  0.25000000  0.00000000
   0.25000000  0.25000000  0.50000000
   0.25000000  0.75000000  0.00000000
   0.25000000  0.75000000  0.50000000
   0.75000000  0.25000000  0.00000000
   0.75000000  0.25000000  0.50000000
   0.75000000  0.75000000  0.00000000
   0.75000000  0.75000000  0.50000000
   0.25000000  0.00000000  0.25000000
   0.25000000  0.00000000  0.75000000
   0.25000000  0.50000000  0.25000000
   0.25000000  0.50000000  0.75000000
   0.75000000  0.00000000  0.25000000
   0.75000000  0.00000000  0.75000000
   0.75000000  0.50000000  0.25000000
   0.75000000  0.50000000  0.75000000
   0.00000000  0.25000000  0.25000000
   0.00000000  0.25000000  0.75000000
   0.00000000  0.75000000  0.25000000
   0.00000000  0.75000000  0.75000000
   0.50000000  0.25000000  0.25000000
   0.50000000  0.25000000  0.75000000
   0.50000000  0.75000000  0.25000000
   0.50000000  0.75000000  0.75000000
   0.12500000  0.12500000  0.12500000
   0.12500000  0.12500000  0.62500000
   0.12500000  0.62500000  0.12500000
   0.12500000  0.62500000  0.62500000
   0.62500000  0.12500000  0.12500000
   0.62500000  0.12500000  0.62500000
   0.62500000  0.62500000  0.12500000
   0.62500000  0.62500000  0.62500000
   0.37500000  0.12500000  0.37500000
   0.37500000  0.12500000  0.87500000
   0.37500000  0.62500000  0.37500000
   0.37500000  0.62500000  0.87500000
   0.87500000  0.12500000  0.37500000
   0.87500000  0.12500000  0.87500000
   0.87500000  0.62500000  0.37500000
   0.87500000  0.62500000  0.87500000
   0.37500000  0.37500000  0.12500000
   0.37500000  0.37500000  0.62500000
   0.37500000  0.87500000  0.12500000
   0.37500000  0.87500000  0.62500000
   0.87500000  0.37500000  0.12500000
   0.87500000  0.37500000  0.62500000
   0.87500000  0.87500000  0.12500000
   0.87500000  0.87500000  0.62500000
   0.12500000  0.37500000  0.37500000
   0.12500000  0.37500000  0.87500000
   0.12500000  0.87500000  0.37500000
   0.12500000  0.87500000  0.87500000
   0.62500000  0.37500000  0.37500000
   0.62500000  0.37500000  0.87500000
   0.62500000  0.87500000  0.37500000
   0.62500000  0.87500000  0.87500000
 
 position of ions in cartesian coordinates  (Angst):
   0.00000000  0.00000000  0.00000000
   0.00000000  0.00000000  5.75446665
   0.00000000  5.75446665  0.00000000
   0.00000000  5.75446665  5.75446665
   5.79221692  0.00000000  0.00000000
   5.79221692  0.00000000  5.75446665
   5.79221692  5.75446665  0.00000000
   5.79221692  5.75446665  5.75446665
   2.89610846  2.87723332  0.00000000
   2.89610846  2.87723332  5.75446665
   2.89610846  8.63169997  0.00000000
   2.89610846  8.63169997  5.75446665
   8.68832537  2.87723332  0.00000000
   8.68832537  2.87723332  5.75446665
   8.68832537  8.63169997  0.00000000
   8.68832537  8.63169997  5.75446665
   2.89610846  0.00000000  2.87723332
   2.89610846  0.00000000  8.63169997
   2.89610846  5.75446665  2.87723332
   2.89610846  5.75446665  8.63169997
   8.68832537  0.00000000  2.87723332
   8.68832537  0.00000000  8.63169997
   8.68832537  5.75446665  2.87723332
   8.68832537  5.75446665  8.63169997
   0.00000000  2.87723332  2.87723332
   0.00000000  2.87723332  8.63169997
   0.00000000  8.63169997  2.87723332
   0.00000000  8.63169997  8.63169997
   5.79221692  2.87723332  2.87723332
   5.79221692  2.87723332  8.63169997
   5.79221692  8.63169997  2.87723332
   5.79221692  8.63169997  8.63169997
   1.44805423  1.43861666  1.43861666
   1.44805423  1.43861666  7.19308331
   1.44805423  7.19308331  1.43861666
   1.44805423  7.19308331  7.19308331
   7.24027115  1.43861666  1.43861666
   7.24027115  1.43861666  7.19308331
   7.24027115  7.19308331  1.43861666
   7.24027115  7.19308331  7.19308331
   4.34416269  1.43861666  4.31584999
   4.34416269  1.43861666 10.07031663
   4.34416269  7.19308331  4.31584999
   4.34416269  7.19308331 10.07031663
  10.13637960  1.43861666  4.31584999
  10.13637960  1.43861666 10.07031663
  10.13637960  7.19308331  4.31584999
  10.13637960  7.19308331 10.07031663
   4.34416269  4.31584999  1.43861666
   4.34416269  4.31584999  7.19308331
   4.34416269 10.07031663  1.43861666
   4.34416269 10.07031663  7.19308331
  10.13637960  4.31584999  1.43861666
  10.13637960  4.31584999  7.19308331
  10.13637960 10.07031663  1.43861666
  10.13637960 10.07031663  7.19308331
   1.44805423  4.31584999  4.31584999
   1.44805423  4.31584999 10.07031663
   1.44805423 10.07031663  4.31584999
   1.44805423 10.07031663 10.07031663
   7.24027115  4.31584999  4.31584999
   7.24027115  4.31584999 10.07031663
   7.24027115 10.07031663  4.31584999
   7.24027115 10.07031663 10.07031663
 


--------------------------------------------------------------------------------------------------------


 k-point     1 :   0.0000 0.0000 0.0000  plane waves:   27865
 k-point     2 :   0.2000 0.0000 0.0000  plane waves:   27894
 k-point     3 :   0.4000 0.0000 0.0000  plane waves:   27906
 k-point     4 :   0.0000 0.2000 0.0000  plane waves:   27865
 k-point     5 :   0.2000 0.2000 0.0000  plane waves:   27896
 k-point     6 :   0.4000 0.2000 0.0000  plane waves:   27859
 k-point     7 :   0.0000 0.4000 0.0000  plane waves:   27852
 k-point     8 :   0.2000 0.4000 0.0000  plane waves:   27879
 k-point     9 :   0.4000 0.4000 0.0000  plane waves:   27878
 k-point    10 :   0.0000 0.2000 0.2000  plane waves:   27891
 k-point    11 :   0.2000 0.2000 0.2000  plane waves:   27871
 k-point    12 :   0.4000 0.2000 0.2000  plane waves:   27860
 k-point    13 :   0.0000 0.4000 0.2000  plane waves:   27847
 k-point    14 :   0.2000 0.4000 0.2000  plane waves:   27857
 k-point    15 :   0.4000 0.4000 0.2000  plane waves:   27899
 k-point    16 :   0.0000 0.4000 0.4000  plane waves:   27888
 k-point    17 :   0.2000 0.4000 0.4000  plane waves:   27876
 k-point    18 :   0.4000 0.4000 0.4000  plane waves:   27892

 maximum and minimum number of plane-waves per node :     27906    27847

 maximum number of plane-waves:     27906
 maximum index in each direction: 
   IXMAX=   18   IYMAX=   18   IZMAX=   18
   IXMIN=  -19   IYMIN=  -19   IZMIN=  -19


 serial   3D FFT for wavefunctions
 parallel 3D FFT for charge:
    minimum data exchange during FFTs selected (reduces bandwidth)


 total amount of memory used by VASP MPI-rank0   362909. kBytes
=======================================================================

   base      :      30000. kBytes
   nonl-proj :     133084. kBytes
   fftplans  :       7212. kBytes
   grid      :      18251. kBytes
   one-center:        519. kBytes
   wavefun   :     173843. kBytes
 
     INWAV:  cpu time      0.0000: real time      0.0002
 Broyden mixing: mesh for mixing (old mesh)
   NGX = 37   NGY = 37   NGZ = 37
  (NGX  =120   NGY  =112   NGZ  =112)
  gives a total of  50653 points

 initial charge density was supplied:
 charge density of overlapping atoms calculated
 number of electron     256.0000000 magnetization 
 keeping initial charge density in first step


--------------------------------------------------------------------------------------------------------


 Maximum index for augmentation-charges         1099 (set IRDMAX)


--------------------------------------------------------------------------------------------------------


 First call to EWALD:  gamma=   0.154
 Maximum number of real-space cells 3x 3x 3
 Maximum number of reciprocal cells 3x 3x 3

    FEWALD:  cpu time      0.0023: real time      0.0023


--------------------------------------- Ionic step        1  -------------------------------------------




--------------------------------------- Iteration      1(   1)  ---------------------------------------


    POTLOK:  cpu time      0.1109: real time      0.1138
    SETDIJ:  cpu time      0.0107: real time      0.0108
     EDDAV:  cpu time     88.6184: real time     89.7470
 BZINTS: Fermi energy:    9.740781;  256.000000 electrons
         Band energy: 0.379408E+03;  BLOECHL correction:   -0.010473
       DOS:  cpu time      0.0120: real time      0.0121
    --------------------------------------------
      LOOP:  cpu time     88.7521: real time     89.8837

 eigenvalue-minimisations  :  6048
 total energy-change (2. order) : 0.9358451E+03  (-0.8078498E+04)
 number of electron     256.0000000 magnetization 
 augmentation part      256.0000000 magnetization 

 Free energy of the ion-electron system (eV)
  ---------------------------------------------------
  alpha Z        PSCENC =       570.74668334
  Ewald energy   TEWEN  =     -7188.90738265
  -Hartree energ DENC   =      -602.98017921
  -exchange      EXHF   =         0.00000000
  -V(xc)+E(xc)   XCENC  =      -996.38147384
  PAW double counting   =      6692.16565901    -5247.93935635
  entropy T*S    EENTRO =         0.00000000
  eigenvalues    EBANDS =       379.40809408
  atomic energy  EATOM  =      7329.73306348
  Solvation  Ediel_sol  =         0.00000000
  ---------------------------------------------------
  free energy    TOTEN  =       935.84510786 eV

  energy without entropy =      935.84510786  energy(sigma->0) =      935.84510786


--------------------------------------------------------------------------------------------------------




--------------------------------------- Iteration      1(   2)  ---------------------------------------


     EDDAV:  cpu time    101.7581: real time    103.0650
 BZINTS: Fermi energy:    3.054000;  256.000000 electrons
         Band energy:-0.723608E+03;  BLOECHL correction:    0.000000
       DOS:  cpu time      0.0075: real time      0.0076
    --------------------------------------------
      LOOP:  cpu time    101.7656: real time    103.0726

 eigenvalue-minimisations  :  7192
 total energy-change (2. order) :-0.1103016E+04  (-0.1050747E+04)
 number of electron     256.0000000 magnetization 
 augmentation part      256.0000000 magnetization 

 Free energy of the ion-electron system (eV)
  ---------------------------------------------------
  alpha Z        PSCENC =       570.74668334
  Ewald energy   TEWEN  =     -7188.90738265
  -Hartree energ DENC   =      -602.98017921
  -exchange      EXHF   =         0.00000000
  -V(xc)+E(xc)   XCENC  =      -996.38147384
  PAW double counting   =      6692.16565901    -5247.93935635
  entropy T*S    EENTRO =         0.00000000
  eigenvalues    EBANDS =      -723.60824896
  atomic energy  EATOM  =      7329.73306348
  Solvation  Ediel_sol  =         0.00000000
  ---------------------------------------------------
  free energy    TOTEN  =      -167.17123519 eV

  energy without entropy =     -167.17123519  energy(sigma->0) =     -167.17123519


--------------------------------------------------------------------------------------------------------




--------------------------------------- Iteration      1(   3)  ---------------------------------------


     EDDAV:  cpu time    104.1369: real time    105.4756
 BZINTS: Fermi energy:    1.821382;  256.000000 electrons
         Band energy:-0.824071E+03;  BLOECHL correction:    0.000000
       DOS:  cpu time      0.0074: real time      0.0075
    --------------------------------------------
      LOOP:  cpu time    104.1443: real time    105.4830

 eigenvalue-minimisations  :  7416
 total energy-change (2. order) :-0.1004627E+03  (-0.9908755E+02)
 number of electron     256.0000000 magnetization 
 augmentation part      256.0000000 magnetization 

 Free energy of the ion-electron system (eV)
  ---------------------------------------------------
  alpha Z        PSCENC =       570.74668334
  Ewald energy   TEWEN  =     -7188.90738265
  -Hartree energ DENC   =      -602.98017921
  -exchange      EXHF   =         0.00000000
  -V(xc)+E(xc)   XCENC  =      -996.38147384
  PAW double counting   =      6692.16565901    -5247.93935635
  entropy T*S    EENTRO =         0.00000000
  eigenvalues    EBANDS =      -824.07090913
  atomic energy  EATOM  =      7329.73306348
  Solvation  Ediel_sol  =         0.00000000
  ---------------------------------------------------
  free energy    TOTEN  =      -267.63389536 eV

  energy without entropy =     -267.63389536  energy(sigma->0) =     -267.63389536


--------------------------------------------------------------------------------------------------------




--------------------------------------- Iteration      1(   4)  ---------------------------------------


     EDDAV:  cpu time    101.6854: real time    103.1022
 BZINTS: Fermi energy:    1.779371;  256.000000 electrons
         Band energy:-0.826594E+03;  BLOECHL correction:    0.000000
       DOS:  cpu time      0.0077: real time      0.0077
    --------------------------------------------
      LOOP:  cpu time    101.6930: real time    103.1099

 eigenvalue-minimisations  :  7256
 total energy-change (2. order) :-0.2523311E+01  (-0.2494299E+01)
 number of electron     256.0000000 magnetization 
 augmentation part      256.0000000 magnetization 

 Free energy of the ion-electron system (eV)
  ---------------------------------------------------
  alpha Z        PSCENC =       570.74668334
  Ewald energy   TEWEN  =     -7188.90738265
  -Hartree energ DENC   =      -602.98017921
  -exchange      EXHF   =         0.00000000
  -V(xc)+E(xc)   XCENC  =      -996.38147384
  PAW double counting   =      6692.16565901    -5247.93935635
  entropy T*S    EENTRO =         0.00000000
  eigenvalues    EBANDS =      -826.59422017
  atomic energy  EATOM  =      7329.73306348
  Solvation  Ediel_sol  =         0.00000000
  ---------------------------------------------------
  free energy    TOTEN  =      -270.15720640 eV

  energy without entropy =     -270.15720640  energy(sigma->0) =     -270.15720640


--------------------------------------------------------------------------------------------------------




--------------------------------------- Iteration      1(   5)  ---------------------------------------


     EDDAV:  cpu time    102.8895: real time    104.3810
 BZINTS: Fermi energy:    1.765031;  256.000000 electrons
         Band energy:-0.826666E+03;  BLOECHL correction:    0.000000
       DOS:  cpu time      0.0077: real time      0.0077
    CHARGE:  cpu time      0.7826: real time      0.7880
    MIXING:  cpu time      0.0034: real time      0.0034
    --------------------------------------------
      LOOP:  cpu time    103.6832: real time    105.1801

 eigenvalue-minimisations  :  7424
 total energy-change (2. order) :-0.7216705E-01  (-0.7191222E-01)
 number of electron     255.9999547 magnetization 
 augmentation part      -41.5265750 magnetization 

 Broyden mixing:
  rms(total) = 0.20133E+01    rms(broyden)= 0.20132E+01
  rms(prec ) = 0.22940E+01
  weight for this iteration     100.00

 Free energy of the ion-electron system (eV)
  ---------------------------------------------------
  alpha Z        PSCENC =       570.74668334
  Ewald energy   TEWEN  =     -7188.90738265
  -Hartree energ DENC   =      -602.98017921
  -exchange      EXHF   =         0.00000000
  -V(xc)+E(xc)   XCENC  =      -996.38147384
  PAW double counting   =      6692.16565901    -5247.93935635
  entropy T*S    EENTRO =         0.00000000
  eigenvalues    EBANDS =      -826.66638723
  atomic energy  EATOM  =      7329.73306348
  Solvation  Ediel_sol  =         0.00000000
  ---------------------------------------------------
  free energy    TOTEN  =      -270.22937345 eV

  energy without entropy =     -270.22937345  energy(sigma->0) =     -270.22937345


--------------------------------------------------------------------------------------------------------




--------------------------------------- Iteration      1(   6)  ---------------------------------------


    POTLOK:  cpu time      0.1121: real time      0.1154
    SETDIJ:  cpu time      0.0109: real time      0.0109
     EDDAV:  cpu time     98.3259: real time     99.7571
 BZINTS: Fermi energy:    2.077033;  256.000000 electrons
         Band energy:-0.775068E+03;  BLOECHL correction:    0.000000
       DOS:  cpu time      0.0078: real time      0.0079
    CHARGE:  cpu time      0.7898: real time      0.7945
    MIXING:  cpu time      0.0033: real time      0.0033
    --------------------------------------------
      LOOP:  cpu time     99.2498: real time    100.6891

 eigenvalue-minimisations  :  7032
 total energy-change (2. order) : 0.4188098E+01  (-0.6518642E+00)
 number of electron     255.9999554 magnetization 
 augmentation part      -41.4018920 magnetization 

 Broyden mixing:
  rms(total) = 0.11818E+01    rms(broyden)= 0.11818E+01
  rms(prec ) = 0.13059E+01
  weight for this iteration     100.00

 eigenvalues of (default mixing * dielectric matrix)
  average eigenvalue GAMMA=   2.2602
  2.2602

 Free energy of the ion-electron system (eV)
  ---------------------------------------------------
  alpha Z        PSCENC =       570.74668334
  Ewald energy   TEWEN  =     -7188.90738265
  -Hartree energ DENC   =      -653.68817559
  -exchange      EXHF   =         0.00000000
  -V(xc)+E(xc)   XCENC  =      -987.57902897
  PAW double counting   =      9403.62255030    -7964.90145609
  entropy T*S    EENTRO =         0.00000000
  eigenvalues    EBANDS =      -775.06752938
  atomic energy  EATOM  =      7329.73306348
  Solvation  Ediel_sol  =         0.00000000
  ---------------------------------------------------
  free energy    TOTEN  =      -266.04127556 eV

  energy without entropy =     -266.04127556  energy(sigma->0) =     -266.04127556


--------------------------------------------------------------------------------------------------------




--------------------------------------- Iteration      1(   7)  ---------------------------------------


    POTLOK:  cpu time      0.1136: real time      0.1196
    SETDIJ:  cpu time      0.0109: real time      0.0110
     EDDAV:  cpu time    101.6166: real time    102.9231
 BZINTS: Fermi energy:    2.299703;  256.000000 electrons
         Band energy:-0.726293E+03;  BLOECHL correction:    0.000000
       DOS:  cpu time      0.0076: real time      0.0077
    CHARGE:  cpu time      0.7806: real time      0.7857
    MIXING:  cpu time      0.0034: real time      0.0034
    --------------------------------------------
      LOOP:  cpu time    102.5327: real time    103.8506

 eigenvalue-minimisations  :  7296
 total energy-change (2. order) : 0.8283858E+00  (-0.4320008E+00)
 number of electron     255.9999560 magnetization 
 augmentation part      -41.2752511 magnetization 

 Broyden mixing:
  rms(total) = 0.24464E+00    rms(broyden)= 0.24464E+00
  rms(prec ) = 0.28730E+00
  weight for this iteration     100.00

 eigenvalues of (default mixing * dielectric matrix)
  average eigenvalue GAMMA=   1.9363
  1.6151  2.2575

 Free energy of the ion-electron system (eV)
  ---------------------------------------------------
  alpha Z        PSCENC =       570.74668334
  Ewald energy   TEWEN  =     -7188.90738265
  -Hartree energ DENC   =      -706.66705345
  -exchange      EXHF   =         0.00000000
  -V(xc)+E(xc)   XCENC  =      -976.75249828
  PAW double counting   =     13916.70224317   -12483.77466513
  entropy T*S    EENTRO =         0.00000000
  eigenvalues    EBANDS =      -726.29328020
  atomic energy  EATOM  =      7329.73306348
  Solvation  Ediel_sol  =         0.00000000
  ---------------------------------------------------
  free energy    TOTEN  =      -265.21288972 eV

  energy without entropy =     -265.21288972  energy(sigma->0) =     -265.21288972


--------------------------------------------------------------------------------------------------------




--------------------------------------- Iteration      1(   8)  ---------------------------------------


    POTLOK:  cpu time      0.1111: real time      0.1142
    SETDIJ:  cpu time      0.0108: real time      0.0109
     EDDAV:  cpu time     99.1244: real time    100.4206
 BZINTS: Fermi energy:    2.271331;  256.000000 electrons
         Band energy:-0.728017E+03;  BLOECHL correction:    0.000000
       DOS:  cpu time      0.0077: real time      0.0077
    CHARGE:  cpu time      0.7758: real time      0.7814
    MIXING:  cpu time      0.0035: real time      0.0035
    --------------------------------------------
      LOOP:  cpu time    100.0333: real time    101.3384

 eigenvalue-minimisations  :  7072
 total energy-change (2. order) : 0.4135375E-01  (-0.5060786E-01)
 number of electron     255.9999559 magnetization 
 augmentation part      -41.2841903 magnetization 

 Broyden mixing:
  rms(total) = 0.61477E-01    rms(broyden)= 0.61476E-01
  rms(prec ) = 0.71565E-01
  weight for this iteration     100.00

 eigenvalues of (default mixing * dielectric matrix)
  average eigenvalue GAMMA=   1.9488
  2.6802  1.5831  1.5831

 Free energy of the ion-electron system (eV)
  ---------------------------------------------------
  alpha Z        PSCENC =       570.74668334
  Ewald energy   TEWEN  =     -7188.90738265
  -Hartree energ DENC   =      -705.95343056
  -exchange      EXHF   =         0.00000000
  -V(xc)+E(xc)   XCENC  =      -975.40354412
  PAW double counting   =     14579.01844275   -13146.38885407
  entropy T*S    EENTRO =         0.00000000
  eigenvalues    EBANDS =      -728.01651413
  atomic energy  EATOM  =      7329.73306348
  Solvation  Ediel_sol  =         0.00000000
  ---------------------------------------------------
  free energy    TOTEN  =      -265.17153597 eV

  energy without entropy =     -265.17153597  energy(sigma->0) =     -265.17153597


--------------------------------------------------------------------------------------------------------




--------------------------------------- Iteration      1(   9)  ---------------------------------------


    POTLOK:  cpu time      0.1104: real time      0.1135
    SETDIJ:  cpu time      0.0110: real time      0.0111
     EDDAV:  cpu time     96.9850: real time     98.2600
 BZINTS: Fermi energy:    2.327273;  256.000000 electrons
         Band energy:-0.724096E+03;  BLOECHL correction:    0.000000
       DOS:  cpu time      0.0078: real time      0.0078
    CHARGE:  cpu time      0.7758: real time      0.7818
    MIXING:  cpu time      0.0034: real time      0.0034
    --------------------------------------------
      LOOP:  cpu time     97.8934: real time     99.1777

 eigenvalue-minimisations  :  6936
 total energy-change (2. order) :-0.1176094E-01  (-0.3584973E-02)
 number of electron     255.9999559 magnetization 
 augmentation part      -41.2852579 magnetization 

 Broyden mixing:
  rms(total) = 0.23151E-01    rms(broyden)= 0.23151E-01
  rms(prec ) = 0.24592E-01
  weight for this iteration     100.00

 eigenvalues of (default mixing * dielectric matrix)
  average eigenvalue GAMMA=   1.6614
  2.5807  1.6646  1.6646  0.7358

 Free energy of the ion-electron system (eV)
  ---------------------------------------------------
  alpha Z        PSCENC =       570.74668334
  Ewald energy   TEWEN  =     -7188.90738265
  -Hartree energ DENC   =      -710.58804524
  -exchange      EXHF   =         0.00000000
  -V(xc)+E(xc)   XCENC  =      -974.49870504
  PAW double counting   =     14770.61460757   -13338.18771476
  entropy T*S    EENTRO =         0.00000000
  eigenvalues    EBANDS =      -724.09580361
  atomic energy  EATOM  =      7329.73306348
  Solvation  Ediel_sol  =         0.00000000
  ---------------------------------------------------
  free energy    TOTEN  =      -265.18329691 eV

  energy without entropy =     -265.18329691  energy(sigma->0) =     -265.18329691


--------------------------------------------------------------------------------------------------------




--------------------------------------- Iteration      1(  10)  ---------------------------------------


    POTLOK:  cpu time      0.1117: real time      0.1148
    SETDIJ:  cpu time      0.0107: real time      0.0108
     EDDAV:  cpu time    104.4563: real time    105.7754
 BZINTS: Fermi energy:    2.319653;  256.000000 electrons
         Band energy:-0.724043E+03;  BLOECHL correction:    0.000000
       DOS:  cpu time      0.0077: real time      0.0078
    CHARGE:  cpu time      0.7747: real time      0.7797
    MIXING:  cpu time      0.0037: real time      0.0037
    --------------------------------------------
      LOOP:  cpu time    105.3647: real time    106.6921

 eigenvalue-minimisations  :  7592
 total energy-change (2. order) :-0.1066236E-02  (-0.9757171E-04)
 number of electron     255.9999559 magnetization 
 augmentation part      -41.2856417 magnetization 

 Broyden mixing:
  rms(total) = 0.10800E-01    rms(broyden)= 0.10800E-01
  rms(prec ) = 0.12554E-01
  weight for this iteration     100.00

 eigenvalues of (default mixing * dielectric matrix)
  average eigenvalue GAMMA=   1.9230
  3.1123  2.4987  1.0336  1.4852  1.4852

 Free energy of the ion-electron system (eV)
  ---------------------------------------------------
  alpha Z        PSCENC =       570.74668334
  Ewald energy   TEWEN  =     -7188.90738265
  -Hartree energ DENC   =      -710.67619607
  -exchange      EXHF   =         0.00000000
  -V(xc)+E(xc)   XCENC  =      -974.54199682
  PAW double counting   =     14688.54267219   -13256.03864107
  entropy T*S    EENTRO =         0.00000000
  eigenvalues    EBANDS =      -724.04256554
  atomic energy  EATOM  =      7329.73306348
  Solvation  Ediel_sol  =         0.00000000
  ---------------------------------------------------
  free energy    TOTEN  =      -265.18436315 eV

  energy without entropy =     -265.18436315  energy(sigma->0) =     -265.18436315


--------------------------------------------------------------------------------------------------------




--------------------------------------- Iteration      1(  11)  ---------------------------------------


    POTLOK:  cpu time      0.1111: real time      0.1166
    SETDIJ:  cpu time      0.0107: real time      0.0108
     EDDAV:  cpu time     92.3973: real time     93.5705
 BZINTS: Fermi energy:    2.315923;  256.000000 electrons
         Band energy:-0.723616E+03;  BLOECHL correction:    0.000000
       DOS:  cpu time      0.0077: real time      0.0077
    CHARGE:  cpu time      0.7738: real time      0.7789
    MIXING:  cpu time      0.0048: real time      0.0048
    --------------------------------------------
      LOOP:  cpu time     93.3054: real time     94.4892

 eigenvalue-minimisations  :  6528
 total energy-change (2. order) :-0.1311178E-02  (-0.2200383E-03)
 number of electron     255.9999559 magnetization 
 augmentation part      -41.2829258 magnetization 

 Broyden mixing:
  rms(total) = 0.50044E-02    rms(broyden)= 0.50044E-02
  rms(prec ) = 0.52513E-02
  weight for this iteration     100.00

 eigenvalues of (default mixing * dielectric matrix)
  average eigenvalue GAMMA=   1.7895
  3.0731  2.4848  1.6606  1.6606  0.9578  0.9001

 Free energy of the ion-electron system (eV)
  ---------------------------------------------------
  alpha Z        PSCENC =       570.74668334
  Ewald energy   TEWEN  =     -7188.90738265
  -Hartree energ DENC   =      -711.24119163
  -exchange      EXHF   =         0.00000000
  -V(xc)+E(xc)   XCENC  =      -974.46103201
  PAW double counting   =     14638.68891717   -13206.12874630
  entropy T*S    EENTRO =         0.00000000
  eigenvalues    EBANDS =      -723.61598572
  atomic energy  EATOM  =      7329.73306348
  Solvation  Ediel_sol  =         0.00000000
  ---------------------------------------------------
  free energy    TOTEN  =      -265.18567432 eV

  energy without entropy =     -265.18567432  energy(sigma->0) =     -265.18567432


--------------------------------------------------------------------------------------------------------




--------------------------------------- Iteration      1(  12)  ---------------------------------------


    POTLOK:  cpu time      0.1104: real time      0.1136
    SETDIJ:  cpu time      0.0110: real time      0.0111
     EDDAV:  cpu time    102.2500: real time    103.5446
 BZINTS: Fermi energy:    2.312600;  256.000000 electrons
         Band energy:-0.723572E+03;  BLOECHL correction:    0.000000
       DOS:  cpu time      0.0075: real time      0.0076
    CHARGE:  cpu time      0.7804: real time      0.7856
    MIXING:  cpu time      0.0037: real time      0.0037
    --------------------------------------------
      LOOP:  cpu time    103.1630: real time    104.4662

 eigenvalue-minimisations  :  7416
 total energy-change (2. order) :-0.7191993E-05  (-0.3045672E-05)
 number of electron     255.9999559 magnetization 
 augmentation part      -41.2828674 magnetization 

 Broyden mixing:
  rms(total) = 0.22381E-02    rms(broyden)= 0.22381E-02
  rms(prec ) = 0.24998E-02
  weight for this iteration     100.00

 eigenvalues of (default mixing * dielectric matrix)
  average eigenvalue GAMMA=   1.8861
  3.2471  2.6133  2.6133  1.3452  1.3452  1.0195  1.0195

 Free energy of the ion-electron system (eV)
  ---------------------------------------------------
  alpha Z        PSCENC =       570.74668334
  Ewald energy   TEWEN  =     -7188.90738265
  -Hartree energ DENC   =      -711.27278559
  -exchange      EXHF   =         0.00000000
  -V(xc)+E(xc)   XCENC  =      -974.46666851
  PAW double counting   =     14644.67975342   -13212.12669567
  entropy T*S    EENTRO =         0.00000000
  eigenvalues    EBANDS =      -723.57164933
  atomic energy  EATOM  =      7329.73306348
  Solvation  Ediel_sol  =         0.00000000
  ---------------------------------------------------
  free energy    TOTEN  =      -265.18568152 eV

  energy without entropy =     -265.18568152  energy(sigma->0) =     -265.18568152


--------------------------------------------------------------------------------------------------------




--------------------------------------- Iteration      1(  13)  ---------------------------------------


    POTLOK:  cpu time      0.1104: real time      0.1136
    SETDIJ:  cpu time      0.0107: real time      0.0108
     EDDAV:  cpu time     96.3090: real time     97.5254
 BZINTS: Fermi energy:    2.310385;  256.000000 electrons
         Band energy:-0.723445E+03;  BLOECHL correction:    0.000000
       DOS:  cpu time      0.0077: real time      0.0078
    CHARGE:  cpu time      0.7725: real time      0.7777
    MIXING:  cpu time      0.0040: real time      0.0040
    --------------------------------------------
      LOOP:  cpu time     97.2143: real time     98.4394

 eigenvalue-minimisations  :  6920
 total energy-change (2. order) :-0.8947511E-05  (-0.7799138E-05)
 number of electron     255.9999559 magnetization 
 augmentation part      -41.2821629 magnetization 

 Broyden mixing:
  rms(total) = 0.97666E-03    rms(broyden)= 0.97666E-03
  rms(prec ) = 0.10925E-02
  weight for this iteration     100.00

 eigenvalues of (default mixing * dielectric matrix)
  average eigenvalue GAMMA=   1.8426
  3.3783  2.7758  2.4465  1.6247  1.6247  1.1008  0.8948  0.8948

 Free energy of the ion-electron system (eV)
  ---------------------------------------------------
  alpha Z        PSCENC =       570.74668334
  Ewald energy   TEWEN  =     -7188.90738265
  -Hartree energ DENC   =      -711.39782864
  -exchange      EXHF   =         0.00000000
  -V(xc)+E(xc)   XCENC  =      -974.46183076
  PAW double counting   =     14648.38856989   -13215.84157826
  entropy T*S    EENTRO =         0.00000000
  eigenvalues    EBANDS =      -723.44538685
  atomic energy  EATOM  =      7329.73306348
  Solvation  Ediel_sol  =         0.00000000
  ---------------------------------------------------
  free energy    TOTEN  =      -265.18569046 eV

  energy without entropy =     -265.18569046  energy(sigma->0) =     -265.18569046


--------------------------------------------------------------------------------------------------------




--------------------------------------- Iteration      1(  14)  ---------------------------------------


    POTLOK:  cpu time      0.1097: real time      0.1152
    SETDIJ:  cpu time      0.0108: real time      0.0108
     EDDAV:  cpu time     87.3104: real time     88.4108
 BZINTS: Fermi energy:    2.307956;  256.000000 electrons
         Band energy:-0.723458E+03;  BLOECHL correction:    0.000000
       DOS:  cpu time      0.0079: real time      0.0079
    --------------------------------------------
      LOOP:  cpu time     87.4386: real time     88.5447

 eigenvalue-minimisations  :  5944
 total energy-change (2. order) : 0.5843904E-06  (-0.4031313E-06)
 number of electron     255.9999559 magnetization 
 augmentation part      -41.2821629 magnetization 

 Free energy of the ion-electron system (eV)
  ---------------------------------------------------
  alpha Z        PSCENC =       570.74668334
  Ewald energy   TEWEN  =     -7188.90738265
  -Hartree energ DENC   =      -711.38622622
  -exchange      EXHF   =         0.00000000
  -V(xc)+E(xc)   XCENC  =      -974.46193374
  PAW double counting   =     14648.42341153   -13215.87521255
  entropy T*S    EENTRO =         0.00000000
  eigenvalues    EBANDS =      -723.45809306
  atomic energy  EATOM  =      7329.73306348
  Solvation  Ediel_sol  =         0.00000000
  ---------------------------------------------------
  free energy    TOTEN  =      -265.18568988 eV

  energy without entropy =     -265.18568988  energy(sigma->0) =     -265.18568988


--------------------------------------------------------------------------------------------------------




 average (electrostatic) potential at core
  the test charge radii are     1.0621  1.2767
  (the norm of the test charge is              1.0000)
       1 -51.9093       2 -51.9093       3 -51.9093       4 -51.9093       5 -51.9093
       6 -51.9093       7 -51.9093       8 -51.9093       9 -51.9093      10 -51.9093
      11 -51.9093      12 -51.9093      13 -51.9093      14 -51.9093      15 -51.9093
      16 -51.9093      17 -51.9093      18 -51.9093      19 -51.9093      20 -51.9093
      21 -51.9093      22 -51.9093      23 -51.9093      24 -51.9093      25 -51.9093
      26 -51.9093      27 -51.9093      28 -51.9093      29 -51.9093      30 -51.9093
      31 -51.9093      32 -51.9093      33 -15.0838      34 -15.0838      35 -15.0838
      36 -15.0838      37 -15.0838      38 -15.0838      39 -15.0838      40 -15.0838
      41 -15.0838      42 -15.0838      43 -15.0838      44 -15.0838      45 -15.0838
      46 -15.0838      47 -15.0838      48 -15.0838      49 -15.0838      50 -15.0838
      51 -15.0838      52 -15.0838      53 -15.0838      54 -15.0838      55 -15.0838
      56 -15.0838      57 -15.0838      58 -15.0838      59 -15.0838      60 -15.0838
      61 -15.0838      62 -15.0838      63 -15.0838      64 -15.0838
 
 
 
 E-fermi :   2.3080     XC(G=0):  -8.9432     alpha+bet : -8.0648

 val. band max:        2.2824553391   @ k =   0.0000   0.0000   0.0000
 cond. band min:       2.4040960206   @ k =   0.0000   0.0000   0.0000
 fundamental gap:      0.1216406815
 Fermi energy:         2.3079560663

 k-point     1 :       0.0000    0.0000    0.0000
  band No.  band energies     occupation 
      1     -10.0227      2.00000
      2      -9.2281      2.00000
      3      -9.2281      2.00000
      4      -9.2198      2.00000
      5      -9.2198      2.00000
      6      -9.2198      2.00000
      7      -9.2198      2.00000
      8      -8.6236      2.00000
      9      -8.6236      2.00000
     10      -8.6236      2.00000
     11      -8.6236      2.00000
     12      -8.6236      2.00000
     13      -8.6236      2.00000
     14      -8.6236      2.00000
     15      -8.6236      2.00000
     16      -8.6205      2.00000
     17      -8.6205      2.00000
     18      -8.6205      2.00000
     19      -8.6205      2.00000
     20      -8.5365      2.00000
     21      -8.5365      2.00000
     22      -8.5365      2.00000
     23      -8.5365      2.00000
     24      -7.9050      2.00000
     25      -7.8850      2.00000
     26      -7.8850      2.00000
     27      -7.8598      2.00000
     28      -7.8598      2.00000
     29      -7.8598      2.00000
     30      -7.8598      2.00000
     31      -7.8515      2.00000
     32      -7.8515      2.00000
     33      -4.2721      2.00000
     34      -4.2357      2.00000
     35      -4.2357      2.00000
     36      -4.0786      2.00000
     37      -4.0786      2.00000
     38      -4.0786      2.00000
     39      -4.0786      2.00000
     40      -4.0659      2.00000
     41      -4.0659      2.00000
     42      -4.0259      2.00000
     43      -4.0259      2.00000
     44      -4.0259      2.00000
     45      -4.0259      2.00000
     46      -3.1894      2.00000
     47      -3.1894      2.00000
     48      -3.1894      2.00000
     49      -3.1894      2.00000
     50      -3.1784      2.00000
     51      -3.1784      2.00000
     52      -3.1784      2.00000
     53      -3.1784      2.00000
     54      -3.1784      2.00000
     55      -3.1784      2.00000
     56      -3.1784      2.00000
     57      -3.1784      2.00000
     58      -1.7991      2.00000
     59      -1.7991      2.00000
     60      -1.7680      2.00000
     61      -1.7680      2.00000
     62      -1.7680      2.00000
     63      -1.7680      2.00000
[...]
   15.655522    0.400802    0.408874    0.408874   -0.000000    0.000000   -0.000000
   15.675542    0.402355    0.410457    0.410457   -0.000000    0.000000   -0.000000
   15.695562    0.403948    0.412065    0.412065   -0.000000    0.000000   -0.000000
   15.715581    0.405576    0.413707    0.413707   -0.000000    0.000000   -0.000000
   15.735601    0.407232    0.415382    0.415382   -0.000000    0.000000   -0.000000
   15.755621    0.408912    0.417086    0.417086   -0.000000    0.000000   -0.000000
   15.775641    0.410611    0.418809    0.418809   -0.000000    0.000000   -0.000000
   15.795661    0.412325    0.420544    0.420544   -0.000000    0.000000   -0.000000
   15.815681    0.414051    0.422282    0.422282   -0.000000    0.000000   -0.000000
   15.835701    0.415786    0.424018    0.424018   -0.000000    0.000000   -0.000000
   15.855720    0.417528    0.425749    0.425749   -0.000000    0.000000   -0.000000
   15.875740    0.419274    0.427473    0.427473   -0.000000    0.000000   -0.000000
   15.895760    0.421024    0.429188    0.429188   -0.000000    0.000000   -0.000000
   15.915780    0.422776    0.430897    0.430897   -0.000000    0.000000   -0.000000
   15.935800    0.424530    0.432604    0.432604   -0.000000    0.000000   -0.000000
   15.955820    0.426286    0.434316    0.434316   -0.000000    0.000000   -0.000000
   15.975840    0.428042    0.436037    0.436037   -0.000000    0.000000   -0.000000
   15.995859    0.429793    0.437763    0.437763   -0.000000    0.000000   -0.000000
   16.015879    0.431533    0.439488    0.439488   -0.000000    0.000000   -0.000000
   16.035899    0.433257    0.441205    0.441205   -0.000000    0.000000   -0.000000
   16.055919    0.434963    0.442911    0.442911   -0.000000    0.000000   -0.000000
   16.075939    0.436653    0.444608    0.444608   -0.000000    0.000000   -0.000000
   16.095959    0.438330    0.446299    0.446299   -0.000000    0.000000   -0.000000
   16.115978    0.440002    0.447987    0.447987   -0.000000    0.000000   -0.000000
   16.135998    0.441675    0.449676    0.449676   -0.000000    0.000000   -0.000000
   16.156018    0.443351    0.451366    0.451366   -0.000000    0.000000   -0.000000
   16.176038    0.445031    0.453056    0.453056   -0.000000    0.000000   -0.000000
   16.196058    0.446712    0.454742    0.454742   -0.000000    0.000000   -0.000000
   16.216078    0.448390    0.456421    0.456421   -0.000000    0.000000   -0.000000
   16.236098    0.450062    0.458089    0.458089   -0.000000    0.000000   -0.000000
   16.256117    0.451725    0.459744    0.459744   -0.000000    0.000000   -0.000000
   16.276137    0.453377    0.461387    0.461387   -0.000000    0.000000   -0.000000
   16.296157    0.455018    0.463017    0.463017   -0.000000    0.000000   -0.000000
   16.316177    0.456647    0.464634    0.464634   -0.000000    0.000000   -0.000000
   16.336197    0.458265    0.466239    0.466239   -0.000000    0.000000   -0.000000
   16.356217    0.459871    0.467830    0.467830   -0.000000    0.000000   -0.000000
   16.376237    0.461466    0.469410    0.469410   -0.000000    0.000000   -0.000000
   16.396256    0.463050    0.470978    0.470978   -0.000000    0.000000   -0.000000
   16.416276    0.464624    0.472535    0.472535   -0.000000    0.000000   -0.000000
   16.436296    0.466187    0.474082    0.474082   -0.000000    0.000000   -0.000000
   16.456316    0.467740    0.475617    0.475617   -0.000000    0.000000   -0.000000
   16.476336    0.469283    0.477142    0.477142   -0.000000    0.000000   -0.000000
   16.496356    0.470817    0.478657    0.478657   -0.000000    0.000000   -0.000000
   16.516375    0.472341    0.480163    0.480163   -0.000000    0.000000   -0.000000
   16.536395    0.473855    0.481659    0.481659   -0.000000    0.000000   -0.000000
   16.556415    0.475361    0.483145    0.483145   -0.000000    0.000000   -0.000000
   16.576435    0.476857    0.484623    0.484623   -0.000000    0.000000   -0.000000
   16.596455    0.478344    0.486091    0.486091   -0.000000    0.000000   -0.000000
   16.616475    0.479823    0.487551    0.487551   -0.000000    0.000000   -0.000000
   16.636495    0.481293    0.489002    0.489002   -0.000000    0.000000   -0.000000
   16.656514    0.482754    0.490445    0.490445   -0.000000    0.000000   -0.000000
   16.676534    0.484207    0.491879    0.491879   -0.000000    0.000000   -0.000000
   16.696554    0.485651    0.493305    0.493305   -0.000000    0.000000   -0.000000
   16.716574    0.487088    0.494723    0.494723   -0.000000    0.000000   -0.000000
   16.736594    0.488516    0.496133    0.496133   -0.000000    0.000000   -0.000000
   16.756614    0.489936    0.497536    0.497536   -0.000000    0.000000   -0.000000
   16.776633    0.491349    0.498931    0.498931   -0.000000    0.000000   -0.000000
   16.796653    0.492754    0.500318    0.500318   -0.000000    0.000000   -0.000000
   16.816673    0.494151    0.501698    0.501698   -0.000000    0.000000   -0.000000
   16.836693    0.495541    0.503070    0.503070   -0.000000    0.000000   -0.000000
   16.856713    0.496924    0.504435    0.504435   -0.000000    0.000000   -0.000000
   16.876733    0.498299    0.505793    0.505793   -0.000000    0.000000   -0.000000
   16.896753    0.499667    0.507145    0.507145   -0.000000    0.000000   -0.000000
   16.916772    0.501028    0.508489    0.508489   -0.000000    0.000000   -0.000000
   16.936792    0.502383    0.509826    0.509826   -0.000000    0.000000   -0.000000
   16.956812    0.503730    0.511157    0.511157   -0.000000    0.000000   -0.000000
   16.976832    0.505071    0.512481    0.512481   -0.000000    0.000000   -0.000000
   16.996852    0.506405    0.513798    0.513798   -0.000000    0.000000   -0.000000
   17.016872    0.507732    0.515109    0.515109   -0.000000    0.000000   -0.000000
   17.036892    0.509053    0.516413    0.516413   -0.000000    0.000000   -0.000000
   17.056911    0.510368    0.517711    0.517711   -0.000000    0.000000   -0.000000
   17.076931    0.511676    0.519003    0.519003   -0.000000    0.000000   -0.000000
   17.096951    0.512978    0.520288    0.520288   -0.000000    0.000000   -0.000000
   17.116971    0.514273    0.521567    0.521567   -0.000000    0.000000   -0.000000
   17.136991    0.515562    0.522840    0.522840   -0.000000    0.000000   -0.000000
   17.157011    0.516846    0.524107    0.524107   -0.000000    0.000000   -0.000000
   17.177030    0.518123    0.525368    0.525368   -0.000000    0.000000   -0.000000
   17.197050    0.519394    0.526624    0.526624   -0.000000    0.000000   -0.000000
   17.217070    0.520660    0.527873    0.527873   -0.000000    0.000000   -0.000000
   17.237090    0.521919    0.529116    0.529116   -0.000000    0.000000   -0.000000
   17.257110    0.523173    0.530354    0.530354   -0.000000    0.000000   -0.000000
   17.277130    0.524421    0.531586    0.531586   -0.000000    0.000000   -0.000000
   17.297150    0.525663    0.532812    0.532812   -0.000000    0.000000   -0.000000
   17.317169    0.526899    0.534033    0.534033   -0.000000    0.000000   -0.000000
   17.337189    0.528130    0.535248    0.535248   -0.000000    0.000000   -0.000000
   17.357209    0.529355    0.536458    0.536458   -0.000000    0.000000   -0.000000
   17.377229    0.530575    0.537662    0.537662   -0.000000    0.000000   -0.000000
   17.397249    0.531790    0.538861    0.538861   -0.000000    0.000000   -0.000000
   17.417269    0.532999    0.540054    0.540054   -0.000000    0.000000   -0.000000
   17.437289    0.534202    0.541242    0.541242   -0.000000    0.000000   -0.000000
   17.457308    0.535401    0.542425    0.542425   -0.000000    0.000000   -0.000000
   17.477328    0.536594    0.543603    0.543603   -0.000000    0.000000   -0.000000
   17.497348    0.537781    0.544775    0.544775   -0.000000    0.000000   -0.000000
   17.517368    0.538964    0.545942    0.545942   -0.000000    0.000000   -0.000000
   17.537388    0.540141    0.547104    0.547104   -0.000000    0.000000   -0.000000
   17.557408    0.541314    0.548261    0.548261   -0.000000    0.000000   -0.000000
   17.577427    0.542481    0.549414    0.549414   -0.000000    0.000000   -0.000000
   17.597447    0.543643    0.550561    0.550561   -0.000000    0.000000   -0.000000
   17.617467    0.544800    0.551703    0.551703   -0.000000    0.000000   -0.000000
   17.637487    0.545953    0.552840    0.552840   -0.000000    0.000000   -0.000000
   17.657507    0.547100    0.553972    0.553972   -0.000000    0.000000   -0.000000
   17.677527    0.548242    0.555100    0.555100   -0.000000    0.000000   -0.000000
   17.697547    0.549380    0.556222    0.556222   -0.000000    0.000000   -0.000000
   17.717566    0.550513    0.557340    0.557340   -0.000000    0.000000   -0.000000
   17.737586    0.551641    0.558454    0.558454   -0.000000    0.000000   -0.000000
   17.757606    0.552764    0.559562    0.559562   -0.000000    0.000000   -0.000000
   17.777626    0.553883    0.560666    0.560666   -0.000000    0.000000   -0.000000
   17.797646    0.554997    0.561765    0.561765   -0.000000    0.000000   -0.000000
   17.817666    0.556106    0.562860    0.562860   -0.000000    0.000000   -0.000000
   17.837685    0.557211    0.563950    0.563950   -0.000000    0.000000   -0.000000
   17.857705    0.558311    0.565035    0.565035   -0.000000    0.000000   -0.000000
   17.877725    0.559406    0.566117    0.566117   -0.000000    0.000000   -0.000000
   17.897745    0.560498    0.567193    0.567193   -0.000000    0.000000   -0.000000
   17.917765    0.561584    0.568265    0.568265   -0.000000    0.000000   -0.000000
   17.937785    0.562666    0.569333    0.569333   -0.000000    0.000000   -0.000000
   17.957805    0.563744    0.570396    0.570396   -0.000000    0.000000   -0.000000
   17.977824    0.564817    0.571455    0.571455   -0.000000    0.000000   -0.000000
   17.997844    0.565886    0.572510    0.572510   -0.000000    0.000000   -0.000000
   18.017864    0.566951    0.573561    0.573561   -0.000000    0.000000   -0.000000
   18.037884    0.568012    0.574607    0.574607   -0.000000    0.000000   -0.000000
   18.057904    0.569068    0.575649    0.575649   -0.000000    0.000000   -0.000000
   18.077924    0.570120    0.576686    0.576686   -0.000000    0.000000   -0.000000
   18.097944    0.571167    0.577720    0.577720   -0.000000    0.000000   -0.000000
   18.117963    0.572211    0.578749    0.578749   -0.000000    0.000000   -0.000000
   18.137983    0.573250    0.579775    0.579775   -0.000000    0.000000   -0.000000
   18.158003    0.574285    0.580796    0.580796   -0.000000    0.000000   -0.000000
   18.178023    0.575316    0.581813    0.581813   -0.000000    0.000000   -0.000000
   18.198043    0.576343    0.582826    0.582826   -0.000000    0.000000   -0.000000
   18.218063    0.577366    0.583835    0.583835   -0.000000    0.000000   -0.000000
   18.238082    0.578385    0.584841    0.584841   -0.000000    0.000000   -0.000000
   18.258102    0.579400    0.585842    0.585842   -0.000000    0.000000   -0.000000
   18.278122    0.580411    0.586839    0.586839   -0.000000    0.000000   -0.000000
   18.298142    0.581418    0.587832    0.587832   -0.000000    0.000000   -0.000000
   18.318162    0.582421    0.588822    0.588822   -0.000000    0.000000   -0.000000
   18.338182    0.583420    0.589807    0.589807   -0.000000    0.000000   -0.000000
   18.358202    0.584416    0.590789    0.590789   -0.000000    0.000000   -0.000000
   18.378221    0.585407    0.591767    0.591767   -0.000000    0.000000   -0.000000
   18.398241    0.586395    0.592741    0.592741   -0.000000    0.000000   -0.000000
   18.418261    0.587378    0.593711    0.593711   -0.000000    0.000000   -0.000000
   18.438281    0.588359    0.594678    0.594678   -0.000000    0.000000   -0.000000
   18.458301    0.589335    0.595641    0.595641   -0.000000    0.000000   -0.000000
   18.478321    0.590307    0.596600    0.596600   -0.000000    0.000000   -0.000000
   18.498341    0.591276    0.597556    0.597556   -0.000000    0.000000   -0.000000
   18.518360    0.592241    0.598507    0.598507   -0.000000    0.000000   -0.000000
   18.538380    0.593203    0.599456    0.599456   -0.000000    0.000000   -0.000000
   18.558400    0.594160    0.600400    0.600400   -0.000000    0.000000   -0.000000
   18.578420    0.595114    0.601341    0.601341   -0.000000    0.000000   -0.000000
   18.598440    0.596065    0.602279    0.602279   -0.000000    0.000000   -0.000000
   18.618460    0.597012    0.603212    0.603212   -0.000000    0.000000   -0.000000
   18.638479    0.597955    0.604143    0.604143   -0.000000    0.000000   -0.000000
   18.658499    0.598895    0.605070    0.605070   -0.000000    0.000000   -0.000000
   18.678519    0.599831    0.605993    0.605993   -0.000000    0.000000   -0.000000
   18.698539    0.600764    0.606913    0.606913   -0.000000    0.000000   -0.000000
   18.718559    0.601694    0.607829    0.607829   -0.000000    0.000000   -0.000000
   18.738579    0.602619    0.608742    0.608742   -0.000000    0.000000   -0.000000
   18.758599    0.603542    0.609652    0.609652   -0.000000    0.000000   -0.000000
   18.778618    0.604461    0.610558    0.610558   -0.000000    0.000000   -0.000000
   18.798638    0.605376    0.611461    0.611461   -0.000000    0.000000   -0.000000
   18.818658    0.606288    0.612360    0.612360   -0.000000    0.000000   -0.000000
   18.838678    0.607197    0.613256    0.613256   -0.000000    0.000000   -0.000000
   18.858698    0.608103    0.614149    0.614149   -0.000000    0.000000   -0.000000
   18.878718    0.609005    0.615039    0.615039   -0.000000    0.000000   -0.000000
   18.898737    0.609904    0.615925    0.615925   -0.000000    0.000000   -0.000000
   18.918757    0.610799    0.616808    0.616808   -0.000000    0.000000   -0.000000
   18.938777    0.611691    0.617688    0.617688   -0.000000    0.000000   -0.000000
   18.958797    0.612580    0.618564    0.618564   -0.000000    0.000000   -0.000000
   18.978817    0.613466    0.619438    0.619438   -0.000000    0.000000   -0.000000
   18.998837    0.614349    0.620308    0.620308   -0.000000    0.000000   -0.000000
   19.018857    0.615228    0.621175    0.621175   -0.000000    0.000000   -0.000000
   19.038876    0.616104    0.622039    0.622039   -0.000000    0.000000   -0.000000
   19.058896    0.616977    0.622899    0.622899   -0.000000    0.000000   -0.000000
   19.078916    0.617847    0.623757    0.623757   -0.000000    0.000000   -0.000000
   19.098936    0.618713    0.624611    0.624611   -0.000000    0.000000   -0.000000
   19.118956    0.619577    0.625463    0.625463   -0.000000    0.000000   -0.000000
   19.138976    0.620437    0.626311    0.626311   -0.000000    0.000000   -0.000000
   19.158996    0.621295    0.627156    0.627156   -0.000000    0.000000   -0.000000
   19.179015    0.622149    0.627998    0.627998   -0.000000    0.000000   -0.000000
   19.199035    0.623000    0.628838    0.628838   -0.000000    0.000000   -0.000000
   19.219055    0.623848    0.629674    0.629674   -0.000000    0.000000   -0.000000
   19.239075    0.624693    0.630507    0.630507   -0.000000    0.000000   -0.000000
   19.259095    0.625536    0.631337    0.631337   -0.000000    0.000000   -0.000000
   19.279115    0.626375    0.632165    0.632165   -0.000000    0.000000   -0.000000
   19.299134    0.627211    0.632989    0.632989   -0.000000    0.000000   -0.000000
   19.319154    0.628044    0.633810    0.633810   -0.000000    0.000000   -0.000000
   19.339174    0.628874    0.634629    0.634629   -0.000000    0.000000   -0.000000
   19.359194    0.629702    0.635444    0.635444   -0.000000    0.000000   -0.000000
   19.379214    0.630526    0.636257    0.636257   -0.000000    0.000000   -0.000000
   19.399234    0.631348    0.637067    0.637067   -0.000000    0.000000   -0.000000
   19.419254    0.632166    0.637874    0.637874   -0.000000    0.000000   -0.000000
   19.439273    0.632982    0.638678    0.638678   -0.000000    0.000000   -0.000000
   19.459293    0.633795    0.639480    0.639480   -0.000000    0.000000   -0.000000
   19.479313    0.634605    0.640278    0.640278   -0.000000    0.000000   -0.000000
   19.499333    0.635412    0.641074    0.641074   -0.000000    0.000000   -0.000000
   19.519353    0.636217    0.641867    0.641867   -0.000000    0.000000   -0.000000
   19.539373    0.637019    0.642657    0.642657   -0.000000    0.000000   -0.000000
   19.559392    0.637817    0.643445    0.643445   -0.000000    0.000000   -0.000000
   19.579412    0.638614    0.644229    0.644229   -0.000000    0.000000   -0.000000
   19.599432    0.639407    0.645011    0.645011   -0.000000    0.000000   -0.000000
   19.619452    0.640198    0.645791    0.645791   -0.000000    0.000000   -0.000000
   19.639472    0.640985    0.646567    0.646567   -0.000000    0.000000   -0.000000
   19.659492    0.641771    0.647341    0.647341   -0.000000    0.000000   -0.000000
   19.679512    0.642553    0.648112    0.648112   -0.000000    0.000000   -0.000000
   19.699531    0.643333    0.648881    0.648881   -0.000000    0.000000   -0.000000
   19.719551    0.644110    0.649647    0.649647   -0.000000    0.000000   -0.000000
   19.739571    0.644884    0.650410    0.650410   -0.000000    0.000000   -0.000000
   19.759591    0.645656    0.651171    0.651171   -0.000000    0.000000   -0.000000
   19.779611    0.646425    0.651929    0.651929   -0.000000    0.000000   -0.000000
   19.799631    0.647192    0.652685    0.652685   -0.000000    0.000000   -0.000000
   19.819651    0.647956    0.653438    0.653438   -0.000000    0.000000   -0.000000
   19.839670    0.648717    0.654188    0.654188   -0.000000    0.000000   -0.000000
   19.859690    0.649476    0.654936    0.654936   -0.000000    0.000000   -0.000000
   19.879710    0.650232    0.655681    0.655681   -0.000000    0.000000   -0.000000
   19.899730    0.650986    0.656424    0.656424   -0.000000    0.000000   -0.000000
   19.919750    0.651737    0.657164    0.657164   -0.000000    0.000000   -0.000000
   19.939770    0.652486    0.657902    0.657902   -0.000000    0.000000   -0.000000
   19.959789    0.653232    0.658637    0.658637   -0.000000    0.000000   -0.000000
   19.979809    0.653975    0.659370    0.659370   -0.000000    0.000000   -0.000000
   19.999829    0.654716    0.660101    0.660101   -0.000000    0.000000   -0.000000
 
 The outermost node in the dielectric function lies at epsilon=  12.1


--------------------------------------------------------------------------------------------------------


    OPTICS:  cpu time     48.9564: real time     49.5930
    4ORBIT:  cpu time      0.0000: real time      0.0000
 BZINTS: Fermi energy:    2.308272;  256.000000 electrons
         Band energy:-0.723472E+03;  BLOECHL correction:    0.000000

 total amount of memory used by VASP MPI-rank0   362909. kBytes
=======================================================================

   base      :      30000. kBytes
   nonl-proj :     133084. kBytes
   fftplans  :       7212. kBytes
   grid      :      18251. kBytes
   one-center:        519. kBytes
   wavefun   :     173843. kBytes
 
  
  
 General timing and accounting informations for this job:
 ========================================================
  
                  Total CPU time used (sec):    15928.419
                            User time (sec):    15599.332
                          System time (sec):      329.086
                         Elapsed time (sec):    16120.783
  
                   Maximum memory used (kb):     1863232.
                   Average memory used (kb):          N/A
  
                          Minor page faults:      2296057
                          Major page faults:          194
                 Voluntary context switches:        22233
