<?xml version="1.0" encoding="ISO-8859-1"?>
<modeling>
 <generator>
  <i name="program" type="string">vasp </i>
  <i name="version" type="string">6.4.3  </i>
  <i name="subversion" type="string">19Mar24 (build Aug 29 2024 15:27:20) complex                          parallel </i>
  <i name="platform" type="string">LinuxIFC </i>
  <i name="date" type="string">2025 03 24 </i>
  <i name="time" type="string">12:04:26 </i>
 </generator>
 <incar>
  <i type="string" name="SYSTEM">GaAs</i>
  <i type="string" name="PREC">Normal</i>
  <i type="int" name="IBRION">     2</i>
  <i type="int" name="NFREE">     2</i>
  <i type="int" name="NSW">   100</i>
  <i type="int" name="ISIF">     2</i>
  <i name="ENCUT">    400.00000000</i>
  <i name="POTIM">      0.10000000</i>
  <i type="int" name="ISMEAR">    -5</i>
  <i name="SIGMA">      0.10000000</i>
  <i type="logical" name="LOPTICS"> T  </i>
  <i type="logical" name="LEPSILON"> T  </i>
 </incar>
 <primitive_cell>
  <structure name="primitive_cell" >
   <crystal>
    <varray name="basis" >
     <v>       2.89610846       0.00000000       2.87723332 </v>
     <v>       2.89610846       0.00000000      -2.87723332 </v>
     <v>      -2.89610846       2.87723332       0.00000000 </v>
    </varray>
    <i name="volume">     47.95070323 </i>
    <varray name="rec_basis" >
     <v>       0.17264547       0.17377805       0.17377805 </v>
     <v>       0.17264547       0.17377805      -0.17377805 </v>
     <v>       0.00000000       0.34755610       0.00000000 </v>
    </varray>
   </crystal>
   <varray name="positions" >
    <v>       0.00000000       0.00000000       0.00000000 </v>
    <v>       0.75000000       0.25000000       0.50000000 </v>
   </varray>
  </structure>
  <varray name="primitive_index" >
   <v type="int" >        1 </v>
   <v type="int" >       33 </v>
  </varray>
 </primitive_cell>
 <kpoints>
  <generation param="Gamma">
   <v type="int" name="divisions">       5        5        5 </v>
   <v name="usershift">      0.00000000       0.00000000       0.00000000 </v>
   <v name="genvec1">      0.20000000       0.00000000       0.00000000 </v>
   <v name="genvec2">      0.00000000       0.20000000       0.00000000 </v>
   <v name="genvec3">      0.00000000       0.00000000       0.20000000 </v>
   <v name="shift">      0.00000000       0.00000000       0.00000000 </v>
  </generation>
  <varray name="kpointlist" >
   <v>       0.00000000       0.00000000       0.00000000 </v>
   <v>       0.20000000       0.00000000       0.00000000 </v>
   <v>       0.40000000       0.00000000       0.00000000 </v>
   <v>       0.00000000       0.20000000       0.00000000 </v>
   <v>       0.20000000       0.20000000       0.00000000 </v>
   <v>       0.40000000       0.20000000       0.00000000 </v>
   <v>       0.00000000       0.40000000       0.00000000 </v>
   <v>       0.20000000       0.40000000       0.00000000 </v>
   <v>       0.40000000       0.40000000       0.00000000 </v>
   <v>       0.00000000       0.20000000       0.20000000 </v>
   <v>       0.20000000       0.20000000       0.20000000 </v>
   <v>       0.40000000       0.20000000       0.20000000 </v>
   <v>       0.00000000       0.40000000       0.20000000 </v>
   <v>       0.20000000       0.40000000       0.20000000 </v>
   <v>       0.40000000       0.40000000       0.20000000 </v>
   <v>       0.00000000       0.40000000       0.40000000 </v>
   <v>       0.20000000       0.40000000       0.40000000 </v>
   <v>       0.40000000       0.40000000       0.40000000 </v>
  </varray>
  <varray name="weights" >
   <v>       0.00800000 </v>
   <v>       0.01600000 </v>
   <v>       0.01600000 </v>
   <v>       0.03200000 </v>
   <v>       0.06400000 </v>
   <v>       0.06400000 </v>
   <v>       0.03200000 </v>
   <v>       0.06400000 </v>
   <v>       0.06400000 </v>
   <v>       0.03200000 </v>
   <v>       0.06400000 </v>
   <v>       0.06400000 </v>
   <v>       0.06400000 </v>
   <v>       0.12800000 </v>
   <v>       0.12800000 </v>
   <v>       0.03200000 </v>
   <v>       0.06400000 </v>
   <v>       0.06400000 </v>
  </varray>
  <varray name="tetrahedronlist"  type="int" >
   <v type="int" >        4       11       12       14       15 </v>
   <v type="int" >        4       11       14       14       15 </v>
   <v type="int" >        8       14       14       15       17 </v>
   <v type="int" >        4       12       14       15       15 </v>
   <v type="int" >        8       14       15       15       18 </v>
   <v type="int" >        4       14       15       17       18 </v>
   <v type="int" >        2       12       12       15       15 </v>
   <v type="int" >        4       12       15       15       15 </v>
   <v type="int" >       12       15       15       15       18 </v>
   <v type="int" >       10       15       15       18       18 </v>
   <v type="int" >        4       10       11       13       14 </v>
   <v type="int" >        4       11       13       14       14 </v>
   <v type="int" >        8       13       14       14       17 </v>
   <v type="int" >        4       10       13       13       14 </v>
   <v type="int" >        8       13       13       14       16 </v>
   <v type="int" >        4       13       14       16       17 </v>
   <v type="int" >        4       14       15       15       17 </v>
   <v type="int" >        4       14       15       17       17 </v>
   <v type="int" >        4       15       15       17       18 </v>
   <v type="int" >        4       15       17       18       18 </v>
   <v type="int" >        4       15       17       17       18 </v>
   <v type="int" >        8       15       18       18       18 </v>
   <v type="int" >        4       14       14       15       18 </v>
   <v type="int" >        4       14       15       18       18 </v>
   <v type="int" >        4       14       14       17       18 </v>
   <v type="int" >        4       14       17       17       18 </v>
   <v type="int" >        4       14       17       18       18 </v>
   <v type="int" >        4       13       13       14       17 </v>
   <v type="int" >        4       13       14       17       17 </v>
   <v type="int" >        4       13       13       16       17 </v>
   <v type="int" >        4       13       16       16       17 </v>
   <v type="int" >        4       13       16       17       17 </v>
   <v type="int" >        4       13       14       14       16 </v>
   <v type="int" >        4       13       14       16       16 </v>
   <v type="int" >        4       14       14       16       17 </v>
   <v type="int" >        4       14       16       17       17 </v>
   <v type="int" >        4       14       16       16       17 </v>
   <v type="int" >        4       12       14       15       17 </v>
   <v type="int" >        4       11       12       14       17 </v>
   <v type="int" >        4       12       15       17       18 </v>
   <v type="int" >        4       12       15       15       18 </v>
   <v type="int" >        4       12       12       15       18 </v>
   <v type="int" >        4       12       15       18       18 </v>
   <v type="int" >        4       11       14       15       18 </v>
   <v type="int" >        4       11       12       15       18 </v>
   <v type="int" >        4       11       14       17       18 </v>
   <v type="int" >        4       10       13       14       17 </v>
   <v type="int" >        4       10       11       14       17 </v>
   <v type="int" >        4       10       13       16       17 </v>
   <v type="int" >        4       11       13       14       16 </v>
   <v type="int" >        4       10       11       13       16 </v>
   <v type="int" >        4       11       14       16       17 </v>
   <v type="int" >        4        6       11       12       14 </v>
   <v type="int" >        4        5        6       11       14 </v>
   <v type="int" >        4        5        6        8       14 </v>
   <v type="int" >        4        6       12       14       15 </v>
   <v type="int" >        4        6        9       14       15 </v>
   <v type="int" >        4        6        8        9       14 </v>
   <v type="int" >        4        6       12       12       15 </v>
   <v type="int" >        4        6        6       12       15 </v>
   <v type="int" >        4        6        6        9       15 </v>
   <v type="int" >        4        6       12       15       15 </v>
   <v type="int" >        4        6        9       15       15 </v>
   <v type="int" >        4        6        9        9       15 </v>
   <v type="int" >        4        5       11       12       15 </v>
   <v type="int" >        4        5        6       12       15 </v>
   <v type="int" >        4        5        6        9       15 </v>
   <v type="int" >        4        5       11       14       15 </v>
   <v type="int" >        4        5        8       14       15 </v>
   <v type="int" >        4        5        8        9       15 </v>
   <v type="int" >        4        4       10       11       14 </v>
   <v type="int" >        4        4        5       11       14 </v>
   <v type="int" >        4        4        5        8       14 </v>
   <v type="int" >        4        4       10       13       14 </v>
   <v type="int" >        4        4        7       13       14 </v>
   <v type="int" >        4        4        7        8       14 </v>
   <v type="int" >        4        5       10       11       13 </v>
   <v type="int" >        4        4        5       10       13 </v>
   <v type="int" >        4        4        5        7       13 </v>
   <v type="int" >        4        5       11       13       14 </v>
   <v type="int" >        4        5        8       13       14 </v>
   <v type="int" >        4        5        7        8       13 </v>
   <v type="int" >        4        5        6        8       12 </v>
   <v type="int" >        4        5        8       11       12 </v>
   <v type="int" >        4        8       11       12       14 </v>
   <v type="int" >        4        6        8        9       12 </v>
   <v type="int" >        4        8        9       12       15 </v>
   <v type="int" >        4        8       12       14       15 </v>
   <v type="int" >        4        6        6        9       12 </v>
   <v type="int" >        4        6        9       12       12 </v>
   <v type="int" >        4        9       12       12       15 </v>
   <v type="int" >        4        6        9        9       12 </v>
   <v type="int" >        4        9        9       12       15 </v>
   <v type="int" >        4        9       12       15       15 </v>
   <v type="int" >        4        5        6        9       11 </v>
   <v type="int" >        4        6        9       11       12 </v>
   <v type="int" >        4        9       11       12       15 </v>
   <v type="int" >        4        5        8        9       11 </v>
   <v type="int" >        4        8        9       11       14 </v>
   <v type="int" >        4        9       11       14       15 </v>
   <v type="int" >        4        4        5        8       10 </v>
   <v type="int" >        4        5        8       10       11 </v>
   <v type="int" >        4        8       10       11       14 </v>
   <v type="int" >        4        4        7        8       10 </v>
   <v type="int" >        4        7        8       10       13 </v>
   <v type="int" >        4        8       10       13       14 </v>
   <v type="int" >        4        4        5        7       11 </v>
   <v type="int" >        4        4        7       10       11 </v>
   <v type="int" >        4        7       10       11       13 </v>
   <v type="int" >        4        5        7        8       11 </v>
   <v type="int" >        4        7        8       11       14 </v>
   <v type="int" >        4        7       11       13       14 </v>
   <v type="int" >        4       17       17       18       18 </v>
   <v type="int" >        4       17       17       17       18 </v>
   <v type="int" >        4       17       18       18       18 </v>
   <v type="int" >        6       18       18       18       18 </v>
   <v type="int" >        4       16       16       17       17 </v>
   <v type="int" >        4       16       17       17       17 </v>
   <v type="int" >        4       16       16       16       17 </v>
   <v type="int" >        4        9       14       14       15 </v>
   <v type="int" >        4        8        9       14       14 </v>
   <v type="int" >        4        8        8        9       14 </v>
   <v type="int" >        4        9       14       15       15 </v>
   <v type="int" >        4        9        9       14       15 </v>
   <v type="int" >        4        8        9        9       14 </v>
   <v type="int" >        8        9       15       15       15 </v>
   <v type="int" >        8        9        9       15       15 </v>
   <v type="int" >        8        9        9        9       15 </v>
   <v type="int" >        4        8       14       15       15 </v>
   <v type="int" >        4        8        9       15       15 </v>
   <v type="int" >        4        8        9        9       15 </v>
   <v type="int" >        4        8       14       14       15 </v>
   <v type="int" >        4        8        8       14       15 </v>
   <v type="int" >        4        8        8        9       15 </v>
   <v type="int" >        4        7       13       14       14 </v>
   <v type="int" >        4        7        8       14       14 </v>
   <v type="int" >        4        7        8        8       14 </v>
   <v type="int" >        4        7       13       13       14 </v>
   <v type="int" >        4        7        7       13       14 </v>
   <v type="int" >        4        7        7        8       14 </v>
   <v type="int" >        4        8       13       13       14 </v>
   <v type="int" >        4        7        8       13       13 </v>
   <v type="int" >        4        7        7        8       13 </v>
   <v type="int" >        4        8       13       14       14 </v>
   <v type="int" >        4        8        8       13       14 </v>
   <v type="int" >        4        7        8        8       13 </v>
   <v type="int" >        4        5        6       11       12 </v>
   <v type="int" >        4        5        5        6       11 </v>
   <v type="int" >        4        2        5        5        6 </v>
   <v type="int" >        4        5        6        6       12 </v>
   <v type="int" >        4        3        5        6        6 </v>
   <v type="int" >        4        2        3        5        6 </v>
   <v type="int" >        2        6        6       12       12 </v>
   <v type="int" >        4        6        6        6       12 </v>
   <v type="int" >        4        3        6        6        6 </v>
   <v type="int" >        2        3        3        6        6 </v>
   <v type="int" >        4        4        5       10       11 </v>
   <v type="int" >        4        4        5        5       11 </v>
   <v type="int" >        4        2        4        5        5 </v>
   <v type="int" >        4        4        4        5       10 </v>
   <v type="int" >        4        1        4        4        5 </v>
   <v type="int" >        4        1        2        4        5 </v>
   <v type="int" >        4        2        5        6       12 </v>
   <v type="int" >        4        2        5       11       12 </v>
   <v type="int" >        4        2        3        6       12 </v>
   <v type="int" >        4        3        6        6       12 </v>
   <v type="int" >        4        3        6       12       12 </v>
   <v type="int" >        4        3        3        6       12 </v>
   <v type="int" >        4        3        5        6       11 </v>
   <v type="int" >        4        3        6       11       12 </v>
   <v type="int" >        4        2        3        5       11 </v>
   <v type="int" >        4        2        4        5       10 </v>
   <v type="int" >        4        2        5       10       11 </v>
   <v type="int" >        4        1        2        4       10 </v>
   <v type="int" >        4        1        4        5       11 </v>
   <v type="int" >        4        1        4       10       11 </v>
   <v type="int" >        4        1        2        5       11 </v>
  </varray>
  <i name="volumeweight">      0.00133333 </i>
 </kpoints>
 <parameters>
  <separator name="general" >
   <i type="string" name="SYSTEM">GaAs</i>
   <i type="logical" name="LCOMPAT"> F  </i>
  </separator>
  <separator name="electronic" >
   <i type="string" name="PREC">normal</i>
   <i name="ENMAX">    400.00000000</i>
   <i name="ENAUG">    462.75800000</i>
   <i name="EDIFF">      0.00000100</i>
   <i type="int" name="IALGO">    38</i>
   <i type="int" name="IWAVPR">    11</i>
   <i type="int" name="NBANDS">   168</i>
   <i type="int" name="NBANDSLOW">    -1</i>
   <i type="int" name="NBANDSHIGH">    -1</i>
   <i name="NELECT">    256.00000000</i>
   <i type="int" name="TURBO">     0</i>
   <i type="int" name="IRESTART">     0</i>
   <i type="int" name="NREBOOT">     0</i>
   <i type="int" name="NMIN">     0</i>
   <i name="EREF">      0.00000000</i>
   <separator name="electronic smearing" >
    <i type="int" name="ISMEAR">    -5</i>
    <i name="SIGMA">      0.10000000</i>
    <i name="KSPACING">      0.50000000</i>
    <i type="logical" name="KGAMMA"> T  </i>
    <i type="logical" name="KBLOWUP"> T  </i>
   </separator>
   <separator name="electronic projectors" >
    <i type="logical" name="LREAL"> F  </i>
    <v name="ROPT">      0.00000000      0.00000000</v>
    <i type="int" name="LMAXPAW">  -100</i>
    <i type="int" name="LMAXMIX">     2</i>
    <i type="logical" name="NLSPLINE"> F  </i>
   </separator>
   <separator name="electronic startup" >
    <i type="int" name="ISTART">     0</i>
    <i type="int" name="ICHARG">     2</i>
    <i type="int" name="INIWAV">     1</i>
   </separator>
   <separator name="electronic spin" >
    <i type="int" name="ISPIN">     1</i>
    <i type="logical" name="LNONCOLLINEAR"> F  </i>
    <v name="MAGMOM">      1.00000000      1.00000000      1.00000000      1.00000000      1.00000000      1.00000000      1.00000000      1.00000000      1.00000000      1.00000000      1.00000000      1.00000000      1.00000000      1.00000000      1.00000000      1.00000000      1.00000000      1.00000000      1.00000000      1.00000000
      1.00000000      1.00000000      1.00000000      1.00000000      1.00000000      1.00000000      1.00000000      1.00000000      1.00000000      1.00000000      1.00000000      1.00000000      1.00000000      1.00000000      1.00000000      1.00000000      1.00000000      1.00000000      1.00000000      1.00000000
      1.00000000      1.00000000      1.00000000      1.00000000      1.00000000      1.00000000      1.00000000      1.00000000      1.00000000      1.00000000      1.00000000      1.00000000      1.00000000      1.00000000      1.00000000      1.00000000      1.00000000      1.00000000      1.00000000      1.00000000
      1.00000000      1.00000000      1.00000000      1.00000000</v>
    <i name="NUPDOWN">     -1.00000000</i>
    <i type="logical" name="LSORBIT"> F  </i>
    <v name="SAXIS">      0.00000000      0.00000000      1.00000000</v>
    <i type="logical" name="LSPIRAL"> F  </i>
    <v name="QSPIRAL">      0.00000000      0.00000000      0.00000000</v>
    <i type="logical" name="LZEROZ"> F  </i>
   </separator>
   <separator name="electronic exchange-correlation" >
    <i type="logical" name="LASPH"> F  </i>
   </separator>
   <separator name="electronic convergence" >
    <i type="int" name="NELM">    60</i>
    <i type="int" name="NELMDL">    -5</i>
    <i type="int" name="NELMIN">     2</i>
    <i name="ENINI">    400.00000000</i>
    <separator name="electronic convergence detail" >
     <i type="logical" name="LDIAG"> T  </i>
     <i type="logical" name="LSUBROT"> F  </i>
     <i name="WEIMIN">      0.00100000</i>
     <i name="EBREAK">      0.00000000</i>
     <i name="DEPER">      0.30000000</i>
     <i type="int" name="NRMM">     4</i>
     <i name="TIME">      0.40000000</i>
    </separator>
   </separator>
   <separator name="electronic mixer" >
    <i name="AMIX">      0.40000000</i>
    <i name="BMIX">      1.00000000</i>
    <i name="AMIN">      0.10000000</i>
    <i name="AMIX_MAG">      1.60000000</i>
    <i name="BMIX_MAG">      1.00000000</i>
    <separator name="electronic mixer details" >
     <i type="int" name="IMIX">     4</i>
     <i type="logical" name="MIXFIRST"> F  </i>
     <i type="int" name="MAXMIX">   -45</i>
     <i name="WC">    100.00000000</i>
     <i type="int" name="INIMIX">     1</i>
     <i type="int" name="MIXPRE">     1</i>
     <i type="int" name="MREMOVE">     5</i>
    </separator>
   </separator>
   <separator name="electronic dipolcorrection" >
    <i type="logical" name="LDIPOL"> F  </i>
    <i type="logical" name="LMONO"> F  </i>
    <i type="int" name="IDIPOL">     0</i>
    <i name="EPSILON">      1.00000000</i>
    <v name="DIPOL">   -100.00000000   -100.00000000   -100.00000000</v>
    <i name="EFIELD">      0.00000000</i>
    <i type="logical" name="LVACPOTAV"> F  </i>
   </separator>
  </separator>
  <separator name="grids" >
   <i type="int" name="NGX">    60</i>
   <i type="int" name="NGY">    56</i>
   <i type="int" name="NGZ">    56</i>
   <i type="int" name="NGXF">   120</i>
   <i type="int" name="NGYF">   112</i>
   <i type="int" name="NGZF">   112</i>
   <i type="logical" name="ADDGRID"> F  </i>
  </separator>
  <separator name="ionic" >
   <i type="int" name="NSW">   100</i>
   <i type="int" name="IBRION">     2</i>
   <i type="int" name="MDALGO">     0</i>
   <i type="int" name="ISIF">     2</i>
   <i name="PSTRESS">      0.00000000</i>
   <i name="EDIFFG">      0.00100000</i>
   <i type="int" name="NFREE">     2</i>
   <i name="POTIM">      0.10000000</i>
   <i name="SMASS">     -3.00000000</i>
   <i name="SCALEE">      1.00000000</i>
  </separator>
  <separator name="ionic md" >
   <i name="TEBEG">      0.00010000</i>
   <i name="TEEND">      0.00010000</i>
   <i type="int" name="NBLOCK">     1</i>
   <i type="int" name="KBLOCK">   100</i>
   <i type="int" name="NPACO">   256</i>
   <i name="APACO">     10.00000000</i>
  </separator>
  <separator name="symmetry" >
   <i type="int" name="ISYM">     2</i>
   <i name="SYMPREC">      0.00001000</i>
  </separator>
  <separator name="dos" >
   <i type="int" name="LORBIT">     0</i>
   <v name="RWIGS">     -1.00000000     -1.00000000</v>
   <i type="int" name="NEDOS">   301</i>
   <i name="EMIN">     10.00000000</i>
   <i name="EMAX">    -10.00000000</i>
   <i name="EFERMI">      0.00000000</i>
  </separator>
  <separator name="writing" >
   <i type="int" name="NWRITE">     2</i>
   <i type="logical" name="LWAVE"> T  </i>
   <i type="logical" name="LDOWNSAMPLE"> F  </i>
   <i type="logical" name="LCHARG"> T  </i>
   <i type="logical" name="LPARD"> F  </i>
   <i type="logical" name="LVTOT"> F  </i>
   <i type="logical" name="LVHAR"> F  </i>
   <i type="logical" name="LELF"> F  </i>
   <i type="logical" name="LOPTICS"> T  </i>
   <v name="STM">      0.00000000      0.00000000      0.00000000      0.00000000      0.00000000      0.00000000      0.00000000</v>
  </separator>
  <separator name="performance" >
   <i type="int" name="NPAR">     8</i>
   <i type="int" name="NSIM">     4</i>
   <i type="int" name="NBLK">    -1</i>
   <i type="logical" name="LPLANE"> T  </i>
   <i type="logical" name="LSCALAPACK"> T  </i>
   <i type="logical" name="LSCAAWARE"> F  </i>
   <i type="logical" name="LSCALU"> F  </i>
   <i type="logical" name="LASYNC"> F  </i>
   <i type="logical" name="LORBITALREAL"> F  </i>
  </separator>
  <separator name="miscellaneous" >
   <i type="int" name="IDIOT">     3</i>
   <i type="int" name="PHON_NSTRUCT">    -1</i>
   <i type="logical" name="LMUSIC"> F  </i>
   <v name="POMASS">     74.92200000     69.72300000</v>
   <v name="DARWINR">      0.00000000      0.00000000</v>
   <v name="DARWINV">      1.00000000      1.00000000</v>
   <i type="logical" name="LCORR"> T  </i>
  </separator>
  <i type="logical" name="GGA_COMPAT"> T  </i>
  <i type="logical" name="LBERRY"> F  </i>
  <i type="int" name="ICORELEVEL">     0</i>
  <i type="logical" name="LDAU"> F  </i>
  <i type="int" name="I_CONSTRAINED_M">     0</i>
  <separator name="electronic exchange-correlation" >
   <i type="string" name="GGA    ">PE</i>
   <i type="string" name="XC_C">1</i>
   <i type="int" name="VOSKOWN">     0</i>
   <i type="logical" name="LHFCALC"> F  </i>
   <i type="string" name="PRECFOCK"></i>
   <i type="logical" name="LSYMGRAD"> F  </i>
   <i type="logical" name="LHFONE"> F  </i>
   <i type="logical" name="LRHFCALC"> F  </i>
   <i type="logical" name="LTHOMAS"> F  </i>
   <i type="logical" name="LMODELHF"> F  </i>
   <i type="logical" name="LFOCKACE"> F  </i>
   <i name="ENCUT4O">     -1.00000000</i>
   <i type="int" name="EXXOEP">     0</i>
   <i type="int" name="FOURORBIT">     0</i>
   <i name="AEXX">      0.00000000</i>
   <i name="HFALPHA">      0.00000000</i>
   <i name="MCALPHA">      0.00000000</i>
   <i name="ALDAX">      1.00000000</i>
   <i name="AGGAX">      1.00000000</i>
   <i name="AMGGAX">      1.00000000</i>
   <i name="ALDAC">      1.00000000</i>
   <i name="AGGAC">      1.00000000</i>
   <i name="AMGGAC">      1.00000000</i>
   <i type="int" name="NKREDX">     1</i>
   <i type="int" name="NKREDY">     1</i>
   <i type="int" name="NKREDZ">     1</i>
   <i type="logical" name="SHIFTRED"> F  </i>
   <i type="logical" name="ODDONLY"> F  </i>
   <i type="logical" name="EVENONLY"> F  </i>
   <i type="int" name="LMAXFOCK">     0</i>
   <i type="int" name="NMAXFOCKAE">     0</i>
   <i type="logical" name="LFOCKAEDFT"> F  </i>
   <i name="HFSCREEN">      0.00000000</i>
   <i name="HFSCREENC">      0.00000000</i>
   <i type="int" name="NBANDSGWLOW">     0</i>
  </separator>
  <separator name="vdW DFT" >
   <i type="logical" name="LUSE_VDW"> F  </i>
   <i type="int" name="IVDW_NL">    -1</i>
   <i type="logical" name="LSPIN_VDW"> F  </i>
   <i name="ZAB_VDW">     -0.84910000</i>
   <i name="GAMMA_VDW">      1.39626340</i>
   <i name="ALPHA_VDW">      0.00000000</i>
   <i name="PARAM1">      0.12340000</i>
   <i name="PARAM2">      1.00000000</i>
   <i name="BPARAM">      6.30000000</i>
   <i name="CPARAM">      0.00930000</i>
  </separator>
  <separator name="model GW" >
   <i type="int" name="MODEL_GW">     0</i>
   <i name="MODEL_EPS0">     14.38521097</i>
   <i name="MODEL_ALPHA">      1.00000000</i>
  </separator>
  <separator name="linear response parameters" >
   <i type="logical" name="LEPSILON"> T  </i>
   <i type="logical" name="LRPA"> F  </i>
   <i type="logical" name="LNABLA"> F  </i>
   <i type="logical" name="LVEL"> F  </i>
   <i name="CSHIFT">      0.10000000</i>
   <i name="OMEGAMAX">     -1.00000000</i>
   <i name="DEG_THRESHOLD">      0.00200000</i>
   <i name="RTIME">     -0.10000000</i>
   <i name="WPLASMAI">      0.00000000</i>
   <v name="DFIELD">      0.00000000      0.00000000      0.00000000</v>
   <v name="WPLASMA">      0.00000000      0.00000000      0.00000000      0.00000000      0.00000000      0.00000000      0.00000000      0.00000000      0.00000000</v>
  </separator>
  <separator name="orbital magnetization" >
   <i type="logical" name="NUCIND"> F  </i>
   <v name="MAGPOS">      0.00000000      0.00000000      0.00000000</v>
   <i type="logical" name="LNICSALL"> T  </i>
   <i type="logical" name="ORBITALMAG"> F  </i>
   <i type="logical" name="LMAGBLOCH"> F  </i>
   <i type="logical" name="LCHIMAG"> F  </i>
   <i type="logical" name="LGAUGE"> T  </i>
   <i type="int" name="MAGATOM">     0</i>
   <v name="MAGDIPOL">      0.00000000      0.00000000      0.00000000</v>
   <v name="AVECCONST">      0.00000000      0.00000000      0.00000000</v>
  </separator>
  <separator name="response functions" >
   <i type="logical" name="LALL_IN_ONE"> F  </i>
   <i type="int" name="IALL_IN_ONE">    -1</i>
   <i type="int" name="NBANDS_WAVE">    -1</i>
   <i type="logical" name="LFINITE_TEMPERATURE"> F  </i>
   <i type="logical" name="LADDER"> F  </i>
   <i type="logical" name="LRPAFORCE"> F  </i>
   <i type="logical" name="LFXC"> F  </i>
   <i type="logical" name="LHARTREE"> T  </i>
   <i type="int" name="IBSE">     0</i>
   <v type="int" name="KPOINT">    -1     0     0     0</v>
   <i type="logical" name="LTCTC"> F  </i>
   <i type="logical" name="LTCTE"> F  </i>
   <i type="logical" name="LTETE"> F  </i>
   <i type="logical" name="LTRIPLET"> F  </i>
   <i type="logical" name="LFXCEPS"> F  </i>
   <i type="logical" name="LFXHEG"> F  </i>
   <i type="int" name="NATURALO">     2</i>
   <i type="logical" name="LHOLEGF"> F  </i>
   <i type="logical" name="L2ORDER"> F  </i>
   <i type="logical" name="LDMP1"> F  </i>
   <i type="logical" name="LMP2LT"> F  </i>
   <i type="logical" name="LSMP2LT"> F  </i>
   <i type="logical" name="LGWLF"> F  </i>
   <i name="ENCUTGW">     -1.60000002</i>
   <i name="ENCUTGWSOFT">     -1.60000002</i>
   <i name="ENCUTLF">     -1.00000000</i>
   <i type="logical" name="ESF_SPLINES"> F  </i>
   <i name="ESF_CONV">      0.01000000</i>
   <i type="int" name="ESF_NINTER">    15</i>
   <i type="int" name="LMAXMP2">    -1</i>
   <i name="SCISSOR">      0.00000000</i>
   <i type="int" name="NOMEGA">     0</i>
   <i type="int" name="NOMEGAR">     0</i>
   <i type="int" name="NBANDSGW">    -1</i>
   <i type="int" name="NBANDSO">    -1</i>
   <i type="int" name="NBANDSV">    -1</i>
   <i type="int" name="NELMGW">     1</i>
   <i type="int" name="NELMHF">     1</i>
   <i type="int" name="DIM">     3</i>
   <i type="int" name="IESPILON">     4</i>
   <i type="int" name="ANTIRES">     0</i>
   <i name="OMEGAMAX">    -30.00000000</i>
   <i name="OMEGAMIN">    -30.00000000</i>
   <i name="OMEGATL">   -200.00000000</i>
   <i type="int" name="OMEGAGRID">     0</i>
   <i name="CSHIFT">     -0.10000000</i>
   <i type="logical" name="LSELFENERGY"> F  </i>
   <i type="logical" name="LSPECTRAL"> F  </i>
   <i type="logical" name="LSPECTRALGW"> F  </i>
   <i type="logical" name="LSINGLES"> F  </i>
   <i type="logical" name="LFERMIGW"> F  </i>
   <i type="logical" name="ODDONLYGW"> F  </i>
   <i type="logical" name="EVENONLYGW"> F  </i>
   <i type="int" name="NKREDLFX">     1</i>
   <i type="int" name="NKREDLFY">     1</i>
   <i type="int" name="NKREDLFZ">     1</i>
   <i type="int" name="MAXMEM">  2800</i>
   <i type="int" name="TELESCOPE">     0</i>
   <i type="int" name="NTAUPAR">    -1</i>
   <i type="int" name="NOMEGAPAR">    -1</i>
   <i name="DAMP_NEWTON">      0.80000001</i>
   <i name="LAMBDA">      1.00000000</i>
  </separator>
  <separator name="External order field" >
   <i name="OFIELD_KAPPA">      0.00000000</i>
   <v name="OFIELD_K">      0.00000000      0.00000000      0.00000000</v>
   <i name="OFIELD_Q6_NEAR">      0.00000000</i>
   <i name="OFIELD_Q6_FAR">      0.00000000</i>
   <i name="OFIELD_A">      0.00000000</i>
  </separator>
  <separator name="optional k-points parameters" >
   <i type="int" name="KPOINTS_OPT_MODE">     1</i>
   <i type="logical" name="LKPOINTS_OPT"> F  </i>
  </separator>
 </parameters>
 <atominfo>
  <atoms>      64 </atoms>
  <types>       2 </types>
  <array name="atoms" >
   <dimension dim="1">ion</dimension>
   <field type="string">element</field>
   <field type="int">atomtype</field>
   <set>
    <rc><c>As</c><c>   1</c></rc>
    <rc><c>As</c><c>   1</c></rc>
    <rc><c>As</c><c>   1</c></rc>
    <rc><c>As</c><c>   1</c></rc>
    <rc><c>As</c><c>   1</c></rc>
    <rc><c>As</c><c>   1</c></rc>
    <rc><c>As</c><c>   1</c></rc>
    <rc><c>As</c><c>   1</c></rc>
    <rc><c>As</c><c>   1</c></rc>
    <rc><c>As</c><c>   1</c></rc>
    <rc><c>As</c><c>   1</c></rc>
    <rc><c>As</c><c>   1</c></rc>
    <rc><c>As</c><c>   1</c></rc>
    <rc><c>As</c><c>   1</c></rc>
    <rc><c>As</c><c>   1</c></rc>
    <rc><c>As</c><c>   1</c></rc>
    <rc><c>As</c><c>   1</c></rc>
    <rc><c>As</c><c>   1</c></rc>
    <rc><c>As</c><c>   1</c></rc>
    <rc><c>As</c><c>   1</c></rc>
    <rc><c>As</c><c>   1</c></rc>
    <rc><c>As</c><c>   1</c></rc>
    <rc><c>As</c><c>   1</c></rc>
    <rc><c>As</c><c>   1</c></rc>
    <rc><c>As</c><c>   1</c></rc>
    <rc><c>As</c><c>   1</c></rc>
    <rc><c>As</c><c>   1</c></rc>
    <rc><c>As</c><c>   1</c></rc>
    <rc><c>As</c><c>   1</c></rc>
    <rc><c>As</c><c>   1</c></rc>
    <rc><c>As</c><c>   1</c></rc>
    <rc><c>As</c><c>   1</c></rc>
    <rc><c>Ga</c><c>   2</c></rc>
    <rc><c>Ga</c><c>   2</c></rc>
    <rc><c>Ga</c><c>   2</c></rc>
    <rc><c>Ga</c><c>   2</c></rc>
    <rc><c>Ga</c><c>   2</c></rc>
    <rc><c>Ga</c><c>   2</c></rc>
    <rc><c>Ga</c><c>   2</c></rc>
    <rc><c>Ga</c><c>   2</c></rc>
    <rc><c>Ga</c><c>   2</c></rc>
    <rc><c>Ga</c><c>   2</c></rc>
    <rc><c>Ga</c><c>   2</c></rc>
    <rc><c>Ga</c><c>   2</c></rc>
    <rc><c>Ga</c><c>   2</c></rc>
    <rc><c>Ga</c><c>   2</c></rc>
    <rc><c>Ga</c><c>   2</c></rc>
    <rc><c>Ga</c><c>   2</c></rc>
    <rc><c>Ga</c><c>   2</c></rc>
    <rc><c>Ga</c><c>   2</c></rc>
    <rc><c>Ga</c><c>   2</c></rc>
    <rc><c>Ga</c><c>   2</c></rc>
    <rc><c>Ga</c><c>   2</c></rc>
    <rc><c>Ga</c><c>   2</c></rc>
    <rc><c>Ga</c><c>   2</c></rc>
    <rc><c>Ga</c><c>   2</c></rc>
    <rc><c>Ga</c><c>   2</c></rc>
    <rc><c>Ga</c><c>   2</c></rc>
    <rc><c>Ga</c><c>   2</c></rc>
    <rc><c>Ga</c><c>   2</c></rc>
    <rc><c>Ga</c><c>   2</c></rc>
    <rc><c>Ga</c><c>   2</c></rc>
    <rc><c>Ga</c><c>   2</c></rc>
    <rc><c>Ga</c><c>   2</c></rc>
   </set>
  </array>
  <array name="atomtypes" >
   <dimension dim="1">type</dimension>
   <field type="int">atomspertype</field>
   <field type="string">element</field>
   <field>mass</field>
   <field>valence</field>
   <field type="string">pseudopotential</field>
   <set>
    <rc><c>  32</c><c>As</c><c>     74.92200000</c><c>      5.00000000</c><c>  PAW_PBE As 22Sep2009                  </c></rc>
    <rc><c>  32</c><c>Ga</c><c>     69.72300000</c><c>      3.00000000</c><c>  PAW_PBE Ga 08Apr2002                  </c></rc>
   </set>
  </array>
 </atominfo>
 <structure name="initialpos" >
  <crystal>
   <varray name="basis" >
    <v>      11.58443383       0.00000000       0.00000000 </v>
    <v>       0.00000000      11.50893329       0.00000000 </v>
    <v>       0.00000000       0.00000000      11.50893329 </v>
   </varray>
   <i name="volume">   1534.42250334 </i>
   <varray name="rec_basis" >
    <v>       0.08632273       0.00000000       0.00000000 </v>
    <v>       0.00000000       0.08688903       0.00000000 </v>
    <v>       0.00000000       0.00000000       0.08688903 </v>
   </varray>
  </crystal>
  <varray name="positions" >
   <v>       0.00000000       0.00000000       0.00000000 </v>
   <v>       0.00000000       0.00000000       0.50000000 </v>
   <v>       0.00000000       0.50000000       0.00000000 </v>
   <v>       0.00000000       0.50000000       0.50000000 </v>
   <v>       0.50000000       0.00000000       0.00000000 </v>
   <v>       0.50000000       0.00000000       0.50000000 </v>
   <v>       0.50000000       0.50000000       0.00000000 </v>
   <v>       0.50000000       0.50000000       0.50000000 </v>
   <v>       0.25000000       0.25000000       0.00000000 </v>
   <v>       0.25000000       0.25000000       0.50000000 </v>
   <v>       0.25000000       0.75000000       0.00000000 </v>
   <v>       0.25000000       0.75000000       0.50000000 </v>
   <v>       0.75000000       0.25000000       0.00000000 </v>
   <v>       0.75000000       0.25000000       0.50000000 </v>
   <v>       0.75000000       0.75000000       0.00000000 </v>
   <v>       0.75000000       0.75000000       0.50000000 </v>
   <v>       0.25000000       0.00000000       0.25000000 </v>
   <v>       0.25000000       0.00000000       0.75000000 </v>
   <v>       0.25000000       0.50000000       0.25000000 </v>
   <v>       0.25000000       0.50000000       0.75000000 </v>
   <v>       0.75000000       0.00000000       0.25000000 </v>
   <v>       0.75000000       0.00000000       0.75000000 </v>
   <v>       0.75000000       0.50000000       0.25000000 </v>
   <v>       0.75000000       0.50000000       0.75000000 </v>
   <v>       0.00000000       0.25000000       0.25000000 </v>
   <v>       0.00000000       0.25000000       0.75000000 </v>
   <v>       0.00000000       0.75000000       0.25000000 </v>
   <v>       0.00000000       0.75000000       0.75000000 </v>
   <v>       0.50000000       0.25000000       0.25000000 </v>
   <v>       0.50000000       0.25000000       0.75000000 </v>
   <v>       0.50000000       0.75000000       0.25000000 </v>
   <v>       0.50000000       0.75000000       0.75000000 </v>
   <v>       0.12500000       0.12500000       0.12500000 </v>
   <v>       0.12500000       0.12500000       0.62500000 </v>
   <v>       0.12500000       0.62500000       0.12500000 </v>
   <v>       0.12500000       0.62500000       0.62500000 </v>
   <v>       0.62500000       0.12500000       0.12500000 </v>
   <v>       0.62500000       0.12500000       0.62500000 </v>
   <v>       0.62500000       0.62500000       0.12500000 </v>
   <v>       0.62500000       0.62500000       0.62500000 </v>
   <v>       0.37500000       0.12500000       0.37500000 </v>
   <v>       0.37500000       0.12500000       0.87500000 </v>
   <v>       0.37500000       0.62500000       0.37500000 </v>
   <v>       0.37500000       0.62500000       0.87500000 </v>
   <v>       0.87500000       0.12500000       0.37500000 </v>
   <v>       0.87500000       0.12500000       0.87500000 </v>
   <v>       0.87500000       0.62500000       0.37500000 </v>
   <v>       0.87500000       0.62500000       0.87500000 </v>
   <v>       0.37500000       0.37500000       0.12500000 </v>
   <v>       0.37500000       0.37500000       0.62500000 </v>
   <v>       0.37500000       0.87500000       0.12500000 </v>
   <v>       0.37500000       0.87500000       0.62500000 </v>
   <v>       0.87500000       0.37500000       0.12500000 </v>
   <v>       0.87500000       0.37500000       0.62500000 </v>
   <v>       0.87500000       0.87500000       0.12500000 </v>
   <v>       0.87500000       0.87500000       0.62500000 </v>
   <v>       0.12500000       0.37500000       0.37500000 </v>
   <v>       0.12500000       0.37500000       0.87500000 </v>
   <v>       0.12500000       0.87500000       0.37500000 </v>
   <v>       0.12500000       0.87500000       0.87500000 </v>
   <v>       0.62500000       0.37500000       0.37500000 </v>
   <v>       0.62500000       0.37500000       0.87500000 </v>
   <v>       0.62500000       0.87500000       0.37500000 </v>
   <v>       0.62500000       0.87500000       0.87500000 </v>
  </varray>
 </structure>
 <calculation>
  <scstep>
   <time name="dav">   88.62   89.75</time>
   <time name="total">   88.75   89.88</time>
   <energy>
    <i name="alphaZ">    570.74668334 </i>
    <i name="ewald">  -7188.90738265 </i>
    <i name="hartreedc">   -602.98017921 </i>
    <i name="XCdc">   -996.38147384 </i>
    <i name="pawpsdc">   6692.16565901 </i>
    <i name="pawaedc">  -5247.93935635 </i>
    <i name="eentropy">      0.00000000 </i>
    <i name="bandstr">    379.40809408 </i>
    <i name="atom">   7329.73306348 </i>
    <i name="e_fr_energy">    935.84510786 </i>
    <i name="e_wo_entrp">    935.84510786 </i>
    <i name="e_0_energy">    935.84510786 </i>
   </energy>
  </scstep>
  <scstep>
   <time name="dav">  101.76  103.07</time>
   <time name="total">  101.77  103.07</time>
   <energy>
    <i name="e_fr_energy">   -167.17123519 </i>
    <i name="e_wo_entrp">   -167.17123519 </i>
    <i name="e_0_energy">   -167.17123519 </i>
   </energy>
  </scstep>
  <scstep>
   <time name="dav">  104.14  105.48</time>
   <time name="total">  104.14  105.48</time>
   <energy>
    <i name="e_fr_energy">   -267.63389536 </i>
    <i name="e_wo_entrp">   -267.63389536 </i>
    <i name="e_0_energy">   -267.63389536 </i>
   </energy>
  </scstep>
  <scstep>
   <time name="dav">  101.69  103.10</time>
   <time name="total">  101.69  103.11</time>
   <energy>
    <i name="e_fr_energy">   -270.15720640 </i>
    <i name="e_wo_entrp">   -270.15720640 </i>
    <i name="e_0_energy">   -270.15720640 </i>
   </energy>
  </scstep>
  <scstep>
   <time name="dav">  102.89  104.38</time>
   <time name="total">  103.68  105.18</time>
   <energy>
    <i name="e_fr_energy">   -270.22937345 </i>
    <i name="e_wo_entrp">   -270.22937345 </i>
    <i name="e_0_energy">   -270.22937345 </i>
   </energy>
  </scstep>
  <scstep>
   <time name="dav">   98.33   99.76</time>
   <time name="total">   99.25  100.69</time>
   <energy>
    <i name="e_fr_energy">   -266.04127556 </i>
    <i name="e_wo_entrp">   -266.04127556 </i>
    <i name="e_0_energy">   -266.04127556 </i>
   </energy>
  </scstep>
  <scstep>
   <time name="dav">  101.62  102.92</time>
   <time name="total">  102.53  103.85</time>
   <energy>
    <i name="e_fr_energy">   -265.21288972 </i>
    <i name="e_wo_entrp">   -265.21288972 </i>
    <i name="e_0_energy">   -265.21288972 </i>
   </energy>
  </scstep>
  <scstep>
   <time name="dav">   99.12  100.42</time>
   <time name="total">  100.03  101.34</time>
   <energy>
    <i name="e_fr_energy">   -265.17153597 </i>
    <i name="e_wo_entrp">   -265.17153597 </i>
    <i name="e_0_energy">   -265.17153597 </i>
   </energy>
  </scstep>
  <scstep>
   <time name="dav">   96.98   98.26</time>
   <time name="total">   97.89   99.18</time>
   <energy>
    <i name="e_fr_energy">   -265.18329691 </i>
    <i name="e_wo_entrp">   -265.18329691 </i>
    <i name="e_0_energy">   -265.18329691 </i>
   </energy>
  </scstep>
  <scstep>
   <time name="dav">  104.46  105.78</time>
   <time name="total">  105.36  106.69</time>
   <energy>
    <i name="e_fr_energy">   -265.18436315 </i>
    <i name="e_wo_entrp">   -265.18436315 </i>
    <i name="e_0_energy">   -265.18436315 </i>
   </energy>
  </scstep>
  <scstep>
   <time name="dav">   92.40   93.57</time>
   <time name="total">   93.31   94.49</time>
   <energy>
    <i name="e_fr_energy">   -265.18567432 </i>
    <i name="e_wo_entrp">   -265.18567432 </i>
    <i name="e_0_energy">   -265.18567432 </i>
   </energy>
  </scstep>
  <scstep>
   <time name="dav">  102.25  103.54</time>
   <time name="total">  103.16  104.47</time>
   <energy>
    <i name="e_fr_energy">   -265.18568152 </i>
    <i name="e_wo_entrp">   -265.18568152 </i>
    <i name="e_0_energy">   -265.18568152 </i>
   </energy>
  </scstep>
  <scstep>
   <time name="dav">   96.31   97.53</time>
   <time name="total">   97.21   98.44</time>
   <energy>
    <i name="e_fr_energy">   -265.18569046 </i>
    <i name="e_wo_entrp">   -265.18569046 </i>
    <i name="e_0_energy">   -265.18569046 </i>
   </energy>
  </scstep>
  <scstep>
   <time name="dav">   87.31   88.41</time>
   <time name="total">   87.44   88.54</time>
   <energy>
    <i name="alphaZ">    570.74668334 </i>
    <i name="ewald">  -7188.90738265 </i>
    <i name="hartreedc">   -711.38622622 </i>
    <i name="XCdc">   -974.46193374 </i>
    <i name="pawpsdc">  14648.42341153 </i>
    <i name="pawaedc"> -13215.87521255 </i>
    <i name="eentropy">      0.00000000 </i>
    <i name="bandstr">   -723.45809306 </i>
    <i name="atom">   7329.73306348 </i>
    <i name="e_fr_energy">   -265.18568988 </i>
    <i name="e_wo_entrp">   -265.18568988 </i>
    <i name="e_0_energy">   -265.18568988 </i>
   </energy>
  </scstep>
  <structure>
   <crystal>
    <varray name="basis" >
     <v>      11.58443383       0.00000000       0.00000000 </v>
     <v>       0.00000000      11.50893329       0.00000000 </v>
     <v>       0.00000000       0.00000000      11.50893329 </v>
    </varray>
    <i name="volume">   1534.42250334 </i>
    <varray name="rec_basis" >
     <v>       0.08632273       0.00000000       0.00000000 </v>
     <v>       0.00000000       0.08688903       0.00000000 </v>
     <v>       0.00000000       0.00000000       0.08688903 </v>
    </varray>
   </crystal>
   <varray name="positions" >
    <v>       0.00000000       0.00000000       0.00000000 </v>
    <v>       0.00000000       0.00000000       0.50000000 </v>
    <v>       0.00000000       0.50000000       0.00000000 </v>
    <v>       0.00000000       0.50000000       0.50000000 </v>
    <v>       0.50000000       0.00000000       0.00000000 </v>
    <v>       0.50000000       0.00000000       0.50000000 </v>
    <v>       0.50000000       0.50000000       0.00000000 </v>
    <v>       0.50000000       0.50000000       0.50000000 </v>
    <v>       0.25000000       0.25000000       0.00000000 </v>
    <v>       0.25000000       0.25000000       0.50000000 </v>
    <v>       0.25000000       0.75000000       0.00000000 </v>
    <v>       0.25000000       0.75000000       0.50000000 </v>
    <v>       0.75000000       0.25000000       0.00000000 </v>
    <v>       0.75000000       0.25000000       0.50000000 </v>
    <v>       0.75000000       0.75000000       0.00000000 </v>
    <v>       0.75000000       0.75000000       0.50000000 </v>
    <v>       0.25000000       0.00000000       0.25000000 </v>
    <v>       0.25000000       0.00000000       0.75000000 </v>
    <v>       0.25000000       0.50000000       0.25000000 </v>
    <v>       0.25000000       0.50000000       0.75000000 </v>
    <v>       0.75000000       0.00000000       0.25000000 </v>
    <v>       0.75000000       0.00000000       0.75000000 </v>
    <v>       0.75000000       0.50000000       0.25000000 </v>
    <v>       0.75000000       0.50000000       0.75000000 </v>
    <v>       0.00000000       0.25000000       0.25000000 </v>
    <v>       0.00000000       0.25000000       0.75000000 </v>
    <v>       0.00000000       0.75000000       0.25000000 </v>
    <v>       0.00000000       0.75000000       0.75000000 </v>
    <v>       0.50000000       0.25000000       0.25000000 </v>
    <v>       0.50000000       0.25000000       0.75000000 </v>
    <v>       0.50000000       0.75000000       0.25000000 </v>
    <v>       0.50000000       0.75000000       0.75000000 </v>
    <v>       0.12500000       0.12500000       0.12500000 </v>
    <v>       0.12500000       0.12500000       0.62500000 </v>
    <v>       0.12500000       0.62500000       0.12500000 </v>
    <v>       0.12500000       0.62500000       0.62500000 </v>
    <v>       0.62500000       0.12500000       0.12500000 </v>
    <v>       0.62500000       0.12500000       0.62500000 </v>
    <v>       0.62500000       0.62500000       0.12500000 </v>
    <v>       0.62500000       0.62500000       0.62500000 </v>
    <v>       0.37500000       0.12500000       0.37500000 </v>
    <v>       0.37500000       0.12500000       0.87500000 </v>
    <v>       0.37500000       0.62500000       0.37500000 </v>
    <v>       0.37500000       0.62500000       0.87500000 </v>
    <v>       0.87500000       0.12500000       0.37500000 </v>
    <v>       0.87500000       0.12500000       0.87500000 </v>
    <v>       0.87500000       0.62500000       0.37500000 </v>
    <v>       0.87500000       0.62500000       0.87500000 </v>
    <v>       0.37500000       0.37500000       0.12500000 </v>
    <v>       0.37500000       0.37500000       0.62500000 </v>
    <v>       0.37500000       0.87500000       0.12500000 </v>
    <v>       0.37500000       0.87500000       0.62500000 </v>
    <v>       0.87500000       0.37500000       0.12500000 </v>
    <v>       0.87500000       0.37500000       0.62500000 </v>
    <v>       0.87500000       0.87500000       0.12500000 </v>
    <v>       0.87500000       0.87500000       0.62500000 </v>
    <v>       0.12500000       0.37500000       0.37500000 </v>
    <v>       0.12500000       0.37500000       0.87500000 </v>
    <v>       0.12500000       0.87500000       0.37500000 </v>
    <v>       0.12500000       0.87500000       0.87500000 </v>
    <v>       0.62500000       0.37500000       0.37500000 </v>
    <v>       0.62500000       0.37500000       0.87500000 </v>
    <v>       0.62500000       0.87500000       0.37500000 </v>
    <v>       0.62500000       0.87500000       0.87500000 </v>
   </varray>
  </structure>
  <varray name="forces" >
   <v>       0.00000000       0.00000000      -0.00000000 </v>
   <v>       0.00000000       0.00000000       0.00000000 </v>
   <v>      -0.00000000      -0.00000000      -0.00000000 </v>
   <v>      -0.00000000      -0.00000000       0.00000000 </v>
   <v>      -0.00000000      -0.00000000       0.00000000 </v>
   <v>      -0.00000000       0.00000000       0.00000000 </v>
   <v>       0.00000000      -0.00000000       0.00000000 </v>
   <v>       0.00000000       0.00000000       0.00000000 </v>
   <v>      -0.00000000      -0.00000000       0.00000000 </v>
   <v>      -0.00000000       0.00000000      -0.00000000 </v>
   <v>      -0.00000000       0.00000000      -0.00000000 </v>
   <v>      -0.00000000       0.00000000      -0.00000000 </v>
   <v>       0.00000000       0.00000000      -0.00000000 </v>
   <v>       0.00000000       0.00000000      -0.00000000 </v>
   <v>       0.00000000      -0.00000000      -0.00000000 </v>
   <v>       0.00000000      -0.00000000      -0.00000000 </v>
   <v>      -0.00000000      -0.00000000       0.00000000 </v>
   <v>      -0.00000000       0.00000000       0.00000000 </v>
   <v>      -0.00000000      -0.00000000       0.00000000 </v>
   <v>      -0.00000000       0.00000000       0.00000000 </v>
   <v>      -0.00000000       0.00000000       0.00000000 </v>
   <v>      -0.00000000      -0.00000000       0.00000000 </v>
   <v>       0.00000000      -0.00000000       0.00000000 </v>
   <v>       0.00000000      -0.00000000      -0.00000000 </v>
   <v>       0.00000000      -0.00000000       0.00000000 </v>
   <v>       0.00000000      -0.00000000      -0.00000000 </v>
   <v>       0.00000000       0.00000000      -0.00000000 </v>
   <v>       0.00000000       0.00000000      -0.00000000 </v>
   <v>      -0.00000000      -0.00000000       0.00000000 </v>
   <v>      -0.00000000      -0.00000000      -0.00000000 </v>
   <v>      -0.00000000       0.00000000      -0.00000000 </v>
   <v>       0.00000000       0.00000000      -0.00000000 </v>
   <v>      -0.00000000       0.00000000       0.00000000 </v>
   <v>      -0.00000000       0.00000000       0.00000000 </v>
   <v>      -0.00000000      -0.00000000       0.00000000 </v>
   <v>       0.00000000       0.00000000       0.00000000 </v>
   <v>      -0.00000000      -0.00000000       0.00000000 </v>
   <v>       0.00000000      -0.00000000       0.00000000 </v>
   <v>      -0.00000000       0.00000000       0.00000000 </v>
   <v>       0.00000000       0.00000000      -0.00000000 </v>
   <v>      -0.00000000       0.00000000       0.00000000 </v>
   <v>      -0.00000000       0.00000000      -0.00000000 </v>
   <v>      -0.00000000      -0.00000000       0.00000000 </v>
   <v>      -0.00000000       0.00000000       0.00000000 </v>
   <v>      -0.00000000      -0.00000000       0.00000000 </v>
   <v>      -0.00000000       0.00000000       0.00000000 </v>
   <v>       0.00000000      -0.00000000       0.00000000 </v>
   <v>       0.00000000       0.00000000       0.00000000 </v>
   <v>      -0.00000000       0.00000000       0.00000000 </v>
   <v>      -0.00000000      -0.00000000       0.00000000 </v>
   <v>      -0.00000000      -0.00000000       0.00000000 </v>
   <v>      -0.00000000      -0.00000000       0.00000000 </v>
   <v>      -0.00000000       0.00000000      -0.00000000 </v>
   <v>       0.00000000      -0.00000000      -0.00000000 </v>
   <v>      -0.00000000       0.00000000      -0.00000000 </v>
   <v>      -0.00000000      -0.00000000       0.00000000 </v>
   <v>       0.00000000       0.00000000       0.00000000 </v>
   <v>      -0.00000000      -0.00000000       0.00000000 </v>
   <v>       0.00000000       0.00000000       0.00000000 </v>
   <v>      -0.00000000      -0.00000000       0.00000000 </v>
   <v>      -0.00000000       0.00000000       0.00000000 </v>
   <v>       0.00000000      -0.00000000       0.00000000 </v>
   <v>      -0.00000000      -0.00000000      -0.00000000 </v>
   <v>      -0.00000000       0.00000000      -0.00000000 </v>
  </varray>
  <varray name="stress" >
   <v>      -3.91279251       0.00000000       0.00000000 </v>
   <v>       0.00000000      -0.21416235       0.00000000 </v>
   <v>       0.00000000       0.00000000      -0.21416235 </v>
  </varray>
  <scstep>
   <time name="total">  153.24  155.10</time>
   <energy>
    <i name="e_fr_energy">  -1273.95378982 </i>
    <i name="e_wo_entrp">  -1273.95378982 </i>
    <i name="e_0_energy">  -1273.95378982 </i>
   </energy>
  </scstep>
  <scstep>
   <time name="total">  109.81  111.09</time>
   <energy>
    <i name="e_fr_energy">  -1099.45189047 </i>
    <i name="e_wo_entrp">  -1099.45189047 </i>
    <i name="e_0_energy">  -1099.45189047 </i>
   </energy>
  </scstep>
  <scstep>
   <time name="total">  111.42  112.73</time>
   <energy>
    <i name="e_fr_energy">  -1101.74558897 </i>
    <i name="e_wo_entrp">  -1101.74558897 </i>
    <i name="e_0_energy">  -1101.74558897 </i>
   </energy>
  </scstep>
  <scstep>
   <time name="total">   69.70   70.56</time>
   <energy>
    <i name="e_fr_energy">  -1101.86826173 </i>
    <i name="e_wo_entrp">  -1101.86826173 </i>
    <i name="e_0_energy">  -1101.86826173 </i>
   </energy>
  </scstep>
  <scstep>
   <time name="total">   71.02   71.87</time>
   <energy>
    <i name="e_fr_energy">  -1101.86745988 </i>
    <i name="e_wo_entrp">  -1101.86745988 </i>
    <i name="e_0_energy">  -1101.86745988 </i>
   </energy>
  </scstep>
  <scstep>
   <time name="total">   75.78   76.76</time>
   <energy>
    <i name="e_fr_energy">  -1101.86657562 </i>
    <i name="e_wo_entrp">  -1101.86657562 </i>
    <i name="e_0_energy">  -1101.86657562 </i>
   </energy>
  </scstep>
  <scstep>
   <time name="total">   81.13   82.10</time>
   <energy>
    <i name="e_fr_energy">  -1101.86629237 </i>
    <i name="e_wo_entrp">  -1101.86629237 </i>
    <i name="e_0_energy">  -1101.86629237 </i>
   </energy>
  </scstep>
  <scstep>
   <time name="total">   85.83   87.04</time>
   <energy>
    <i name="e_fr_energy">  -1101.86620660 </i>
    <i name="e_wo_entrp">  -1101.86620660 </i>
    <i name="e_0_energy">  -1101.86620660 </i>
   </energy>
  </scstep>
  <scstep>
   <time name="total">   87.52   88.64</time>
   <energy>
    <i name="e_fr_energy">  -1101.86618972 </i>
    <i name="e_wo_entrp">  -1101.86618972 </i>
    <i name="e_0_energy">  -1101.86618972 </i>
   </energy>
  </scstep>
  <scstep>
   <time name="total">   89.75   90.82</time>
   <energy>
    <i name="e_fr_energy">  -1101.86619722 </i>
    <i name="e_wo_entrp">  -1101.86619722 </i>
    <i name="e_0_energy">  -1101.86619722 </i>
   </energy>
  </scstep>
  <scstep>
   <time name="total">   92.06   93.20</time>
   <energy>
    <i name="e_fr_energy">  -1101.86620331 </i>
    <i name="e_wo_entrp">  -1101.86620331 </i>
    <i name="e_0_energy">  -1101.86620331 </i>
   </energy>
  </scstep>
  <scstep>
   <time name="total">  155.19  157.04</time>
   <energy>
    <i name="e_fr_energy">  -1264.18093640 </i>
    <i name="e_wo_entrp">  -1264.18093640 </i>
    <i name="e_0_energy">  -1264.18093640 </i>
   </energy>
  </scstep>
  <scstep>
   <time name="total">  111.61  112.97</time>
   <energy>
    <i name="e_fr_energy">  -1098.85697439 </i>
    <i name="e_wo_entrp">  -1098.85697439 </i>
    <i name="e_0_energy">  -1098.85697439 </i>
   </energy>
  </scstep>
  <scstep>
   <time name="total">  111.85  113.33</time>
   <energy>
    <i name="e_fr_energy">  -1100.71211588 </i>
    <i name="e_wo_entrp">  -1100.71211588 </i>
    <i name="e_0_energy">  -1100.71211588 </i>
   </energy>
  </scstep>
  <scstep>
   <time name="total">   73.14   74.03</time>
   <energy>
    <i name="e_fr_energy">  -1100.81829380 </i>
    <i name="e_wo_entrp">  -1100.81829380 </i>
    <i name="e_0_energy">  -1100.81829380 </i>
   </energy>
  </scstep>
  <scstep>
   <time name="total">   71.33   72.26</time>
   <energy>
    <i name="e_fr_energy">  -1100.81414838 </i>
    <i name="e_wo_entrp">  -1100.81414838 </i>
    <i name="e_0_energy">  -1100.81414838 </i>
   </energy>
  </scstep>
  <scstep>
   <time name="total">   76.83   77.92</time>
   <energy>
    <i name="e_fr_energy">  -1100.81235577 </i>
    <i name="e_wo_entrp">  -1100.81235577 </i>
    <i name="e_0_energy">  -1100.81235577 </i>
   </energy>
  </scstep>
  <scstep>
   <time name="total">   81.49   82.43</time>
   <energy>
    <i name="e_fr_energy">  -1100.81168661 </i>
    <i name="e_wo_entrp">  -1100.81168661 </i>
    <i name="e_0_energy">  -1100.81168661 </i>
   </energy>
  </scstep>
  <scstep>
   <time name="total">   87.37   88.29</time>
   <energy>
    <i name="e_fr_energy">  -1100.81158135 </i>
    <i name="e_wo_entrp">  -1100.81158135 </i>
    <i name="e_0_energy">  -1100.81158135 </i>
   </energy>
  </scstep>
  <scstep>
   <time name="total">   88.27   89.43</time>
   <energy>
    <i name="e_fr_energy">  -1100.81153026 </i>
    <i name="e_wo_entrp">  -1100.81153026 </i>
    <i name="e_0_energy">  -1100.81153026 </i>
   </energy>
  </scstep>
  <scstep>
   <time name="total">   91.33   92.40</time>
   <energy>
    <i name="e_fr_energy">  -1100.81153860 </i>
    <i name="e_wo_entrp">  -1100.81153860 </i>
    <i name="e_0_energy">  -1100.81153860 </i>
   </energy>
  </scstep>
  <scstep>
   <time name="total">   93.44   94.46</time>
   <energy>
    <i name="e_fr_energy">  -1100.81153037 </i>
    <i name="e_wo_entrp">  -1100.81153037 </i>
    <i name="e_0_energy">  -1100.81153037 </i>
   </energy>
  </scstep>
  <scstep>
   <time name="total">  157.87  159.56</time>
   <energy>
    <i name="e_fr_energy">  -1381.70321564 </i>
    <i name="e_wo_entrp">  -1381.70321564 </i>
    <i name="e_0_energy">  -1381.70321564 </i>
   </energy>
  </scstep>
  <scstep>
   <time name="total">  110.91  112.13</time>
   <energy>
    <i name="e_fr_energy">  -1104.04647278 </i>
    <i name="e_wo_entrp">  -1104.04647278 </i>
    <i name="e_0_energy">  -1104.04647278 </i>
   </energy>
  </scstep>
  <scstep>
   <time name="total">  112.23  113.58</time>
   <energy>
    <i name="e_fr_energy">  -1106.20113392 </i>
    <i name="e_wo_entrp">  -1106.20113392 </i>
    <i name="e_0_energy">  -1106.20113392 </i>
   </energy>
  </scstep>
  <scstep>
   <time name="total">   71.29   72.16</time>
   <energy>
    <i name="e_fr_energy">  -1106.32549675 </i>
    <i name="e_wo_entrp">  -1106.32549675 </i>
    <i name="e_0_energy">  -1106.32549675 </i>
   </energy>
  </scstep>
  <scstep>
   <time name="total">   71.40   72.22</time>
   <energy>
    <i name="e_fr_energy">  -1106.31932774 </i>
    <i name="e_wo_entrp">  -1106.31932774 </i>
    <i name="e_0_energy">  -1106.31932774 </i>
   </energy>
  </scstep>
  <scstep>
   <time name="total">   75.68   76.56</time>
   <energy>
    <i name="e_fr_energy">  -1106.31724259 </i>
    <i name="e_wo_entrp">  -1106.31724259 </i>
    <i name="e_0_energy">  -1106.31724259 </i>
   </energy>
  </scstep>
  <scstep>
   <time name="total">   80.37   81.41</time>
   <energy>
    <i name="e_fr_energy">  -1106.31647936 </i>
    <i name="e_wo_entrp">  -1106.31647936 </i>
    <i name="e_0_energy">  -1106.31647936 </i>
   </energy>
  </scstep>
  <scstep>
   <time name="total">   86.18   87.23</time>
   <energy>
    <i name="e_fr_energy">  -1106.31634830 </i>
    <i name="e_wo_entrp">  -1106.31634830 </i>
    <i name="e_0_energy">  -1106.31634830 </i>
   </energy>
  </scstep>
  <scstep>
   <time name="total">   87.30   88.34</time>
   <energy>
    <i name="e_fr_energy">  -1106.31632346 </i>
    <i name="e_wo_entrp">  -1106.31632346 </i>
    <i name="e_0_energy">  -1106.31632346 </i>
   </energy>
  </scstep>
  <scstep>
   <time name="total">   90.47   91.53</time>
   <energy>
    <i name="e_fr_energy">  -1106.31632164 </i>
    <i name="e_wo_entrp">  -1106.31632164 </i>
    <i name="e_0_energy">  -1106.31632164 </i>
   </energy>
  </scstep>
  <scstep>
   <time name="total">   91.67   92.89</time>
   <energy>
    <i name="e_fr_energy">  -1106.31632588 </i>
    <i name="e_wo_entrp">  -1106.31632588 </i>
    <i name="e_0_energy">  -1106.31632588 </i>
   </energy>
  </scstep>
  <kpoints>
   <generation param="Gamma">
    <v type="int" name="divisions">       5        5        5 </v>
    <v name="usershift">      0.00000000       0.00000000       0.00000000 </v>
    <v name="genvec1">      0.20000000       0.00000000       0.00000000 </v>
    <v name="genvec2">      0.00000000       0.20000000       0.00000000 </v>
    <v name="genvec3">      0.00000000       0.00000000       0.20000000 </v>
    <v name="shift">      0.00000000       0.00000000       0.00000000 </v>
   </generation>
   <varray name="kpointlist" >
    <v>       0.00000000       0.00000000       0.00000000 </v>
    <v>       0.20000000       0.00000000       0.00000000 </v>
    <v>       0.40000000       0.00000000       0.00000000 </v>
    <v>       0.00000000       0.20000000       0.00000000 </v>
    <v>       0.20000000       0.20000000       0.00000000 </v>
    <v>       0.40000000       0.20000000       0.00000000 </v>
    <v>       0.00000000       0.40000000       0.00000000 </v>
    <v>       0.20000000       0.40000000       0.00000000 </v>
    <v>       0.40000000       0.40000000       0.00000000 </v>
    <v>       0.00000000       0.20000000       0.20000000 </v>
    <v>       0.00000000      -0.20000000       0.20000000 </v>
    <v>       0.20000000       0.20000000       0.20000000 </v>
    <v>       0.20000000      -0.20000000       0.20000000 </v>
    <v>       0.40000000       0.20000000       0.20000000 </v>
    <v>       0.40000000      -0.20000000       0.20000000 </v>
    <v>       0.00000000       0.40000000       0.20000000 </v>
    <v>       0.00000000      -0.20000000       0.40000000 </v>
    <v>       0.20000000       0.40000000       0.20000000 </v>
    <v>       0.20000000      -0.20000000       0.40000000 </v>
    <v>       0.40000000       0.40000000       0.20000000 </v>
    <v>       0.40000000      -0.20000000       0.40000000 </v>
    <v>       0.00000000       0.40000000       0.40000000 </v>
    <v>       0.00000000      -0.40000000       0.40000000 </v>
    <v>       0.20000000       0.40000000       0.40000000 </v>
    <v>       0.20000000      -0.40000000       0.40000000 </v>
    <v>       0.40000000       0.40000000       0.40000000 </v>
    <v>       0.40000000      -0.40000000       0.40000000 </v>
   </varray>
   <varray name="weights" >
    <v>       0.00800000 </v>
    <v>       0.01600000 </v>
    <v>       0.01600000 </v>
    <v>       0.03200000 </v>
    <v>       0.06400000 </v>
    <v>       0.06400000 </v>
    <v>       0.03200000 </v>
    <v>       0.06400000 </v>
    <v>       0.06400000 </v>
    <v>       0.01600000 </v>
    <v>       0.01600000 </v>
    <v>       0.03200000 </v>
    <v>       0.03200000 </v>
    <v>       0.03200000 </v>
    <v>       0.03200000 </v>
    <v>       0.03200000 </v>
    <v>       0.03200000 </v>
    <v>       0.06400000 </v>
    <v>       0.06400000 </v>
    <v>       0.06400000 </v>
    <v>       0.06400000 </v>
    <v>       0.01600000 </v>
    <v>       0.01600000 </v>
    <v>       0.03200000 </v>
    <v>       0.03200000 </v>
    <v>       0.03200000 </v>
    <v>       0.03200000 </v>
   </varray>
   <varray name="tetrahedronlist"  type="int" >
    <v type="int" >        4       12       14       18       20 </v>
    <v type="int" >        4       12       18       18       20 </v>
    <v type="int" >        4       18       18       20       24 </v>
    <v type="int" >        4       14       18       20       20 </v>
    <v type="int" >        4       18       20       20       26 </v>
    <v type="int" >        4       18       20       24       26 </v>
    <v type="int" >        2       14       14       20       20 </v>
    <v type="int" >        4       14       20       20       20 </v>
    <v type="int" >        4       20       20       20       26 </v>
    <v type="int" >        2       20       20       26       26 </v>
    <v type="int" >        4       10       12       16       18 </v>
    <v type="int" >        4       12       16       18       18 </v>
    <v type="int" >        4       16       18       18       24 </v>
    <v type="int" >        4       10       16       16       18 </v>
    <v type="int" >        4       16       16       18       22 </v>
    <v type="int" >        4       16       18       22       24 </v>
    <v type="int" >        4       18       20       21       24 </v>
    <v type="int" >        4       18       19       21       24 </v>
    <v type="int" >        4       19       21       24       25 </v>
    <v type="int" >        4       20       21       24       26 </v>
    <v type="int" >        4       21       24       26       27 </v>
    <v type="int" >        4       21       24       25       27 </v>
    <v type="int" >        4       20       20       21       26 </v>
    <v type="int" >        4       20       21       21       26 </v>
    <v type="int" >        4       21       21       26       27 </v>
    <v type="int" >        4       20       21       26       26 </v>
    <v type="int" >        4       21       26       26       27 </v>
    <v type="int" >        4       21       26       27       27 </v>
    <v type="int" >        4       18       19       20       26 </v>
    <v type="int" >        4       19       20       21       26 </v>
    <v type="int" >        4       19       21       26       27 </v>
    <v type="int" >        4       18       19       24       26 </v>
    <v type="int" >        4       19       24       25       26 </v>
    <v type="int" >        4       19       25       26       27 </v>
    <v type="int" >        4       16       17       18       24 </v>
    <v type="int" >        4       17       18       19       24 </v>
    <v type="int" >        4       17       19       24       25 </v>
    <v type="int" >        4       16       17       22       24 </v>
    <v type="int" >        4       17       22       23       24 </v>
    <v type="int" >        4       17       23       24       25 </v>
    <v type="int" >        4       16       18       19       22 </v>
    <v type="int" >        4       16       17       19       22 </v>
    <v type="int" >        4       17       19       22       23 </v>
    <v type="int" >        4       18       19       22       24 </v>
    <v type="int" >        4       19       22       24       25 </v>
    <v type="int" >        4       19       22       23       25 </v>
    <v type="int" >        4       15       19       21       25 </v>
    <v type="int" >        4       13       15       19       25 </v>
    <v type="int" >        4       15       21       25       27 </v>
    <v type="int" >        4       15       21       21       27 </v>
    <v type="int" >        4       15       15       21       27 </v>
    <v type="int" >        4       15       21       27       27 </v>
    <v type="int" >        4       13       19       21       27 </v>
    <v type="int" >        4       13       15       21       27 </v>
    <v type="int" >        4       13       19       25       27 </v>
    <v type="int" >        4       11       17       19       25 </v>
    <v type="int" >        4       11       13       19       25 </v>
    <v type="int" >        4       11       17       23       25 </v>
    <v type="int" >        4       13       17       19       23 </v>
    <v type="int" >        4       11       13       17       23 </v>
    <v type="int" >        4       13       19       23       25 </v>
    <v type="int" >        4        6       13       15       19 </v>
    <v type="int" >        4        5        6       13       19 </v>
    <v type="int" >        4        5        6        8       19 </v>
    <v type="int" >        4        6       15       19       21 </v>
    <v type="int" >        4        6        9       19       21 </v>
    <v type="int" >        4        6        8        9       19 </v>
    <v type="int" >        4        6       15       15       21 </v>
    <v type="int" >        4        6        6       15       21 </v>
    <v type="int" >        4        6        6        9       21 </v>
    <v type="int" >        4        6       15       21       21 </v>
    <v type="int" >        4        6        9       21       21 </v>
    <v type="int" >        4        6        9        9       21 </v>
    <v type="int" >        4        5       13       15       21 </v>
    <v type="int" >        4        5        6       15       21 </v>
    <v type="int" >        4        5        6        9       21 </v>
    <v type="int" >        4        5       13       19       21 </v>
    <v type="int" >        4        5        8       19       21 </v>
    <v type="int" >        4        5        8        9       21 </v>
    <v type="int" >        4        4       11       13       19 </v>
    <v type="int" >        4        4        5       13       19 </v>
    <v type="int" >        4        4        5        8       19 </v>
    <v type="int" >        4        4       11       17       19 </v>
    <v type="int" >        4        4        7       17       19 </v>
    <v type="int" >        4        4        7        8       19 </v>
    <v type="int" >        4        5       11       13       17 </v>
    <v type="int" >        4        4        5       11       17 </v>
    <v type="int" >        4        4        5        7       17 </v>
    <v type="int" >        4        5       13       17       19 </v>
    <v type="int" >        4        5        8       17       19 </v>
    <v type="int" >        4        5        7        8       17 </v>
    <v type="int" >        4        5        6        8       14 </v>
    <v type="int" >        4        5        8       12       14 </v>
    <v type="int" >        4        8       12       14       18 </v>
    <v type="int" >        4        6        8        9       14 </v>
    <v type="int" >        4        8        9       14       20 </v>
    <v type="int" >        4        8       14       18       20 </v>
    <v type="int" >        4        6        6        9       14 </v>
    <v type="int" >        4        6        9       14       14 </v>
    <v type="int" >        4        9       14       14       20 </v>
    <v type="int" >        4        6        9        9       14 </v>
    <v type="int" >        4        9        9       14       20 </v>
    <v type="int" >        4        9       14       20       20 </v>
    <v type="int" >        4        5        6        9       12 </v>
    <v type="int" >        4        6        9       12       14 </v>
    <v type="int" >        4        9       12       14       20 </v>
    <v type="int" >        4        5        8        9       12 </v>
    <v type="int" >        4        8        9       12       18 </v>
    <v type="int" >        4        9       12       18       20 </v>
    <v type="int" >        4        4        5        8       10 </v>
    <v type="int" >        4        5        8       10       12 </v>
    <v type="int" >        4        8       10       12       18 </v>
    <v type="int" >        4        4        7        8       10 </v>
    <v type="int" >        4        7        8       10       16 </v>
    <v type="int" >        4        8       10       16       18 </v>
    <v type="int" >        4        4        5        7       12 </v>
    <v type="int" >        4        4        7       10       12 </v>
    <v type="int" >        4        7       10       12       16 </v>
    <v type="int" >        4        5        7        8       12 </v>
    <v type="int" >        4        7        8       12       18 </v>
    <v type="int" >        4        7       12       16       18 </v>
    <v type="int" >        4       24       25       26       27 </v>
    <v type="int" >        4       24       25       25       27 </v>
    <v type="int" >        4       25       26       27       27 </v>
    <v type="int" >        2       26       26       27       27 </v>
    <v type="int" >        4       26       27       27       27 </v>
    <v type="int" >        4       22       23       24       25 </v>
    <v type="int" >        4       23       24       25       25 </v>
    <v type="int" >        4       22       23       23       25 </v>
    <v type="int" >        4        9       18       19       21 </v>
    <v type="int" >        4        8        9       18       19 </v>
    <v type="int" >        4        8        8        9       18 </v>
    <v type="int" >        4        9       18       20       21 </v>
    <v type="int" >        4        9        9       18       20 </v>
    <v type="int" >        4        8        9        9       18 </v>
    <v type="int" >        4        9       20       21       21 </v>
    <v type="int" >        4        9        9       20       21 </v>
    <v type="int" >        8        9        9        9       20 </v>
    <v type="int" >        4        9       20       20       21 </v>
    <v type="int" >        4        9        9       20       20 </v>
    <v type="int" >        4        8       19       20       21 </v>
    <v type="int" >        4        8        9       20       21 </v>
    <v type="int" >        4        8        9        9       20 </v>
    <v type="int" >        4        8       18       19       20 </v>
    <v type="int" >        4        8        8       18       20 </v>
    <v type="int" >        4        8        8        9       20 </v>
    <v type="int" >        4        7       17       18       19 </v>
    <v type="int" >        4        7        8       18       19 </v>
    <v type="int" >        4        7        8        8       18 </v>
    <v type="int" >        4        7       16       17       18 </v>
    <v type="int" >        4        7        7       16       18 </v>
    <v type="int" >        4        7        7        8       18 </v>
    <v type="int" >        4        8       16       17       19 </v>
    <v type="int" >        4        7        8       16       17 </v>
    <v type="int" >        4        7        7        8       16 </v>
    <v type="int" >        4        8       16       18       19 </v>
    <v type="int" >        4        8        8       16       18 </v>
    <v type="int" >        4        7        8        8       16 </v>
    <v type="int" >        4        5        6       12       14 </v>
    <v type="int" >        4        5        5        6       12 </v>
    <v type="int" >        4        2        5        5        6 </v>
    <v type="int" >        4        5        6        6       14 </v>
    <v type="int" >        4        3        5        6        6 </v>
    <v type="int" >        4        2        3        5        6 </v>
    <v type="int" >        2        6        6       14       14 </v>
    <v type="int" >        4        6        6        6       14 </v>
    <v type="int" >        4        3        6        6        6 </v>
    <v type="int" >        2        3        3        6        6 </v>
    <v type="int" >        4        4        5       10       12 </v>
    <v type="int" >        4        4        5        5       12 </v>
    <v type="int" >        4        2        4        5        5 </v>
    <v type="int" >        4        4        4        5       10 </v>
    <v type="int" >        4        1        4        4        5 </v>
    <v type="int" >        4        1        2        4        5 </v>
    <v type="int" >        4        2        5        6       15 </v>
    <v type="int" >        4        2        5       13       15 </v>
    <v type="int" >        4        2        3        6       15 </v>
    <v type="int" >        4        3        6        6       15 </v>
    <v type="int" >        4        3        6       15       15 </v>
    <v type="int" >        4        3        3        6       15 </v>
    <v type="int" >        4        3        5        6       13 </v>
    <v type="int" >        4        3        6       13       15 </v>
    <v type="int" >        4        2        3        5       13 </v>
    <v type="int" >        4        2        4        5       11 </v>
    <v type="int" >        4        2        5       11       13 </v>
    <v type="int" >        4        1        2        4       11 </v>
    <v type="int" >        4        1        4        5       13 </v>
    <v type="int" >        4        1        4       11       13 </v>
    <v type="int" >        4        1        2        5       13 </v>
   </varray>
   <i name="volumeweight">      0.00133333 </i>
  </kpoints>
  <scstep>
   <time name="total">  201.69  204.59</time>
   <energy>
    <i name="e_fr_energy">   -114.47072202 </i>
    <i name="e_wo_entrp">   -114.47072202 </i>
    <i name="e_0_energy">   -114.47072202 </i>
   </energy>
  </scstep>
  <scstep>
   <time name="total">  175.91  178.09</time>
   <energy>
    <i name="e_fr_energy">   -309.31680651 </i>
    <i name="e_wo_entrp">   -309.31680651 </i>
    <i name="e_0_energy">   -309.31680651 </i>
   </energy>
  </scstep>
  <scstep>
   <time name="total">  174.25  176.71</time>
   <energy>
    <i name="e_fr_energy">   -306.17354374 </i>
    <i name="e_wo_entrp">   -306.17354374 </i>
    <i name="e_0_energy">   -306.17354374 </i>
   </energy>
  </scstep>
  <scstep>
   <time name="total">  169.41  171.62</time>
   <energy>
    <i name="e_fr_energy">   -297.77816041 </i>
    <i name="e_wo_entrp">   -297.77816041 </i>
    <i name="e_0_energy">   -297.77816041 </i>
   </energy>
  </scstep>
  <scstep>
   <time name="total">  177.81  180.24</time>
   <energy>
    <i name="e_fr_energy">   -297.08294902 </i>
    <i name="e_wo_entrp">   -297.08294902 </i>
    <i name="e_0_energy">   -297.08294902 </i>
   </energy>
  </scstep>
  <scstep>
   <time name="total">  179.55  182.09</time>
   <energy>
    <i name="e_fr_energy">   -297.01389378 </i>
    <i name="e_wo_entrp">   -297.01389378 </i>
    <i name="e_0_energy">   -297.01389378 </i>
   </energy>
  </scstep>
  <scstep>
   <time name="total">  177.52  180.09</time>
   <energy>
    <i name="e_fr_energy">   -296.95657376 </i>
    <i name="e_wo_entrp">   -296.95657376 </i>
    <i name="e_0_energy">   -296.95657376 </i>
   </energy>
  </scstep>
  <scstep>
   <time name="total">  184.86  187.60</time>
   <energy>
    <i name="e_fr_energy">   -296.94291842 </i>
    <i name="e_wo_entrp">   -296.94291842 </i>
    <i name="e_0_energy">   -296.94291842 </i>
   </energy>
  </scstep>
  <scstep>
   <time name="total">  186.45  189.04</time>
   <energy>
    <i name="e_fr_energy">   -296.94862093 </i>
    <i name="e_wo_entrp">   -296.94862093 </i>
    <i name="e_0_energy">   -296.94862093 </i>
   </energy>
  </scstep>
  <scstep>
   <time name="total">  198.32  201.00</time>
   <energy>
    <i name="e_fr_energy">   -296.94826881 </i>
    <i name="e_wo_entrp">   -296.94826881 </i>
    <i name="e_0_energy">   -296.94826881 </i>
   </energy>
  </scstep>
  <scstep>
   <time name="total">  199.27  202.09</time>
   <energy>
    <i name="e_fr_energy">   -296.94808271 </i>
    <i name="e_wo_entrp">   -296.94808271 </i>
    <i name="e_0_energy">   -296.94808271 </i>
   </energy>
  </scstep>
  <scstep>
   <time name="total">  190.32  192.77</time>
   <energy>
    <i name="e_fr_energy">   -296.94810619 </i>
    <i name="e_wo_entrp">   -296.94810619 </i>
    <i name="e_0_energy">   -296.94810619 </i>
   </energy>
  </scstep>
  <scstep>
   <time name="total">  191.03  193.55</time>
   <energy>
    <i name="e_fr_energy">   -296.94809426 </i>
    <i name="e_wo_entrp">   -296.94809426 </i>
    <i name="e_0_energy">   -296.94809426 </i>
   </energy>
  </scstep>
  <kpoints>
[...]
     <r>     7.2979     0.0000     0.0000     0.0000     0.0000     0.0000     0.0000 </r>
     <r>     7.3080     0.0000     0.0000     0.0000     0.0000     0.0000     0.0000 </r>
    </set>
   </array>
  </conductivity>
  <dos>
   <i name="efermi">      2.30827159 </i>
   <total>
    <array>
     <dimension dim="1">gridpoints</dimension>
     <dimension dim="2">spin</dimension>
     <field>energy</field>
     <field>total</field>
     <field>integrated</field>
     <set>
      <set comment="spin 1">
       <r>   -11.0227     0.0000     0.0000 </r>
       <r>   -10.9605     0.0000     0.0000 </r>
       <r>   -10.8983     0.0000     0.0000 </r>
       <r>   -10.8361     0.0000     0.0000 </r>
       <r>   -10.7739     0.0000     0.0000 </r>
       <r>   -10.7116     0.0000     0.0000 </r>
       <r>   -10.6494     0.0000     0.0000 </r>
       <r>   -10.5872     0.0000     0.0000 </r>
       <r>   -10.5250     0.0000     0.0000 </r>
       <r>   -10.4627     0.0000     0.0000 </r>
       <r>   -10.4005     0.0000     0.0000 </r>
       <r>   -10.3383     0.0000     0.0000 </r>
       <r>   -10.2761     0.0000     0.0000 </r>
       <r>   -10.2139     0.0000     0.0000 </r>
       <r>   -10.1516     0.0000     0.0000 </r>
       <r>   -10.0894     0.0000     0.0000 </r>
       <r>   -10.0272     0.0000     0.0000 </r>
       <r>    -9.9650     3.7025     0.0935 </r>
       <r>    -9.9027     5.3320     0.3614 </r>
       <r>    -9.8405    10.2850     0.8972 </r>
       <r>    -9.7783     7.3446     1.3916 </r>
       <r>    -9.7161     6.6276     1.8211 </r>
       <r>    -9.6539    11.3874     2.3907 </r>
       <r>    -9.5916    16.8620     3.1170 </r>
       <r>    -9.5294    11.5521     3.9506 </r>
       <r>    -9.4672    12.2491     4.7126 </r>
       <r>    -9.4050    19.5089     5.7476 </r>
       <r>    -9.3428     9.9279     6.6668 </r>
       <r>    -9.2805    15.7906     7.5073 </r>
       <r>    -9.2183    15.0748     8.4266 </r>
       <r>    -9.1561    28.3688     9.9000 </r>
       <r>    -9.0939    30.5289    11.7042 </r>
       <r>    -9.0316     9.4494    12.7964 </r>
       <r>    -8.9694    45.0422    13.8107 </r>
       <r>    -8.9072    22.2714    15.4232 </r>
       <r>    -8.8450    18.9321    16.5644 </r>
       <r>    -8.7828    40.6261    18.7453 </r>
       <r>    -8.7205    27.5436    20.7259 </r>
       <r>    -8.6583    32.3041    22.6284 </r>
       <r>    -8.5961    37.7524    24.8531 </r>
       <r>    -8.5339    57.4241    27.5639 </r>
       <r>    -8.4716    56.7727    31.2243 </r>
       <r>    -8.4094   108.5181    34.5976 </r>
       <r>    -8.3472    69.7596    37.9981 </r>
       <r>    -8.2850    39.8156    40.8453 </r>
       <r>    -8.2228    52.0586    43.1349 </r>
       <r>    -8.1605    62.6278    46.4239 </r>
       <r>    -8.0983    67.0298    50.3759 </r>
       <r>    -8.0361    54.1679    53.4340 </r>
       <r>    -7.9739    73.3255    56.9080 </r>
       <r>    -7.9117    73.7212    61.7841 </r>
       <r>    -7.8494     7.7143    64.0000 </r>
       <r>    -7.7872     0.0000    64.0000 </r>
       <r>    -7.7250     0.0000    64.0000 </r>
       <r>    -7.6628     0.0000    64.0000 </r>
       <r>    -7.6005     0.0000    64.0000 </r>
       <r>    -7.5383     0.0000    64.0000 </r>
       <r>    -7.4761     0.0000    64.0000 </r>
       <r>    -7.4139     0.0000    64.0000 </r>
       <r>    -7.3517     0.0000    64.0000 </r>
       <r>    -7.2894     0.0000    64.0000 </r>
       <r>    -7.2272     0.0000    64.0000 </r>
       <r>    -7.1650     0.0000    64.0000 </r>
       <r>    -7.1028     0.0000    64.0000 </r>
       <r>    -7.0405     0.0000    64.0000 </r>
       <r>    -6.9783     0.0000    64.0000 </r>
       <r>    -6.9161     0.0000    64.0000 </r>
       <r>    -6.8539     0.0000    64.0000 </r>
       <r>    -6.7917     0.0000    64.0000 </r>
       <r>    -6.7294     0.0000    64.0000 </r>
       <r>    -6.6672     0.0000    64.0000 </r>
       <r>    -6.6050     0.0000    64.0000 </r>
       <r>    -6.5428     0.0000    64.0000 </r>
       <r>    -6.4805     0.0000    64.0000 </r>
       <r>    -6.4183     0.0000    64.0000 </r>
       <r>    -6.3561     0.0000    64.0000 </r>
       <r>    -6.2939     0.0000    64.0000 </r>
       <r>    -6.2317     0.0000    64.0000 </r>
       <r>    -6.1694     0.0000    64.0000 </r>
       <r>    -6.1072     0.0000    64.0000 </r>
       <r>    -6.0450     0.0000    64.0000 </r>
       <r>    -5.9828     0.0000    64.0000 </r>
       <r>    -5.9206     0.0000    64.0000 </r>
       <r>    -5.8583     0.0000    64.0000 </r>
       <r>    -5.7961     0.0000    64.0000 </r>
       <r>    -5.7339     0.0000    64.0000 </r>
       <r>    -5.6717     0.0000    64.0000 </r>
       <r>    -5.6094     0.0000    64.0000 </r>
       <r>    -5.5472     0.0000    64.0000 </r>
       <r>    -5.4850     0.0000    64.0000 </r>
       <r>    -5.4228     0.0000    64.0000 </r>
       <r>    -5.3606     0.0000    64.0000 </r>
       <r>    -5.2983     0.0000    64.0000 </r>
       <r>    -5.2361     0.0000    64.0000 </r>
       <r>    -5.1739     0.0000    64.0000 </r>
       <r>    -5.1117     0.0000    64.0000 </r>
       <r>    -5.0494     0.0000    64.0000 </r>
       <r>    -4.9872     0.0000    64.0000 </r>
       <r>    -4.9250     0.0000    64.0000 </r>
       <r>    -4.8628     0.0000    64.0000 </r>
       <r>    -4.8006     0.0000    64.0000 </r>
       <r>    -4.7383     0.0000    64.0000 </r>
       <r>    -4.6761     0.0000    64.0000 </r>
       <r>    -4.6139     0.0000    64.0000 </r>
       <r>    -4.5517     0.0000    64.0000 </r>
       <r>    -4.4895     0.0000    64.0000 </r>
       <r>    -4.4272     0.0000    64.0000 </r>
       <r>    -4.3650     0.0000    64.0000 </r>
       <r>    -4.3028     0.0000    64.0000 </r>
       <r>    -4.2406     2.8694    64.0386 </r>
       <r>    -4.1783    12.1518    64.4789 </r>
       <r>    -4.1161    27.6271    65.6248 </r>
       <r>    -4.0539    77.1601    68.8783 </r>
       <r>    -3.9917    72.8588    72.7754 </r>
       <r>    -3.9295   120.0854    77.8872 </r>
       <r>    -3.8672   109.1824    84.5414 </r>
       <r>    -3.8050    46.0111    87.6915 </r>
       <r>    -3.7428   119.3080    92.6710 </r>
       <r>    -3.6806    19.7869    94.4652 </r>
       <r>    -3.6183    18.9794    95.5396 </r>
       <r>    -3.5561    54.1956    97.5528 </r>
       <r>    -3.4939    30.4210    99.8775 </r>
       <r>    -3.4317    19.9575   101.3800 </r>
       <r>    -3.3695    14.7756   102.3664 </r>
       <r>    -3.3072    30.2404   103.5365 </r>
       <r>    -3.2450    32.3447   106.3304 </r>
       <r>    -3.1828    13.7407   107.3000 </r>
       <r>    -3.1206    11.4759   108.1502 </r>
       <r>    -3.0584     7.5306   108.7162 </r>
       <r>    -2.9961    11.8294   109.2971 </r>
       <r>    -2.9339    12.4336   110.0839 </r>
       <r>    -2.8717    17.8750   111.0548 </r>
       <r>    -2.8095    14.0154   111.9831 </r>
       <r>    -2.7472    13.3690   112.8407 </r>
       <r>    -2.6850    12.9269   113.6505 </r>
       <r>    -2.6228    13.0830   114.4573 </r>
       <r>    -2.5606    12.1732   115.2351 </r>
       <r>    -2.4984     6.5187   115.8259 </r>
       <r>    -2.4361     6.3402   116.1957 </r>
       <r>    -2.3739     7.1415   116.6108 </r>
       <r>    -2.3117     8.1746   117.0860 </r>
       <r>    -2.2495    11.7685   117.6785 </r>
       <r>    -2.1872    10.8568   118.3838 </r>
       <r>    -2.1250     7.3361   118.9970 </r>
       <r>    -2.0628     8.0728   119.4725 </r>
       <r>    -2.0006     6.2333   119.9555 </r>
       <r>    -1.9384     4.8097   120.2238 </r>
       <r>    -1.8761     4.1995   120.5073 </r>
       <r>    -1.8139     3.7086   120.7500 </r>
       <r>    -1.7517     3.7833   120.9809 </r>
       <r>    -1.6895     4.0259   121.2236 </r>
       <r>    -1.6273     7.6747   121.5841 </r>
       <r>    -1.5650     9.7579   122.1676 </r>
       <r>    -1.5028     8.4459   122.7736 </r>
       <r>    -1.4406     6.9566   123.2284 </r>
       <r>    -1.3784     6.3279   123.6297 </r>
       <r>    -1.3161    13.4705   124.1836 </r>
       <r>    -1.2539    28.4604   125.5731 </r>
       <r>    -1.1917    46.5811   127.6699 </r>
       <r>    -1.1295    44.6791   130.6722 </r>
       <r>    -1.0673    43.9461   133.3603 </r>
       <r>    -1.0050    58.8971   136.5893 </r>
       <r>    -0.9428    37.8226   139.3229 </r>
       <r>    -0.8806    41.6553   141.7904 </r>
       <r>    -0.8184    34.4651   143.9099 </r>
       <r>    -0.7561    25.1719   146.0948 </r>
       <r>    -0.6939    32.8541   147.7789 </r>
       <r>    -0.6317    28.5379   149.7928 </r>
       <r>    -0.5695    47.2016   152.2496 </r>
       <r>    -0.5073    40.9482   154.7418 </r>
       <r>    -0.4450    44.9526   157.2634 </r>
       <r>    -0.3828    51.1516   160.2988 </r>
       <r>    -0.3206    50.7545   163.4049 </r>
       <r>    -0.2584    50.2291   166.5056 </r>
       <r>    -0.1962    44.9708   169.4046 </r>
       <r>    -0.1339    53.2496   172.2946 </r>
       <r>    -0.0717    60.6706   175.9170 </r>
       <r>    -0.0095    48.1450   179.4180 </r>
       <r>     0.0527    55.5547   182.8383 </r>
       <r>     0.1150    50.1416   185.7501 </r>
       <r>     0.1772    57.5761   189.1541 </r>
       <r>     0.2394    50.2115   192.4305 </r>
       <r>     0.3016    44.2242   194.7439 </r>
       <r>     0.3638    43.0097   197.6504 </r>
       <r>     0.4261    57.6050   201.1571 </r>
       <r>     0.4883    64.9388   204.3906 </r>
       <r>     0.5505    79.3653   208.1697 </r>
       <r>     0.6127    41.8089   211.2698 </r>
       <r>     0.6750    51.9678   213.9047 </r>
       <r>     0.7372    51.7073   216.9410 </r>
       <r>     0.7994    46.3082   219.9244 </r>
       <r>     0.8616    49.1526   222.4751 </r>
       <r>     0.9238    45.5467   225.5621 </r>
       <r>     0.9861    35.0934   227.9273 </r>
       <r>     1.0483    43.0656   230.2815 </r>
       <r>     1.1105    45.9514   233.0804 </r>
       <r>     1.1727    42.0008   235.8687 </r>
       <r>     1.2349    53.2528   238.9556 </r>
       <r>     1.2972    42.2960   241.9124 </r>
       <r>     1.3594    25.6989   243.8699 </r>
       <r>     1.4216    19.3206   245.2149 </r>
       <r>     1.4838    24.6524   246.6648 </r>
       <r>     1.5461    22.1463   248.0233 </r>
       <r>     1.6083    20.0965   249.4186 </r>
       <r>     1.6705    11.5098   250.3253 </r>
       <r>     1.7327    13.1315   251.0348 </r>
       <r>     1.7949    13.2682   251.8944 </r>
       <r>     1.8572    18.1114   253.1360 </r>
       <r>     1.9194     6.3227   253.6464 </r>
       <r>     1.9816    11.5033   254.1128 </r>
       <r>     2.0438    11.6521   254.9735 </r>
       <r>     2.1061     5.7995   255.5538 </r>
       <r>     2.1683     3.1268   255.8000 </r>
       <r>     2.2305     1.1222   255.9839 </r>
       <r>     2.2927     0.0000   256.0000 </r>
       <r>     2.3549     0.0000   256.0000 </r>
       <r>     2.4172     0.0001   256.0000 </r>
       <r>     2.4794     0.0017   256.0000 </r>
       <r>     2.5416     0.0057   256.0003 </r>
       <r>     2.6038     0.0121   256.0008 </r>
       <r>     2.6660     0.0208   256.0018 </r>
       <r>     2.7283     0.0318   256.0034 </r>
       <r>     2.7905     0.0452   256.0058 </r>
       <r>     2.8527     0.0609   256.0091 </r>
       <r>     2.9149     0.0790   256.0135 </r>
       <r>     2.9772     0.0994   256.0190 </r>
       <r>     3.0394     0.1222   256.0259 </r>
       <r>     3.1016     0.1473   256.0342 </r>
       <r>     3.1638     0.1821   256.0443 </r>
       <r>     3.2260     0.5590   256.0627 </r>
       <r>     3.2883     1.3570   256.1225 </r>
       <r>     3.3505     2.1155   256.2308 </r>
       <r>     3.4127     2.8677   256.3851 </r>
       <r>     3.4749     6.3749   256.7274 </r>
       <r>     3.5372     6.9192   257.0924 </r>
       <r>     3.5994     8.5128   257.5892 </r>
       <r>     3.6616     6.8590   258.0316 </r>
       <r>     3.7238     8.4391   258.5212 </r>
       <r>     3.7860    11.1954   259.1408 </r>
       <r>     3.8483    13.7774   259.8847 </r>
       <r>     3.9105    22.7959   261.2733 </r>
       <r>     3.9727    29.6347   262.5040 </r>
       <r>     4.0349    34.6227   264.4767 </r>
       <r>     4.0971    24.8650   266.5570 </r>
       <r>     4.1594    20.2987   267.8005 </r>
       <r>     4.2216    24.4953   269.1730 </r>
       <r>     4.2838    35.6491   270.9426 </r>
       <r>     4.3460    52.7457   273.7362 </r>
       <r>     4.4083    45.5160   276.4691 </r>
       <r>     4.4705    51.6945   278.9139 </r>
       <r>     4.5327    58.8851   282.0789 </r>
       <r>     4.5949    52.3366   285.8064 </r>
       <r>     4.6571    69.8675   289.6228 </r>
       <r>     4.7194    69.6845   293.8187 </r>
       <r>     4.7816    69.5857   298.0106 </r>
       <r>     4.8438    39.3412   301.5846 </r>
       <r>     4.9060    40.0374   304.1171 </r>
       <r>     4.9683    39.5162   306.6197 </r>
       <r>     5.0305    40.2460   308.9452 </r>
       <r>     5.0927    37.5182   311.4745 </r>
       <r>     5.1549    31.2857   313.5134 </r>
       <r>     5.2171    33.8183   315.5110 </r>
       <r>     5.2794    28.6884   317.5988 </r>
       <r>     5.3416    20.1808   318.8527 </r>
       <r>     5.4038    31.5761   320.5134 </r>
       <r>     5.4660    33.8442   322.6089 </r>
       <r>     5.5282    28.6005   324.4512 </r>
       <r>     5.5905    39.2698   326.3283 </r>
       <r>     5.6527    18.2056   327.8313 </r>
       <r>     5.7149    19.1015   328.9804 </r>
       <r>     5.7771    22.7866   330.2759 </r>
       <r>     5.8394    19.8661   331.6055 </r>
       <r>     5.9016    15.3717   332.6536 </r>
       <r>     5.9638    12.6090   333.5236 </r>
       <r>     6.0260    10.2980   334.2346 </r>
       <r>     6.0882     8.8403   334.8482 </r>
       <r>     6.1505     5.8305   335.3103 </r>
       <r>     6.2127     3.3779   335.6108 </r>
       <r>     6.2749     1.8961   335.7696 </r>
       <r>     6.3371     1.2433   335.8590 </r>
       <r>     6.3994     0.8979   335.9254 </r>
       <r>     6.4616     0.5835   335.9962 </r>
       <r>     6.5238     0.0267   335.9991 </r>
       <r>     6.5860     0.0046   335.9999 </r>
       <r>     6.6482     0.0000   336.0000 </r>
       <r>     6.7105     0.0000   336.0000 </r>
       <r>     6.7727     0.0000   336.0000 </r>
       <r>     6.8349     0.0000   336.0000 </r>
       <r>     6.8971     0.0000   336.0000 </r>
       <r>     6.9593     0.0000   336.0000 </r>
       <r>     7.0216     0.0000   336.0000 </r>
       <r>     7.0838     0.0000   336.0000 </r>
       <r>     7.1460     0.0000   336.0000 </r>
       <r>     7.2082     0.0000   336.0000 </r>
       <r>     7.2705     0.0000   336.0000 </r>
       <r>     7.3327     0.0000   336.0000 </r>
       <r>     7.3949     0.0000   336.0000 </r>
       <r>     7.4571     0.0000   336.0000 </r>
       <r>     7.5193     0.0000   336.0000 </r>
       <r>     7.5816     0.0000   336.0000 </r>
       <r>     7.6438     0.0000   336.0000 </r>
      </set>
     </set>
    </array>
   </total>
  </dos>
 </calculation>
 <structure name="finalpos" >
  <crystal>
   <varray name="basis" >
    <v>      11.58443383       0.00000000       0.00000000 </v>
    <v>       0.00000000      11.50893329       0.00000000 </v>
    <v>       0.00000000       0.00000000      11.50893329 </v>
   </varray>
   <i name="volume">   1534.42250334 </i>
   <varray name="rec_basis" >
    <v>       0.08632273       0.00000000       0.00000000 </v>
    <v>       0.00000000       0.08688903       0.00000000 </v>
    <v>       0.00000000       0.00000000       0.08688903 </v>
   </varray>
  </crystal>
  <varray name="positions" >
   <v>       0.00000000       0.00000000       0.00000000 </v>
   <v>       0.00000000       0.00000000       0.50000000 </v>
   <v>       0.00000000       0.50000000       0.00000000 </v>
   <v>       0.00000000       0.50000000       0.50000000 </v>
   <v>       0.50000000       0.00000000       0.00000000 </v>
   <v>       0.50000000       0.00000000       0.50000000 </v>
   <v>       0.50000000       0.50000000       0.00000000 </v>
   <v>       0.50000000       0.50000000       0.50000000 </v>
   <v>       0.25000000       0.25000000       0.00000000 </v>
   <v>       0.25000000       0.25000000       0.50000000 </v>
   <v>       0.25000000       0.75000000       0.00000000 </v>
   <v>       0.25000000       0.75000000       0.50000000 </v>
   <v>       0.75000000       0.25000000       0.00000000 </v>
   <v>       0.75000000       0.25000000       0.50000000 </v>
   <v>       0.75000000       0.75000000       0.00000000 </v>
   <v>       0.75000000       0.75000000       0.50000000 </v>
   <v>       0.25000000       0.00000000       0.25000000 </v>
   <v>       0.25000000       0.00000000       0.75000000 </v>
   <v>       0.25000000       0.50000000       0.25000000 </v>
   <v>       0.25000000       0.50000000       0.75000000 </v>
   <v>       0.75000000       0.00000000       0.25000000 </v>
   <v>       0.75000000       0.00000000       0.75000000 </v>
   <v>       0.75000000       0.50000000       0.25000000 </v>
   <v>       0.75000000       0.50000000       0.75000000 </v>
   <v>       0.00000000       0.25000000       0.25000000 </v>
   <v>       0.00000000       0.25000000       0.75000000 </v>
   <v>       0.00000000       0.75000000       0.25000000 </v>
   <v>       0.00000000       0.75000000       0.75000000 </v>
   <v>       0.50000000       0.25000000       0.25000000 </v>
   <v>       0.50000000       0.25000000       0.75000000 </v>
   <v>       0.50000000       0.75000000       0.25000000 </v>
   <v>       0.50000000       0.75000000       0.75000000 </v>
   <v>       0.12500000       0.12500000       0.12500000 </v>
   <v>       0.12500000       0.12500000       0.62500000 </v>
   <v>       0.12500000       0.62500000       0.12500000 </v>
   <v>       0.12500000       0.62500000       0.62500000 </v>
   <v>       0.62500000       0.12500000       0.12500000 </v>
   <v>       0.62500000       0.12500000       0.62500000 </v>
   <v>       0.62500000       0.62500000       0.12500000 </v>
   <v>       0.62500000       0.62500000       0.62500000 </v>
   <v>       0.37500000       0.12500000       0.37500000 </v>
   <v>       0.37500000       0.12500000       0.87500000 </v>
   <v>       0.37500000       0.62500000       0.37500000 </v>
   <v>       0.37500000       0.62500000       0.87500000 </v>
   <v>       0.87500000       0.12500000       0.37500000 </v>
   <v>       0.87500000       0.12500000       0.87500000 </v>
   <v>       0.87500000       0.62500000       0.37500000 </v>
   <v>       0.87500000       0.62500000       0.87500000 </v>
   <v>       0.37500000       0.37500000       0.12500000 </v>
   <v>       0.37500000       0.37500000       0.62500000 </v>
   <v>       0.37500000       0.87500000       0.12500000 </v>
   <v>       0.37500000       0.87500000       0.62500000 </v>
   <v>       0.87500000       0.37500000       0.12500000 </v>
   <v>       0.87500000       0.37500000       0.62500000 </v>
   <v>       0.87500000       0.87500000       0.12500000 </v>
   <v>       0.87500000       0.87500000       0.62500000 </v>
   <v>       0.12500000       0.37500000       0.37500000 </v>
   <v>       0.12500000       0.37500000       0.87500000 </v>
   <v>       0.12500000       0.87500000       0.37500000 </v>
   <v>       0.12500000       0.87500000       0.87500000 </v>
   <v>       0.62500000       0.37500000       0.37500000 </v>
   <v>       0.62500000       0.37500000       0.87500000 </v>
   <v>       0.62500000       0.87500000       0.37500000 </v>
   <v>       0.62500000       0.87500000       0.87500000 </v>
  </varray>
 </structure>
</modeling>
