 vasp.6.4.3 19Mar24 (build Aug 29 2024 15:27:20) complex                        
  
 executed on             LinuxIFC date 2025.03.13  14:27:20
 running    8 mpi-ranks, on    1 nodes
 distrk:  each k-point on    8 cores,    1 groups
 distr:  one band on NCORE=   1 cores,    8 groups


--------------------------------------------------------------------------------------------------------


 INCAR:
   SYSTEM = GaAs
   PREC = Normal
   ENCUT = 500
   ISMEAR = -5
   SIGMA = 0.1
   IBRION = 2
   LOPTICS = .TRUE.

 POTCAR:    PAW_PBE As 22Sep2009                  
 POTCAR:    PAW_PBE Ga 08Apr2002                  
 -----------------------------------------------------------------------------
|                                                                             |
|           W    W    AA    RRRRR   N    N  II  N    N   GGGG   !!!           |
|           W    W   A  A   R    R  NN   N  II  NN   N  G    G  !!!           |
|           W    W  A    A  R    R  N N  N  II  N N  N  G       !!!           |
|           W WW W  AAAAAA  RRRRR   N  N N  II  N  N N  G  GGG   !            |
|           WW  WW  A    A  R   R   N   NN  II  N   NN  G    G                |
|           W    W  A    A  R    R  N    N  II  N    N   GGGG   !!!           |
|                                                                             |
|     For optimal performance we recommend to set                             |
|       NCORE = 2 up to number-of-cores-per-socket                            |
|     NCORE specifies how many cores store one orbital (NPAR=cpu/NCORE).      |
|     This setting can greatly improve the performance of VASP for DFT.       |
|     The default, NCORE=1 might be grossly inefficient on modern             |
|     multi-core architectures or massively parallel machines. Do your        |
|     own testing! More info at https://www.vasp.at/wiki/index.php/NCORE      |
|     Unfortunately you need to use the default for GW and RPA                |
|     calculations (for HF NCORE is supported but not extensively tested      |
|     yet).                                                                   |
|                                                                             |
 -----------------------------------------------------------------------------

 POTCAR:    PAW_PBE As 22Sep2009                  
   VRHFIN =As: s2p3                                                                                 
   LEXCH  = PE                                                                                      
   EATOM  =   170.1867 eV,   12.5084 Ry                                                             
                                                                                                    
   TITEL  = PAW_PBE As 22Sep2009                                                                    
   LULTRA =        F    use ultrasoft PP ?                                                          
   IUNSCR =        1    unscreen: 0-lin 1-nonlin 2-no                                               
   RPACOR =    1.900    partial core radius                                                         
   POMASS =   74.922; ZVAL   =    5.000    mass and valenz                                          
   RCORE  =    2.100    outmost cutoff radius                                                       
   RWIGS  =    2.300; RWIGS  =    1.217    wigner-seitz radius (au A)                               
   ENMAX  =  208.702; ENMIN  =  156.526 eV                                                          
   ICORE  =        3    local potential                                                             
   LCOR   =        T    correct aug charges                                                         
   LPAW   =        T    paw PP                                                                      
   EAUG   =  462.758                                                                                
   DEXC   =    0.000                                                                                
   RMAX   =    2.144    core radius for proj-oper                                                   
   RAUG   =    1.300    factor for augmentation sphere                                              
   RDEP   =    2.140    radius for radial grids                                                     
   RDEPT  =    1.956    core radius for aug-charge                                                  
                                                                                                    
   Atomic configuration                                                                             
   10 entries                                                                                       
     n  l   j            E        occ.                                                              
     1  0  0.50    -11718.0418   2.0000                                                             
     2  0  0.50     -1486.5454   2.0000                                                             
     2  1  1.50     -1303.3889   6.0000                                                             
     3  0  0.50      -190.2849   2.0000                                                             
     3  1  1.50      -133.6555   6.0000                                                             
     3  2  2.50       -40.6443  10.0000                                                             
     4  0  0.50       -14.4936   2.0000                                                             
     4  1  0.50        -5.1947   3.0000                                                             
     4  2  1.50        -5.4423   0.0000                                                             
     4  3  2.50        -5.4423   0.0000                                                             
   Description                                                                                      
     l       E           TYP  RCUT    TYP  RCUT                                                     
     0    -14.4935570     23  2.100                                                                 
     0    -11.9212055     23  2.100                                                                 
     1     -5.1947127     23  2.100                                                                 
     1     27.2116520     23  2.100                                                                 
     2     -5.4423304     23  2.100                                                                 
     3     -1.3605826      7  2.100                                                                 
  local pseudopotential read in
  partial core-charges read in
  partial kinetic energy density read in
  atomic valenz-charges read in
  non local Contribution for L=           0  read in
    real space projection operators read in
  non local Contribution for L=           0  read in
    real space projection operators read in
  non local Contribution for L=           1  read in
    real space projection operators read in
  non local Contribution for L=           1  read in
    real space projection operators read in
  non local Contribution for L=           2  read in
    real space projection operators read in
    PAW grid and wavefunctions read in
 
   number of l-projection  operators is LMAX  =           5
   number of lm-projection operators is LMMAX =          13
 
 POTCAR:    PAW_PBE Ga 08Apr2002                  
   VRHFIN =Ga: s2p1                                                                                 
   LEXCH  = PE                                                                                      
   EATOM  =    58.8688 eV,    4.3267 Ry                                                             
                                                                                                    
   TITEL  = PAW_PBE Ga 08Apr2002                                                                    
   LULTRA =        F    use ultrasoft PP ?                                                          
   IUNSCR =        1    unscreen: 0-lin 1-nonlin 2-no                                               
   RPACOR =    2.170    partial core radius                                                         
   POMASS =   69.723; ZVAL   =    3.000    mass and valenz                                          
   RCORE  =    2.600    outmost cutoff radius                                                       
   RWIGS  =    2.650; RWIGS  =    1.402    wigner-seitz radius (au A)                               
   ENMAX  =  134.678; ENMIN  =  101.009 eV                                                          
   ICORE  =        3    local potential                                                             
   LCOR   =        T    correct aug charges                                                         
   LPAW   =        T    paw PP                                                                      
   EAUG   =  320.264                                                                                
   DEXC   =    0.000                                                                                
   RMAX   =    2.658    core radius for proj-oper                                                   
   RAUG   =    1.300    factor for augmentation sphere                                              
   RDEP   =    2.684    radius for radial grids                                                     
   RDEPT  =    2.308    core radius for aug-charge                                                  
                                                                                                    
   Atomic configuration                                                                             
   10 entries                                                                                       
     n  l   j            E        occ.                                                              
     1  0  0.50    -10228.7830   2.0000                                                             
     2  0  0.50     -1262.1604   2.0000                                                             
     2  1  1.50     -1098.6333   6.0000                                                             
     3  0  0.50      -148.1110   2.0000                                                             
     3  1  1.50       -98.8436   6.0000                                                             
     3  2  2.50       -19.1549  10.0000                                                             
     4  0  0.50        -8.9483   2.0000                                                             
     4  1  0.50        -2.5791   1.0000                                                             
     4  2  1.50         5.4423   0.0000                                                             
     4  3  2.50        -2.7416   0.0000                                                             
   Description                                                                                      
     l       E           TYP  RCUT    TYP  RCUT                                                     
     0     -8.9483097     23  2.600                                                                 
     0     -5.8232215     23  2.600                                                                 
     1     -2.5790793     23  2.600                                                                 
     1      5.2230115     23  2.600                                                                 
     2      1.3605826     23  2.600                                                                 
     3     -1.3605826      7  2.600                                                                 
  local pseudopotential read in
  partial core-charges read in
  partial kinetic energy density read in
  atomic valenz-charges read in
  non local Contribution for L=           0  read in
    real space projection operators read in
  non local Contribution for L=           0  read in
    real space projection operators read in
  non local Contribution for L=           1  read in
    real space projection operators read in
  non local Contribution for L=           1  read in
    real space projection operators read in
  non local Contribution for L=           2  read in
    real space projection operators read in
    PAW grid and wavefunctions read in
 
   number of l-projection  operators is LMAX  =           5
   number of lm-projection operators is LMMAX =          13
 
  PAW_PBE As 22Sep2009                  :
 energy of atom  1       EATOM= -170.1867
 kinetic energy error for atom=    0.0005 (will be added to EATOM!!)
  PAW_PBE Ga 08Apr2002                  :
 energy of atom  2       EATOM=  -58.8688
 kinetic energy error for atom=    0.0000 (will be added to EATOM!!)
 
 
 POSCAR: cubic gallium arsenide
  positions in direct lattice
  velocities in cartesian coordinates


 exchange-correlation table for PE
   RHO(1)=    0.500       N(1)  =     2000
   RHO(2)=  100.500       N(2)  =     4000
 


--------------------------------------------------------------------------------------------------------


 ion  position               nearest neighbor table
   1  0.000  0.000  0.000-   5 2.40   6 2.40   7 2.40   8 2.40
   2  0.500  0.500  0.000-   5 2.40   6 2.40   7 2.40   8 2.40
   3  0.500  0.000  0.500-   5 2.40   6 2.40   7 2.40   8 2.40
   4  0.000  0.500  0.500-   5 2.40   6 2.40   7 2.40   8 2.40
   5  0.250  0.250  0.250-   1 2.40   2 2.40   3 2.40   4 2.40
   6  0.750  0.250  0.750-   1 2.40   2 2.40   3 2.40   4 2.40
   7  0.750  0.750  0.250-   1 2.40   2 2.40   3 2.40   4 2.40
   8  0.250  0.750  0.750-   1 2.40   2 2.40   3 2.40   4 2.40
 
  LATTYP: Found a simple cubic cell.
 ALAT       =     5.5344079774
  
  Lattice vectors:
  
 A1 = (   5.5344079774,   0.0000000000,   0.0000000000)
 A2 = (   0.0000000000,   5.5344079774,   0.0000000000)
 A3 = (   0.0000000000,   0.0000000000,   5.5344079774)


Analysis of symmetry for initial positions (statically):
=====================================================================
 Subroutine PRICEL returns following result:
 
  LATTYP: Found a face centered cubic cell.
 ALAT       =     5.5344079774
  
  Lattice vectors:
  
 A1 = (   2.7672039887,  -2.7672039887,   0.0000000000)
 A2 = (   2.7672039887,   0.0000000000,   2.7672039887)
 A3 = (   0.0000000000,  -2.7672039887,   2.7672039887)
 
   4 primitive cells build up your supercell.
 

 Routine SETGRP: Setting up the symmetry group for a 
 simple cubic supercell.


 Subroutine GETGRP returns: Found 24 space group operations
 (whereof 24 operations were pure point group operations)
 out of a pool of 48 trial point group operations.


The static configuration has the point symmetry T_d .


Analysis of symmetry for dynamics (positions and initial velocities):
=====================================================================
 Subroutine PRICEL returns following result:
 
  LATTYP: Found a face centered cubic cell.
 ALAT       =     5.5344079774
  
  Lattice vectors:
  
 A1 = (   2.7672039887,  -2.7672039887,   0.0000000000)
 A2 = (   2.7672039887,   0.0000000000,   2.7672039887)
 A3 = (   0.0000000000,  -2.7672039887,   2.7672039887)
 
   4 primitive cells build up your supercell.
 

 Routine SETGRP: Setting up the symmetry group for a 
 simple cubic supercell.


 Subroutine GETGRP returns: Found 24 space group operations
 (whereof 24 operations were pure point group operations)
 out of a pool of 48 trial point group operations.


The dynamic configuration has the point symmetry T_d .


 Subroutine INISYM returns: Found 24 space group operations
 (whereof 24 operations are pure point group operations),
 and found     4 'primitive' translations


----------------------------------------------------------------------------------------

                                     Primitive cell                                     

  volume of cell :      42.3793

  direct lattice vectors                    reciprocal lattice vectors
     2.767203989 -2.767203989  0.000000000     0.180687800 -0.180687800 -0.180687800
     2.767203989  0.000000000  2.767203989     0.180687800  0.180687800  0.180687800
     0.000000000 -2.767203989  2.767203989    -0.180687800 -0.180687800  0.180687800

  length of vectors
     3.913417411  3.913417411  3.913417411     0.312960449  0.312960449  0.312960449

  position of ions in fractional coordinates (direct lattice)
     0.000000000  0.000000000  0.000000000
     0.750000000  0.750000000  0.750000000

  ion indices of the primitive-cell ions
   primitive index   ion index
                 1           1
                 2           5

----------------------------------------------------------------------------------------

 
 
 KPOINTS: Automatic mesh                          

Automatic generation of k-mesh.
 Grid dimensions read from file:
 generate k-points for:    5    5    5

 Generating k-lattice:

  Cartesian coordinates                     Fractional coordinates (reciprocal lattice)
     0.036137560  0.000000000  0.000000000     0.200000000  0.000000000  0.000000000
     0.000000000  0.036137560  0.000000000     0.000000000  0.200000000  0.000000000
     0.000000000  0.000000000  0.036137560     0.000000000  0.000000000  0.200000000

  Length of vectors
     0.036137560  0.036137560  0.036137560

  Shift w.r.t. Gamma in fractional coordinates (k-lattice)
     0.000000000  0.000000000  0.000000000

 TETIRR: Found     57 inequivalent tetrahedra from      750
 
 Subroutine IBZKPT returns following result:
 ===========================================
 
 Found     10 irreducible k-points:
 
 Following reciprocal coordinates:
            Coordinates               Weight
  0.000000  0.000000  0.000000      1.000000
  0.200000  0.000000  0.000000      6.000000
  0.400000  0.000000  0.000000      6.000000
  0.200000  0.200000  0.000000     12.000000
  0.400000  0.200000  0.000000     24.000000
  0.400000  0.400000  0.000000     12.000000
  0.200000  0.200000  0.200000      8.000000
  0.400000  0.200000  0.200000     24.000000
  0.400000  0.400000  0.200000     24.000000
  0.400000  0.400000  0.400000      8.000000
 
 Following cartesian coordinates:
            Coordinates               Weight
  0.000000  0.000000  0.000000      1.000000
  0.162619  0.000000  0.000000      6.000000
  0.325238  0.000000  0.000000      6.000000
  0.162619  0.162619  0.000000     12.000000
  0.325238  0.162619  0.000000     24.000000
  0.325238  0.325238  0.000000     12.000000
  0.162619  0.162619  0.162619      8.000000
  0.325238  0.162619  0.162619     24.000000
  0.325238  0.325238  0.162619     24.000000
  0.325238  0.325238  0.325238      8.000000
 


--------------------------------------------------------------------------------------------------------




 Dimension of arrays:
   k-points           NKPTS =     10   k-points in BZ     NKDIM =     10   number of bands    NBANDS=     24
   number of dos      NEDOS =    301   number of ions     NIONS =      8
   non local maximal  LDIM  =      5   non local SUM 2l+1 LMDIM =     13
   total plane-waves  NPLWV =  27000
   max r-space proj   IRMAX =      1   max aug-charges    IRDMAX=  11646
   dimension x,y,z NGX =    30 NGY =   30 NGZ =   30
   dimension x,y,z NGXF=    60 NGYF=   60 NGZF=   60
   support grid    NGXF=    60 NGYF=   60 NGZF=   60
   ions per type =               4   4
   NGX,Y,Z   is equivalent  to a cutoff of   9.01,  9.01,  9.01 a.u.
   NGXF,Y,Z  is equivalent  to a cutoff of  18.02, 18.02, 18.02 a.u.

 SYSTEM =  GaAs                                    
 POSCAR =  cubic gallium arsenide                  

 Startparameter for this run:
   NWRITE =      2    write-flag & timer
   PREC   = normal    normal or accurate (medium, high low for compatibility)
   ISTART =      0    job   : 0-new  1-cont  2-samecut
   ICHARG =      2    charge: 1-file 2-atom 10-const
   ISPIN  =      1    spin polarized calculation?
   LNONCOLLINEAR =      F non collinear calculations
   LSORBIT =      F    spin-orbit coupling
   INIWAV =      1    electr: 0-lowe 1-rand  2-diag
   LASPH  =      F    aspherical Exc in radial PAW
 Electronic Relaxation 1
   ENCUT  =  500.0 eV  36.75 Ry    6.06 a.u.  10.09 10.09 10.09*2*pi/ulx,y,z
   ENINI  =  500.0     initial cutoff
   ENAUG  =  462.8 eV  augmentation charge cutoff
   NELM   =     60;   NELMIN=  2; NELMDL= -5     # of ELM steps 
   EDIFF  = 0.1E-03   stopping-criterion for ELM
   LREAL  =      F    real-space projection
   NLSPLINE    = F    spline interpolate recip. space projectors
   LCOMPAT=      F    compatible to vasp.4.4
   GGA_COMPAT  = T    GGA compatible to vasp.4.4-vasp.4.6
   LMAXPAW     = -100 max onsite density
   LMAXMIX     =    2 max onsite mixed and CHGCAR
   VOSKOWN=      0    Vosko Wilk Nusair interpolation
   ROPT   =    0.00000   0.00000
 Ionic relaxation
   EDIFFG = 0.1E-02   stopping-criterion for IOM
   NSW    =      0    number of steps for IOM
   NBLOCK =      1;   KBLOCK =      1    inner block; outer block 
   IBRION =     -1    ionic relax: 0-MD 1-quasi-New 2-CG
   NFREE  =      1    steps in history (QN), initial steepest desc. (CG)
   ISIF   =      2    stress and relaxation
   IWAVPR =     10    prediction:  0-non 1-charg 2-wave 3-comb
   ISYM   =      2    0-nonsym 1-usesym 2-fastsym
   LCORR  =      T    Harris-Foulkes like correction to forces

   POTIM  = 0.5000    time-step for ionic-motion
   TEIN   =    0.0    initial temperature
   TEBEG  =    0.0;   TEEND  =   0.0 temperature during run
   SMASS  =  -3.00    Nose mass-parameter (am)
   estimated Nose-frequenzy (Omega)   =  0.10E-29 period in steps = 0.13E+47 mass=  -0.700E-27a.u.
   SCALEE = 1.0000    scale energy and forces
   NPACO  =    256;   APACO  = 10.0  distance and # of slots for P.C.
   PSTRESS=    0.0 pullay stress

  Mass of Ions in am
   POMASS =  74.92 69.72
  Ionic Valenz
   ZVAL   =   5.00  3.00
  Atomic Wigner-Seitz radii
   RWIGS  =  -1.00 -1.00
  virtual crystal weights 
   VCA    =   1.00  1.00
   NELECT =      32.0000    total number of electrons
   NUPDOWN=      -1.0000    fix difference up-down

 DOS related values:
   EMIN   =  10.00;   EMAX   =-10.00  energy-range for DOS
   EFERMI =   0.00;   METHOD = LEGACY      
   ISMEAR =    -5;   SIGMA  =   0.10  broadening in eV -4-tet -1-fermi 0-gaus

 Electronic relaxation 2 (details)
   IALGO  =     38    algorithm
   LDIAG  =      T    sub-space diagonalisation (order eigenvalues)
   LSUBROT=      F    optimize rotation matrix (better conditioning)
   TURBO    =      0    0=normal 1=particle mesh
   IRESTART =      0    0=no restart 2=restart with 2 vectors
   NREBOOT  =      0    no. of reboots
   NMIN     =      0    reboot dimension
   EREF     =   0.00    reference energy to select bands
   IMIX   =      4    mixing-type and parameters
     AMIX     =   0.40;   BMIX     =  1.00
     AMIX_MAG =   1.60;   BMIX_MAG =  1.00
     AMIN     =   0.10
     WC   =   100.;   INIMIX=   1;  MIXPRE=   1;  MAXMIX= -45

 Intra band minimization:
   WEIMIN = 0.0000     energy-eigenvalue tresh-hold
   EBREAK =  0.10E-05  absolut break condition
   DEPER  =   0.30     relativ break condition  

   TIME   =   0.40     timestep for ELM

  volume/ion in A,a.u.               =      21.19       142.99
  Fermi-wavevector in a.u.,A,eV,Ry     =   0.939118  1.774676 11.999566  0.881943
  Thomas-Fermi vector in A             =   2.066398
 
 Write flags
   LWAVE        =      T    write WAVECAR
   LDOWNSAMPLE  =      F    k-point downsampling of WAVECAR
   LCHARG       =      T    write CHGCAR
   LVTOT        =      F    write LOCPOT, total local potential
   LVHAR        =      F    write LOCPOT, Hartree potential only
   WRT_POTENTIAL= false  ! write potential to hdf5 file
   LELF         =      F    write electronic localiz. function (ELF)
   LORBIT       =      0    0 simple, 1 ext, 2 COOP (PROOUT), +10 PAW based schemes


 Dipole corrections
   LMONO      =      F    monopole corrections only (constant potential shift)
   LDIPOL     =      F    correct potential (dipole corrections)
   IDIPOL     =      0    1-x, 2-y, 3-z, 4-all directions 
   EPSILON    =  1.0000000 bulk dielectric constant
   LVACPOTAV  =      F  vacuum potentials using an averaging scheme for the charge density
   VACPOTFLAT =  0.1000000 required flatness to determine vacuum potential
 Exchange correlation treatment:
   GGA     = PE    functional components
   XC_C    = 1    coefficients multiplying the functional components
   LIBXC   =     F    Libxc                    
   VOSKOWN =     0    Vosko Wilk Nusair interpolation
   LHFCALC =     F    Hartree Fock is set to
   LHFONE  =     F    Hartree Fock one center treatment
   AEXX    =    0.0000 exact exchange contribution

 Parameters of functionals:
   PE:
     No parameter
 
 Van der Waals corrections
   IVDW    =     0    specifies the selected vdW correction

 Linear response parameters
   LEPSILON=     F    determine dielectric tensor
   LRPA    =     F    only Hartree local field effects (RPA)
   LNABLA  =     F    use nabla operator in PAW spheres
   LVEL    =     F    velocity operator in full k-point grid
   CSHIFT  =0.1000    complex shift for real part using Kramers Kronig
   OMEGAMAX=  -1.0    maximum frequency
   DEG_THRESHOLD= 0.2000000E-02 threshold for treating states as degnerate
   RTIME   =   -0.100 relaxation time in fs
  (WPLASMAI=    0.000 imaginary part of plasma frequency in eV, 0.658/RTIME)
   DFIELD  = 0.0000000 0.0000000 0.0000000 field for delta impulse in time
 
  Optional k-point grid parameters
   LKPOINTS_OPT  =     F    use optional k-point grid
   KPOINTS_OPT_MODE=     1    mode for optional k-point grid
 
 Orbital magnetization related:
   ORBITALMAG=     F  switch on orbital magnetization
   LCHIMAG   =     F  perturbation theory with respect to B field
   DQ        =  0.001000  dq finite difference perturbation B field
   LLRAUG    =     F  two centre corrections for induced B field
   LBONE     =     F  B-component reconstruction in AE one-centre
   LVGVCALC  =     T  calculate vGv susceptibility
   LVGVAPPL  =     F  apply vGv susceptibility instead of pGv for G=0

 Random number generation:
   RANDOM_GENERATOR = DEFAULT
   PCG_SEED         = not used


--------------------------------------------------------------------------------------------------------


 Static calculation
 charge density and potential will be updated during run
 non-spin polarized calculation
 Variant of blocked Davidson
 Davidson routine will perform the subspace rotation
 perform sub-space diagonalisation
    after iterative eigenvector-optimisation
 modified Broyden-mixing scheme, WC =      100.0
 initial mixing is a Kerker type mixing with AMIX =  0.4000 and BMIX =      1.0000
 Hartree-type preconditioning will be used
 using additional bands            8
 reciprocal scheme for non local part
 use partial core corrections
 calculate Harris-corrections to forces 
   (improved forces if not selfconsistent)
 use gradient corrections 
 use of overlap-Matrix (Vanderbilt PP)
 Fermi weights with tetrahedron method with Bloechl corrections


--------------------------------------------------------------------------------------------------------


  energy-cutoff  :      500.00
  volume of cell :      169.52
      direct lattice vectors                 reciprocal lattice vectors
     5.534407977  0.000000000  0.000000000     0.180687800  0.000000000  0.000000000
     0.000000000  5.534407977  0.000000000     0.000000000  0.180687800  0.000000000
     0.000000000  0.000000000  5.534407977     0.000000000  0.000000000  0.180687800

  length of vectors
     5.534407977  5.534407977  5.534407977     0.180687800  0.180687800  0.180687800


 
 k-points in units of 2pi/SCALE and weight: Automatic mesh                          
   0.00000000  0.00000000  0.00000000       0.008
   0.16261902  0.00000000  0.00000000       0.048
   0.32523804  0.00000000  0.00000000       0.048
   0.16261902  0.16261902  0.00000000       0.096
   0.32523804  0.16261902  0.00000000       0.192
   0.32523804  0.32523804  0.00000000       0.096
   0.16261902  0.16261902  0.16261902       0.064
   0.32523804  0.16261902  0.16261902       0.192
   0.32523804  0.32523804  0.16261902       0.192
   0.32523804  0.32523804  0.32523804       0.064
 
 k-points in reciprocal lattice and weights: Automatic mesh                          
   0.00000000  0.00000000  0.00000000       0.008
   0.20000000  0.00000000  0.00000000       0.048
   0.40000000  0.00000000  0.00000000       0.048
   0.20000000  0.20000000  0.00000000       0.096
   0.40000000  0.20000000  0.00000000       0.192
   0.40000000  0.40000000  0.00000000       0.096
   0.20000000  0.20000000  0.20000000       0.064
   0.40000000  0.20000000  0.20000000       0.192
   0.40000000  0.40000000  0.20000000       0.192
   0.40000000  0.40000000  0.40000000       0.064
 
 position of ions in fractional coordinates (direct lattice) 
   0.00000000  0.00000000  0.00000000
   0.50000000  0.50000000  0.00000000
   0.50000000  0.00000000  0.50000000
   0.00000000  0.50000000  0.50000000
   0.25000000  0.25000000  0.25000000
   0.75000000  0.25000000  0.75000000
   0.75000000  0.75000000  0.25000000
   0.25000000  0.75000000  0.75000000
 
 position of ions in cartesian coordinates  (Angst):
   0.00000000  0.00000000  0.00000000
   2.76720399  2.76720399  0.00000000
   2.76720399  0.00000000  2.76720399
   0.00000000  2.76720399  2.76720399
   1.38360199  1.38360199  1.38360199
   4.15080598  1.38360199  4.15080598
   4.15080598  4.15080598  1.38360199
   1.38360199  4.15080598  4.15080598
 


--------------------------------------------------------------------------------------------------------


 k-point     1 :   0.0000 0.0000 0.0000  plane waves:    4337
 k-point     2 :   0.2000 0.0000 0.0000  plane waves:    4296
 k-point     3 :   0.4000 0.0000 0.0000  plane waves:    4284
 k-point     4 :   0.2000 0.2000 0.0000  plane waves:    4296
 k-point     5 :   0.4000 0.2000 0.0000  plane waves:    4300
 k-point     6 :   0.4000 0.4000 0.0000  plane waves:    4300
 k-point     7 :   0.2000 0.2000 0.2000  plane waves:    4287
 k-point     8 :   0.4000 0.2000 0.2000  plane waves:    4305
 k-point     9 :   0.4000 0.4000 0.2000  plane waves:    4303
 k-point    10 :   0.4000 0.4000 0.4000  plane waves:    4323

 maximum and minimum number of plane-waves per node :      4337     4284

 maximum number of plane-waves:      4337
 maximum index in each direction: 
   IXMAX=   10   IYMAX=   10   IZMAX=   10
   IXMIN=  -10   IYMIN=  -10   IZMIN=  -10


 serial   3D FFT for wavefunctions
 parallel 3D FFT for charge:
    minimum data exchange during FFTs selected (reduces bandwidth)


 total amount of memory used by VASP MPI-rank0    45631. kBytes
=======================================================================

   base      :      30000. kBytes
   nonl-proj :       9591. kBytes
   fftplans  :       1096. kBytes
   grid      :       2745. kBytes
   one-center:         64. kBytes
   wavefun   :       2135. kBytes
 
     INWAV:  cpu time      0.0000: real time      0.0001
 Broyden mixing: mesh for mixing (old mesh)
   NGX = 21   NGY = 21   NGZ = 21
  (NGX  = 60   NGY  = 60   NGZ  = 60)
  gives a total of   9261 points

 initial charge density was supplied:
 charge density of overlapping atoms calculated
 number of electron      32.0000000 magnetization 
 keeping initial charge density in first step


--------------------------------------------------------------------------------------------------------


 Maximum index for augmentation-charges         1384 (set IRDMAX)


--------------------------------------------------------------------------------------------------------


 First call to EWALD:  gamma=   0.320
 Maximum number of real-space cells 3x 3x 3
 Maximum number of reciprocal cells 3x 3x 3

    FEWALD:  cpu time      0.0009: real time      0.0009


--------------------------------------- Ionic step        1  -------------------------------------------




--------------------------------------- Iteration      1(   1)  ---------------------------------------


    POTLOK:  cpu time      0.0128: real time      0.0132
    SETDIJ:  cpu time      0.0020: real time      0.0020
     EDDAV:  cpu time      0.2184: real time      0.2322
 BZINTS: Fermi energy:   10.561868;   32.000000 electrons
         Band energy: 0.650965E+02;  BLOECHL correction:   -0.179819
       DOS:  cpu time      0.0006: real time      0.0006
    --------------------------------------------
      LOOP:  cpu time      0.2338: real time      0.2480

 eigenvalue-minimisations  :   480
 total energy-change (2. order) : 0.1175870E+03  (-0.1186078E+04)
 number of electron      32.0000000 magnetization 
 augmentation part       32.0000000 magnetization 

 Free energy of the ion-electron system (eV)
  ---------------------------------------------------
  alpha Z        PSCENC =        80.72254942
  Ewald energy   TEWEN  =      -936.37716530
  -Hartree energ DENC   =       -65.41512297
  -exchange      EXHF   =         0.00000000
  -V(xc)+E(xc)   XCENC  =      -123.18769602
  PAW double counting   =       836.52070738     -655.99241954
  entropy T*S    EENTRO =         0.00000000
  eigenvalues    EBANDS =        65.09647908
  atomic energy  EATOM  =       916.21963040
  Solvation  Ediel_sol  =         0.00000000
  ---------------------------------------------------
  free energy    TOTEN  =       117.58696244 eV

  energy without entropy =      117.58696244  energy(sigma->0) =      117.58696244


--------------------------------------------------------------------------------------------------------




--------------------------------------- Iteration      1(   2)  ---------------------------------------


     EDDAV:  cpu time      0.2528: real time      0.2685
 BZINTS: Fermi energy:    3.629326;   32.000000 electrons
         Band energy:-0.774464E+02;  BLOECHL correction:    0.000000
       DOS:  cpu time      0.0003: real time      0.0003
    --------------------------------------------
      LOOP:  cpu time      0.2532: real time      0.2689

 eigenvalue-minimisations  :   648
 total energy-change (2. order) :-0.1425428E+03  (-0.1346647E+03)
 number of electron      32.0000000 magnetization 
 augmentation part       32.0000000 magnetization 

 Free energy of the ion-electron system (eV)
  ---------------------------------------------------
  alpha Z        PSCENC =        80.72254942
  Ewald energy   TEWEN  =      -936.37716530
  -Hartree energ DENC   =       -65.41512297
  -exchange      EXHF   =         0.00000000
  -V(xc)+E(xc)   XCENC  =      -123.18769602
  PAW double counting   =       836.52070738     -655.99241954
  entropy T*S    EENTRO =         0.00000000
  eigenvalues    EBANDS =       -77.44635189
  atomic energy  EATOM  =       916.21963040
  Solvation  Ediel_sol  =         0.00000000
  ---------------------------------------------------
  free energy    TOTEN  =       -24.95586853 eV

  energy without entropy =      -24.95586853  energy(sigma->0) =      -24.95586853


--------------------------------------------------------------------------------------------------------




--------------------------------------- Iteration      1(   3)  ---------------------------------------


     EDDAV:  cpu time      0.2465: real time      0.2622
 BZINTS: Fermi energy:    2.773507;   32.000000 electrons
         Band energy:-0.857330E+02;  BLOECHL correction:    0.000000
       DOS:  cpu time      0.0003: real time      0.0003
    --------------------------------------------
      LOOP:  cpu time      0.2469: real time      0.2625

 eigenvalue-minimisations  :   608
 total energy-change (2. order) :-0.8286634E+01  (-0.8227290E+01)
 number of electron      32.0000000 magnetization 
 augmentation part       32.0000000 magnetization 

 Free energy of the ion-electron system (eV)
  ---------------------------------------------------
  alpha Z        PSCENC =        80.72254942
  Ewald energy   TEWEN  =      -936.37716530
  -Hartree energ DENC   =       -65.41512297
  -exchange      EXHF   =         0.00000000
  -V(xc)+E(xc)   XCENC  =      -123.18769602
  PAW double counting   =       836.52070738     -655.99241954
  entropy T*S    EENTRO =         0.00000000
  eigenvalues    EBANDS =       -85.73298561
  atomic energy  EATOM  =       916.21963040
  Solvation  Ediel_sol  =         0.00000000
  ---------------------------------------------------
  free energy    TOTEN  =       -33.24250225 eV

  energy without entropy =      -33.24250225  energy(sigma->0) =      -33.24250225


--------------------------------------------------------------------------------------------------------




--------------------------------------- Iteration      1(   4)  ---------------------------------------


     EDDAV:  cpu time      0.2365: real time      0.2507
 BZINTS: Fermi energy:    2.738800;   32.000000 electrons
         Band energy:-0.858336E+02;  BLOECHL correction:    0.000000
       DOS:  cpu time      0.0003: real time      0.0003
    --------------------------------------------
      LOOP:  cpu time      0.2368: real time      0.2510

 eigenvalue-minimisations  :   592
 total energy-change (2. order) :-0.1006396E+00  (-0.1005353E+00)
 number of electron      32.0000000 magnetization 
 augmentation part       32.0000000 magnetization 

 Free energy of the ion-electron system (eV)
  ---------------------------------------------------
  alpha Z        PSCENC =        80.72254942
  Ewald energy   TEWEN  =      -936.37716530
  -Hartree energ DENC   =       -65.41512297
  -exchange      EXHF   =         0.00000000
  -V(xc)+E(xc)   XCENC  =      -123.18769602
  PAW double counting   =       836.52070738     -655.99241954
  entropy T*S    EENTRO =         0.00000000
  eigenvalues    EBANDS =       -85.83362526
  atomic energy  EATOM  =       916.21963040
  Solvation  Ediel_sol  =         0.00000000
  ---------------------------------------------------
  free energy    TOTEN  =       -33.34314190 eV

  energy without entropy =      -33.34314190  energy(sigma->0) =      -33.34314190


--------------------------------------------------------------------------------------------------------




--------------------------------------- Iteration      1(   5)  ---------------------------------------


     EDDAV:  cpu time      0.2356: real time      0.2498
 BZINTS: Fermi energy:    2.719602;   32.000000 electrons
         Band energy:-0.858351E+02;  BLOECHL correction:    0.000000
       DOS:  cpu time      0.0003: real time      0.0003
    CHARGE:  cpu time      0.0115: real time      0.0117
    MIXING:  cpu time      0.0005: real time      0.0005
    --------------------------------------------
      LOOP:  cpu time      0.2480: real time      0.2624

 eigenvalue-minimisations  :   584
 total energy-change (2. order) :-0.1483066E-02  (-0.1482813E-02)
 number of electron      32.0000001 magnetization 
 augmentation part       -5.2512715 magnetization 

 Broyden mixing:
  rms(total) = 0.84511E+00    rms(broyden)= 0.84511E+00
  rms(prec ) = 0.11938E+01
  weight for this iteration     100.00

 Free energy of the ion-electron system (eV)
  ---------------------------------------------------
  alpha Z        PSCENC =        80.72254942
  Ewald energy   TEWEN  =      -936.37716530
  -Hartree energ DENC   =       -65.41512297
  -exchange      EXHF   =         0.00000000
  -V(xc)+E(xc)   XCENC  =      -123.18769602
  PAW double counting   =       836.52070738     -655.99241954
  entropy T*S    EENTRO =         0.00000000
  eigenvalues    EBANDS =       -85.83510832
  atomic energy  EATOM  =       916.21963040
  Solvation  Ediel_sol  =         0.00000000
  ---------------------------------------------------
  free energy    TOTEN  =       -33.34462497 eV

  energy without entropy =      -33.34462497  energy(sigma->0) =      -33.34462497


--------------------------------------------------------------------------------------------------------




--------------------------------------- Iteration      1(   6)  ---------------------------------------


    POTLOK:  cpu time      0.0120: real time      0.0125
    SETDIJ:  cpu time      0.0019: real time      0.0019
     EDDAV:  cpu time      0.2335: real time      0.2475
 BZINTS: Fermi energy:    3.063515;   32.000000 electrons
         Band energy:-0.787435E+02;  BLOECHL correction:    0.000000
       DOS:  cpu time      0.0003: real time      0.0003
    CHARGE:  cpu time      0.0115: real time      0.0118
    MIXING:  cpu time      0.0006: real time      0.0006
    --------------------------------------------
      LOOP:  cpu time      0.2598: real time      0.2745

 eigenvalue-minimisations  :   576
 total energy-change (2. order) : 0.6389104E+00  (-0.6812951E-01)
 number of electron      32.0000002 magnetization 
 augmentation part       -5.2209524 magnetization 

 Broyden mixing:
  rms(total) = 0.49919E+00    rms(broyden)= 0.49919E+00
  rms(prec ) = 0.66365E+00
  weight for this iteration     100.00

 eigenvalues of (default mixing * dielectric matrix)
  average eigenvalue GAMMA=   2.3358
  2.3358

 Free energy of the ion-electron system (eV)
  ---------------------------------------------------
  alpha Z        PSCENC =        80.72254942
  Ewald energy   TEWEN  =      -936.37716530
  -Hartree energ DENC   =       -72.14581297
  -exchange      EXHF   =         0.00000000
  -V(xc)+E(xc)   XCENC  =      -122.02931889
  PAW double counting   =      1284.50745976    -1104.85959622
  entropy T*S    EENTRO =         0.00000000
  eigenvalues    EBANDS =       -78.74346074
  atomic energy  EATOM  =       916.21963040
  Solvation  Ediel_sol  =         0.00000000
  ---------------------------------------------------
  free energy    TOTEN  =       -32.70571455 eV

  energy without entropy =      -32.70571455  energy(sigma->0) =      -32.70571455


--------------------------------------------------------------------------------------------------------




--------------------------------------- Iteration      1(   7)  ---------------------------------------


    POTLOK:  cpu time      0.0121: real time      0.0127
    SETDIJ:  cpu time      0.0017: real time      0.0017
     EDDAV:  cpu time      0.2382: real time      0.2526
 BZINTS: Fermi energy:    3.295685;   32.000000 electrons
         Band energy:-0.717315E+02;  BLOECHL correction:    0.000000
       DOS:  cpu time      0.0003: real time      0.0003
    CHARGE:  cpu time      0.0115: real time      0.0118
    MIXING:  cpu time      0.0006: real time      0.0006
    --------------------------------------------
      LOOP:  cpu time      0.2645: real time      0.2797

 eigenvalue-minimisations  :   600
 total energy-change (2. order) : 0.1689472E+00  (-0.5315981E-01)
 number of electron      32.0000002 magnetization 
 augmentation part       -5.1866630 magnetization 

 Broyden mixing:
  rms(total) = 0.10296E+00    rms(broyden)= 0.10296E+00
  rms(prec ) = 0.14617E+00
  weight for this iteration     100.00

 eigenvalues of (default mixing * dielectric matrix)
  average eigenvalue GAMMA=   2.0423
  1.7510  2.3335

 Free energy of the ion-electron system (eV)
  ---------------------------------------------------
  alpha Z        PSCENC =        80.72254942
  Ewald energy   TEWEN  =      -936.37716530
  -Hartree energ DENC   =       -79.46511193
  -exchange      EXHF   =         0.00000000
  -V(xc)+E(xc)   XCENC  =      -120.57795690
  PAW double counting   =      2076.53524944    -1897.86242676
  entropy T*S    EENTRO =         0.00000000
  eigenvalues    EBANDS =       -71.73153570
  atomic energy  EATOM  =       916.21963040
  Solvation  Ediel_sol  =         0.00000000
  ---------------------------------------------------
  free energy    TOTEN  =       -32.53676733 eV

  energy without entropy =      -32.53676733  energy(sigma->0) =      -32.53676733


--------------------------------------------------------------------------------------------------------




--------------------------------------- Iteration      1(   8)  ---------------------------------------


    POTLOK:  cpu time      0.0122: real time      0.0127
    SETDIJ:  cpu time      0.0017: real time      0.0017
     EDDAV:  cpu time      0.2245: real time      0.2386
 BZINTS: Fermi energy:    3.312456;   32.000000 electrons
         Band energy:-0.716835E+02;  BLOECHL correction:    0.000000
       DOS:  cpu time      0.0003: real time      0.0003
    CHARGE:  cpu time      0.0116: real time      0.0118
    MIXING:  cpu time      0.0007: real time      0.0007
    --------------------------------------------
      LOOP:  cpu time      0.2509: real time      0.2659

 eigenvalue-minimisations  :   536
 total energy-change (2. order) : 0.3131997E-02  (-0.4478350E-02)
 number of electron      32.0000002 magnetization 
 augmentation part       -5.1887904 magnetization 

 Broyden mixing:
  rms(total) = 0.20149E-01    rms(broyden)= 0.20149E-01
  rms(prec ) = 0.27689E-01
  weight for this iteration     100.00

 eigenvalues of (default mixing * dielectric matrix)
  average eigenvalue GAMMA=   1.9606
  2.5655  1.6582  1.6582

 Free energy of the ion-electron system (eV)
  ---------------------------------------------------
  alpha Z        PSCENC =        80.72254942
  Ewald energy   TEWEN  =      -936.37716530
  -Hartree energ DENC   =       -79.66542546
  -exchange      EXHF   =         0.00000000
  -V(xc)+E(xc)   XCENC  =      -120.32382833
  PAW double counting   =      2242.94288473    -2064.36881425
  entropy T*S    EENTRO =         0.00000000
  eigenvalues    EBANDS =       -71.68346654
  atomic energy  EATOM  =       916.21963040
  Solvation  Ediel_sol  =         0.00000000
  ---------------------------------------------------
  free energy    TOTEN  =       -32.53363534 eV

  energy without entropy =      -32.53363534  energy(sigma->0) =      -32.53363534


--------------------------------------------------------------------------------------------------------




--------------------------------------- Iteration      1(   9)  ---------------------------------------


    POTLOK:  cpu time      0.0122: real time      0.0128
    SETDIJ:  cpu time      0.0017: real time      0.0017
     EDDAV:  cpu time      0.2432: real time      0.2588
 BZINTS: Fermi energy:    3.322492;   32.000000 electrons
         Band energy:-0.713534E+02;  BLOECHL correction:    0.000000
       DOS:  cpu time      0.0003: real time      0.0003
    CHARGE:  cpu time      0.0116: real time      0.0118
    MIXING:  cpu time      0.0006: real time      0.0006
    --------------------------------------------
      LOOP:  cpu time      0.2697: real time      0.2861

 eigenvalue-minimisations  :   600
 total energy-change (2. order) :-0.9523956E-03  (-0.2442739E-03)
 number of electron      32.0000002 magnetization 
 augmentation part       -5.1897548 magnetization 

 Broyden mixing:
  rms(total) = 0.79443E-02    rms(broyden)= 0.79443E-02
  rms(prec ) = 0.97633E-02
  weight for this iteration     100.00

 eigenvalues of (default mixing * dielectric matrix)
  average eigenvalue GAMMA=   2.1205
  2.8004  2.8004  1.4405  1.4405

 Free energy of the ion-electron system (eV)
  ---------------------------------------------------
  alpha Z        PSCENC =        80.72254942
  Ewald energy   TEWEN  =      -936.37716530
  -Hartree energ DENC   =       -80.05644322
  -exchange      EXHF   =         0.00000000
  -V(xc)+E(xc)   XCENC  =      -120.25297434
  PAW double counting   =      2252.60194434    -2074.03873638
  entropy T*S    EENTRO =         0.00000000
  eigenvalues    EBANDS =       -71.35339263
  atomic energy  EATOM  =       916.21963040
  Solvation  Ediel_sol  =         0.00000000
  ---------------------------------------------------
  free energy    TOTEN  =       -32.53458773 eV

  energy without entropy =      -32.53458773  energy(sigma->0) =      -32.53458773


--------------------------------------------------------------------------------------------------------




--------------------------------------- Iteration      1(  10)  ---------------------------------------


    POTLOK:  cpu time      0.0121: real time      0.0127
    SETDIJ:  cpu time      0.0017: real time      0.0017
     EDDAV:  cpu time      0.2154: real time      0.2289
 BZINTS: Fermi energy:    3.324380;   32.000000 electrons
         Band energy:-0.713416E+02;  BLOECHL correction:    0.000000
       DOS:  cpu time      0.0003: real time      0.0003
    CHARGE:  cpu time      0.0118: real time      0.0120
    MIXING:  cpu time      0.0006: real time      0.0006
    --------------------------------------------
      LOOP:  cpu time      0.2420: real time      0.2563

 eigenvalue-minimisations  :   496
 total energy-change (2. order) :-0.1873205E-03  (-0.2149204E-04)
 number of electron      32.0000002 magnetization 
 augmentation part       -5.1899084 magnetization 

 Broyden mixing:
  rms(total) = 0.17308E-02    rms(broyden)= 0.17308E-02
  rms(prec ) = 0.31446E-02
  weight for this iteration     100.00

 eigenvalues of (default mixing * dielectric matrix)
  average eigenvalue GAMMA=   1.9350
  3.0122  2.4637  1.0250  1.5870  1.5870

 Free energy of the ion-electron system (eV)
  ---------------------------------------------------
  alpha Z        PSCENC =        80.72254942
  Ewald energy   TEWEN  =      -936.37716530
  -Hartree energ DENC   =       -80.08667517
  -exchange      EXHF   =         0.00000000
  -V(xc)+E(xc)   XCENC  =      -120.25095530
  PAW double counting   =      2236.53962387    -2057.96016759
  entropy T*S    EENTRO =         0.00000000
  eigenvalues    EBANDS =       -71.34161539
  atomic energy  EATOM  =       916.21963040
  Solvation  Ediel_sol  =         0.00000000
  ---------------------------------------------------
  free energy    TOTEN  =       -32.53477505 eV

  energy without entropy =      -32.53477505  energy(sigma->0) =      -32.53477505


--------------------------------------------------------------------------------------------------------




--------------------------------------- Iteration      1(  11)  ---------------------------------------


    POTLOK:  cpu time      0.0124: real time      0.0130
    SETDIJ:  cpu time      0.0017: real time      0.0017
     EDDAV:  cpu time      0.1945: real time      0.2075
 BZINTS: Fermi energy:    3.325781;   32.000000 electrons
         Band energy:-0.713265E+02;  BLOECHL correction:    0.000000
       DOS:  cpu time      0.0003: real time      0.0003
    --------------------------------------------
      LOOP:  cpu time      0.2090: real time      0.2225

 eigenvalue-minimisations  :   400
 total energy-change (2. order) :-0.3333593E-04  (-0.6967734E-05)
 number of electron      32.0000002 magnetization 
 augmentation part       -5.1899084 magnetization 

 Free energy of the ion-electron system (eV)
  ---------------------------------------------------
  alpha Z        PSCENC =        80.72254942
  Ewald energy   TEWEN  =      -936.37716530
  -Hartree energ DENC   =       -80.10800350
  -exchange      EXHF   =         0.00000000
  -V(xc)+E(xc)   XCENC  =      -120.24525819
  PAW double counting   =      2237.32189466    -2058.74193042
  entropy T*S    EENTRO =         0.00000000
  eigenvalues    EBANDS =       -71.32652546
  atomic energy  EATOM  =       916.21963040
  Solvation  Ediel_sol  =         0.00000000
  ---------------------------------------------------
  free energy    TOTEN  =       -32.53480839 eV

  energy without entropy =      -32.53480839  energy(sigma->0) =      -32.53480839


--------------------------------------------------------------------------------------------------------




 average (electrostatic) potential at core
  the test charge radii are     1.0621  1.2767
  (the norm of the test charge is              1.0000)
       1 -50.9940       2 -50.9940       3 -50.9940       4 -50.9940       5 -14.1220
       6 -14.1220       7 -14.1220       8 -14.1220
 
 
 
 E-fermi :   3.3258     XC(G=0):  -9.4502     alpha+bet : -9.1250

 val. band max:        3.2959820131   @ k =   0.0000   0.0000   0.0000
 cond. band min:       4.3752715201   @ k =   0.0000   0.0000   0.0000
 fundamental gap:      1.0792895070
 Fermi energy:         3.3257808028

 k-point     1 :       0.0000    0.0000    0.0000
  band No.  band energies     occupation 
      1      -9.8875      2.00000
      2      -7.2644      2.00000
      3      -7.2644      2.00000
      4      -7.2644      2.00000
      5      -3.7965      2.00000
      6      -3.7965      2.00000
      7      -3.7965      2.00000
      8       0.3978      2.00000
      9       0.3978      2.00000
     10       0.3978      2.00000
     11       0.3978      2.00000
     12       0.3978      2.00000
     13       0.3978      2.00000
     14       3.2960      2.00000
     15       3.2960      2.00000
     16       3.2960      2.00000
     17       4.3753      0.00000
     18       4.6359      0.00000
     19       4.6359      0.00000
     20       4.6359      0.00000
     21       4.9342      0.00000
     22       4.9342      0.00000
     23       4.9342      0.00000
     24       7.0790      0.00000

 k-point     2 :       0.2000    0.0000    0.0000
  band No.  band energies     occupation 
      1      -9.7316      2.00000
      2      -7.7301      2.00000
      3      -7.2454      2.00000
      4      -7.2454      2.00000
      5      -3.7239      2.00000
      6      -3.7239      2.00000
      7      -3.1204      2.00000
      8       0.0270      2.00000
      9       0.0270      2.00000
     10       0.1004      2.00000
     11       0.1004      2.00000
     12       0.5727      2.00000
     13       0.5727      2.00000
     14       1.8487      2.00000
     15       2.7888      2.00000
     16       2.7888      2.00000
     17       4.6368      0.00000
     18       5.3810      0.00000
     19       5.4254      0.00000
     20       5.4254      0.00000
     21       5.7354      0.00000
     22       5.7354      0.00000
     23       5.7396      0.00000
     24       6.5881      0.00000

 k-point     3 :       0.4000    0.0000    0.0000
  band No.  band energies     occupation 
      1      -9.2745      2.00000
      2      -8.5605      2.00000
      3      -7.2139      2.00000
      4      -7.2139      2.00000
      5      -3.5899      2.00000
      6      -3.5899      2.00000
      7      -1.6722      2.00000
      8      -0.4843      2.00000
      9      -0.4843      2.00000
     10      -0.2852      2.00000
     11      -0.2852      2.00000
     12       0.0402      2.00000
     13       1.0833      2.00000
     14       1.0833      2.00000
     15       1.8757      2.00000
     16       1.8757      2.00000
     17       4.9570      0.00000
     18       5.6216      0.00000
     19       6.3024      0.00000
     20       6.9181      0.00000
     21       7.2569      0.00000
     22       7.2569      0.00000
     23       7.5437      0.00000
     24       7.5437      0.00000

 k-point     4 :       0.2000    0.2000    0.0000
  band No.  band energies     occupation 
      1      -9.5792      2.00000
      2      -7.6667      2.00000
      3      -7.6667      2.00000
      4      -7.2683      2.00000
      5      -3.6530      2.00000
      6      -3.1607      2.00000
      7      -3.1607      2.00000
      8      -0.6779      2.00000
      9       0.1129      2.00000
     10       0.1129      2.00000
     11       0.4451      2.00000
     12       0.4451      2.00000
     13       0.6897      2.00000
     14       0.8137      2.00000
     15       2.2549      2.00000
     16       3.1127      2.00000
     17       5.0660      0.00000
     18       5.4834      0.00000
     19       5.4834      0.00000
     20       5.7463      0.00000
     21       6.0855      0.00000
     22       6.0855      0.00000
     23       7.1490      0.00000
     24       7.3043      0.00000

 k-point     5 :       0.4000    0.2000    0.0000
  band No.  band energies     occupation 
      1      -9.1346      2.00000
      2      -8.4473      2.00000
      3      -7.5125      2.00000
      4      -7.3562      2.00000
      5      -3.4821      2.00000
      6      -3.2925      2.00000
      7      -1.9686      2.00000
      8      -0.9455      2.00000
      9      -0.6054      2.00000
     10      -0.6014      2.00000
     11       0.3967      2.00000
     12       0.5597      2.00000
     13       0.6285      2.00000
     14       1.2447      2.00000
     15       1.3280      2.00000
     16       2.3245      2.00000
     17       5.8300      0.00000
     18       6.1278      0.00000
     19       6.3754      0.00000
     20       6.8102      0.00000
     21       6.8208      0.00000
     22       7.3085      0.00000
     23       7.7076      0.00000
     24       8.5113      0.00000

 k-point     6 :       0.4000    0.4000    0.0000
  band No.  band energies     occupation 
      1      -8.7327      2.00000
      2      -8.1358      2.00000
      3      -8.1358      2.00000
      4      -7.7184      2.00000
      5      -3.1401      2.00000
      6      -2.5806      2.00000
      7      -2.5806      2.00000
      8      -1.6411      2.00000
      9      -0.8780      2.00000
     10      -0.2961      2.00000
     11      -0.2961      2.00000
     12       0.4109      2.00000
     13       1.4773      2.00000
     14       1.5429      2.00000
     15       1.5429      2.00000
     16       2.4497      2.00000
     17       5.8325      0.00000
     18       6.3101      0.00000
     19       6.8300      0.00000
     20       6.8300      0.00000
     21       7.8538      0.00000
     22       7.8538      0.00000
     23       8.3770      0.00000
     24       8.4190      0.00000

 k-point     7 :       0.2000    0.2000    0.2000
  band No.  band energies     occupation 
      1      -9.4313      2.00000
      2      -7.6340      2.00000
      3      -7.6340      2.00000
      4      -7.6340      2.00000
      5      -3.2494      2.00000
      6      -3.2494      2.00000
      7      -3.2494      2.00000
      8      -0.3166      2.00000
      9      -0.3166      2.00000
     10      -0.3166      2.00000
     11      -0.0741      2.00000
     12       0.8500      2.00000
     13       0.8500      2.00000
     14       0.8500      2.00000
     15       2.7467      2.00000
     16       2.7467      2.00000
     17       5.1717      0.00000
     18       5.2583      0.00000
     19       5.2583      0.00000
     20       5.2583      0.00000
     21       7.3346      0.00000
     22       7.3346      0.00000
     23       7.3346      0.00000
     24       7.8243      0.00000

 k-point     8 :       0.4000    0.2000    0.2000
  band No.  band energies     occupation 
      1      -9.0024      2.00000
      2      -8.3497      2.00000
      3      -7.5786      2.00000
      4      -7.5786      2.00000
      5      -3.4080      2.00000
      6      -3.4080      2.00000
      7      -2.3750      2.00000
      8      -1.2973      2.00000
      9      -0.5075      2.00000
     10      -0.5075      2.00000
     11       0.6764      2.00000
     12       0.8751      2.00000
     13       0.8751      2.00000
     14       1.3122      2.00000
     15       1.9847      2.00000
     16       2.0058      2.00000
     17       5.7385      0.00000
     18       5.7469      0.00000
     19       6.2682      0.00000
     20       6.2682      0.00000
     21       7.3854      0.00000
     22       7.6475      0.00000
     23       8.2661      0.00000
     24       8.2661      0.00000

 k-point     9 :       0.4000    0.4000    0.2000
  band No.  band energies     occupation 
      1      -8.6282      2.00000
      2      -8.0933      2.00000
      3      -8.0933      2.00000
      4      -7.7896      2.00000
      5      -3.4207      2.00000
      6      -3.0353      2.00000
      7      -3.0353      2.00000
      8      -2.2937      2.00000
      9      -0.1458      2.00000
     10       0.3702      2.00000
     11       0.3702      2.00000
     12       1.2435      2.00000
     13       1.5757      2.00000
     14       1.6181      2.00000
     15       1.6181      2.00000
     16       2.3724      2.00000
     17       5.5326      0.00000
     18       5.8665      0.00000
     19       6.2247      0.00000
     20       6.2247      0.00000
     21       7.5354      0.00000
     22       7.5354      0.00000
     23       8.1060      0.00000
     24       8.1378      0.00000

 k-point    10 :       0.4000    0.4000    0.4000
  band No.  band energies     occupation 
      1      -8.3516      2.00000
      2      -8.0201      2.00000
      3      -8.0201      2.00000
      4      -8.0201      2.00000
      5      -3.5527      2.00000
      6      -3.5527      2.00000
      7      -3.5527      2.00000
      8      -3.1351      2.00000
      9       1.2526      2.00000
     10       1.2526      2.00000
     11       1.2526      2.00000
     12       1.8341      2.00000
     13       1.8341      2.00000
     14       1.8341      2.00000
     15       2.1446      2.00000
     16       2.1446      2.00000
     17       4.6108      0.00000
     18       5.3461      0.00000
     19       5.3461      0.00000
     20       5.3461      0.00000
     21       7.6943      0.00000
     22       7.6943      0.00000
     23       7.6943      0.00000
     24       8.0264      0.00000


--------------------------------------------------------------------------------------------------------


 soft charge-density along one line, spin component           1
         0         1         2         3         4         5         6         7         8         9
 total charge-density along one line
 
 pseudopotential strength for first ion, spin component:           1
 23.532  28.127  -0.000  -0.000   0.000   0.000   0.000  -0.000
 28.127  33.626  -0.000  -0.000   0.000   0.000   0.000  -0.000
 -0.000  -0.000   5.535   0.000   0.000 -10.960  -0.000  -0.000
 -0.000  -0.000   0.000   5.535   0.000  -0.000 -10.960  -0.000
  0.000   0.000   0.000   0.000   5.535  -0.000  -0.000 -10.960
  0.000   0.000 -10.960  -0.000  -0.000  22.271   0.000   0.000
  0.000   0.000  -0.000 -10.960  -0.000   0.000  22.271   0.000
 -0.000  -0.000  -0.000  -0.000 -10.960   0.000   0.000  22.271
  0.000   0.000   0.000   0.002  -0.000  -0.000  -0.003   0.000
  0.000   0.000  -0.000  -0.000   0.002   0.000   0.000  -0.003
  0.000   0.000   0.000  -0.000  -0.000  -0.000   0.000   0.000
  0.000   0.000   0.002   0.000  -0.000  -0.003  -0.000   0.000
 -0.000  -0.000   0.000  -0.000   0.000  -0.000   0.000  -0.000
 total augmentation occupancy for first ion, spin component:           1
  5.713  -2.535   0.000  -0.000  -0.000  -0.000  -0.000   0.000   0.000  -0.000  -0.000  -0.000  -0.000
 -2.535   1.478   0.000   0.000   0.000   0.000   0.000  -0.000  -0.000   0.000  -0.000  -0.000   0.000
 -0.000   0.000   1.531   0.000   0.000   0.063  -0.000  -0.000   0.000  -0.000   0.000   0.107   0.000
 -0.000   0.000   0.000   1.531  -0.000  -0.000   0.063   0.000   0.107   0.000   0.000  -0.000  -0.000
 -0.000   0.000   0.000   0.000   1.531   0.000   0.000   0.063  -0.000   0.107  -0.000  -0.000  -0.000
 -0.000   0.000   0.063  -0.000  -0.000   0.003   0.000  -0.000  -0.000   0.000  -0.000   0.005   0.000
 -0.000   0.000   0.000   0.063   0.000  -0.000   0.003  -0.000   0.005   0.000  -0.000   0.000   0.000
  0.000  -0.000   0.000   0.000   0.063   0.000   0.000   0.003  -0.000   0.005  -0.000   0.000  -0.000
  0.000   0.000   0.000   0.107   0.000   0.000   0.005   0.000   0.015   0.000  -0.000   0.000   0.000
  0.000   0.000   0.000  -0.000   0.107   0.000  -0.000   0.005  -0.000   0.015   0.000   0.000  -0.000
 -0.000   0.000   0.000   0.000   0.000  -0.000   0.000   0.000   0.000  -0.000   0.005  -0.000   0.000
 -0.000   0.000   0.107   0.000   0.000   0.005  -0.000   0.000  -0.000   0.000  -0.000   0.015  -0.000
 -0.000   0.000   0.000  -0.000  -0.000   0.000   0.000   0.000   0.000  -0.000   0.000   0.000   0.005


------------------------ aborting loop because EDIFF is reached ----------------------------------------


    CHARGE:  cpu time      0.0119: real time      0.0122
    FORLOC:  cpu time      0.0010: real time      0.0010
    FORNL :  cpu time      0.0508: real time      0.0511
    STRESS:  cpu time      0.2913: real time      0.2925
    FORCOR:  cpu time      0.0122: real time      0.0125
    FORHAR:  cpu time      0.0029: real time      0.0030
    MIXING:  cpu time      0.0005: real time      0.0005
    OFIELD:  cpu time      0.0000: real time      0.0000

  FORCE on cell =-STRESS in cart. coord.  units (eV):
  Direction    XX          YY          ZZ          XY          YZ          ZX
  --------------------------------------------------------------------------------------
  Alpha Z    80.72255    80.72255    80.72255
  Ewald    -312.12621  -312.12621  -312.12621    -0.00000     0.00000     0.00000
  Hartree    26.71103    26.71103    26.71103    -0.00000    -0.00000    -0.00000
  E(xc)    -122.56323  -122.56323  -122.56323    -0.00000     0.00000    -0.00000
  Local    -118.68278  -118.68278  -118.68278    -0.00000     0.00000     0.00000
  n-local   182.69855   184.73588   181.92328    -2.00367    -1.17524    -0.96108
  augment     7.94810     7.94810     7.94810     0.00000     0.00000     0.00000
  Kinetic   258.86519   270.05159   267.53798    -4.84633    -4.60424    -3.06568
  Fock        0.00000     0.00000     0.00000     0.00000     0.00000     0.00000
  -------------------------------------------------------------------------------------
  Total      10.61361    10.61361    10.61361     0.00000     0.00000     0.00000
  in kB     100.31371   100.31371   100.31371     0.00000     0.00000     0.00000
  external pressure =      100.31 kB  Pullay stress =        0.00 kB


 VOLUME and BASIS-vectors are now :
 -----------------------------------------------------------------------------
  energy-cutoff  :      500.00
  volume of cell :      169.52
      direct lattice vectors                 reciprocal lattice vectors
     5.534407977  0.000000000  0.000000000     0.180687800  0.000000000  0.000000000
     0.000000000  5.534407977  0.000000000     0.000000000  0.180687800  0.000000000
     0.000000000  0.000000000  5.534407977     0.000000000  0.000000000  0.180687800

  length of vectors
     5.534407977  5.534407977  5.534407977     0.180687800  0.180687800  0.180687800


 FORCES acting on ions
    electron-ion (+dipol)            ewald-force                    non-local-force                 convergence-correction
 -----------------------------------------------------------------------------------------------
   0.219E-13 -.326E-14 -.141E-14   -.355E-14 -.107E-13 -.355E-14   -.192E-16 -.613E-17 -.813E-17   -.155E-13 0.524E-14 -.717E-14
   0.395E-13 0.297E-12 -.239E-12   -.355E-14 -.142E-13 -.355E-14   0.189E-16 -.690E-17 -.230E-16   0.106E-13 -.109E-13 -.674E-14
   0.419E-13 -.591E-15 -.261E-13   -.355E-14 -.107E-13 -.355E-14   0.516E-17 -.645E-17 0.196E-16   0.122E-13 0.551E-14 -.515E-15
   0.223E-13 0.215E-13 0.217E-13   -.355E-14 -.142E-13 -.355E-14   0.107E-16 0.344E-16 -.169E-16   -.139E-13 -.113E-13 -.636E-15
   -.245E-13 -.516E-13 0.177E-13   0.387E-14 0.104E-13 0.679E-14   0.152E-18 -.571E-18 -.195E-17   -.109E-14 0.175E-14 0.758E-16
   -.201E-13 0.130E-12 0.160E-12   0.385E-14 0.105E-13 0.370E-14   -.159E-17 -.349E-18 -.368E-17   0.143E-14 0.887E-15 0.479E-15
   -.176E-13 0.233E-13 0.242E-12   0.363E-14 0.109E-13 0.690E-14   -.404E-17 0.190E-18 -.124E-17   0.133E-14 -.229E-15 0.236E-16
   -.214E-13 -.831E-14 0.706E-14   0.290E-14 0.109E-13 0.381E-14   -.672E-17 0.345E-17 -.274E-18   -.116E-14 -.830E-15 0.772E-15
 -----------------------------------------------------------------------------------------------
   0.420E-13 0.407E-12 0.182E-12   0.410E-16 -.711E-14 0.700E-14   0.330E-17 0.176E-16 -.356E-16   -.616E-14 -.983E-14 -.137E-13
 
 
 POSITION                                       TOTAL-FORCE (eV/Angst)
 -----------------------------------------------------------------------------------
      0.00000      0.00000      0.00000         0.000000      0.000000     -0.000000
      2.76720      2.76720      0.00000        -0.000000      0.000000      0.000000
      2.76720      0.00000      2.76720         0.000000      0.000000      0.000000
      0.00000      2.76720      2.76720        -0.000000     -0.000000      0.000000
      1.38360      1.38360      1.38360        -0.000000     -0.000000     -0.000000
      4.15081      1.38360      4.15081         0.000000     -0.000000      0.000000
      4.15081      4.15081      1.38360         0.000000      0.000000     -0.000000
      1.38360      4.15081      4.15081        -0.000000      0.000000     -0.000000
 -----------------------------------------------------------------------------------
    total drift:                                0.000000      0.000000      0.000000


--------------------------------------------------------------------------------------------------------



  FREE ENERGIE OF THE ION-ELECTRON SYSTEM (eV)
  ---------------------------------------------------
  free  energy   TOTEN  =       -32.53480839 eV

  energy  without entropy=      -32.53480839  energy(sigma->0) =      -32.53480839
 


--------------------------------------------------------------------------------------------------------


    POTLOK:  cpu time      0.0139: real time      0.0143


--------------------------------------------------------------------------------------------------------


 writing wavefunctions
     LOOP+:  cpu time      3.3111: real time      3.5048


--------------------------------------------------------------------------------------------------------



 plasma frequency squared (from intraband transitions) (eV^2)
  --------------------------------------------------------------------------------------
       0.000       0.000       0.000
       0.000       0.000       0.000
       0.000       0.000       0.000

 electrical conductivity sigma (Mega S m-1) (frequency dependency in vasprun.xml)
  --------------------------------------------------------------------------------------
       0.000       0.000       0.000
       0.000       0.000       0.000
       0.000       0.000       0.000

 plasma frequency squared (from interband transitions, int dw w eps(2)(w)) (eV^2)
  --------------------------------------------------------------------------------------
     201.799       0.000       0.000       0.000       0.000       0.000
       0.000       0.000     201.799       0.000       0.000       0.000
       0.000       0.000       0.000       0.000     201.799       0.000
  --------------------------------------------------------------------------------------
 sumrule: sum of plasma frequencies squared should yield (valence only):     260.291

 Anomalous Hall contribution (eV) 2/pi Imag((f_n-f_m)<u_m| d/dk_a u_n> <u_m| d/dk_b u_n>^*) 
  --------------------------------------------------------------------------------------
       0.000       0.000       0.000
       0.000       0.000       0.000
       0.000       0.000       0.000

  frequency dependent IMAGINARY DIELECTRIC FUNCTION (independent particle, no local field effects) density-density
     E(ev)      X         Y         Z        XY        YZ        ZX
  --------------------------------------------------------------------------------------------------------------
    0.000000    0.000000    0.000000    0.000000    0.000000    0.000000    0.000000
    0.022101    0.004313    0.004313    0.004313    0.000000    0.000000   -0.000000
    0.044201    0.008630    0.008630    0.008630    0.000000    0.000000   -0.000000
    0.066302    0.012955    0.012955    0.012955    0.000000    0.000000   -0.000000
    0.088403    0.017293    0.017293    0.017293    0.000000    0.000000   -0.000000
    0.110504    0.021648    0.021648    0.021648    0.000000    0.000000   -0.000000
    0.132604    0.026023    0.026023    0.026023    0.000000    0.000000   -0.000000
    0.154705    0.030425    0.030425    0.030425    0.000000    0.000000   -0.000000
    0.176806    0.034855    0.034855    0.034855    0.000000    0.000000   -0.000000
    0.198907    0.039321    0.039321    0.039321    0.000000    0.000000   -0.000000
    0.221007    0.043826    0.043826    0.043826    0.000000    0.000000   -0.000000
    0.243108    0.048375    0.048375    0.048375    0.000000    0.000000   -0.000000
    0.265209    0.052973    0.052973    0.052973    0.000000    0.000000   -0.000000
    0.287309    0.057626    0.057626    0.057626    0.000000    0.000000   -0.000000
    0.309410    0.062340    0.062340    0.062340    0.000000    0.000000   -0.000000
    0.331511    0.067119    0.067119    0.067119    0.000000    0.000000   -0.000000
    0.353612    0.071971    0.071971    0.071971    0.000000    0.000000   -0.000000
    0.375712    0.076902    0.076902    0.076902    0.000000    0.000000   -0.000000
    0.397813    0.081919    0.081919    0.081919    0.000000    0.000000   -0.000000
    0.419914    0.087028    0.087028    0.087028    0.000000    0.000000   -0.000000
    0.442014    0.092240    0.092240    0.092240    0.000000    0.000000   -0.000000
    0.464115    0.097560    0.097560    0.097560    0.000000    0.000000   -0.000000
    0.486216    0.103000    0.103000    0.103000    0.000000    0.000000   -0.000000
    0.508317    0.108568    0.108568    0.108568    0.000000    0.000000   -0.000000
    0.530417    0.114276    0.114276    0.114276    0.000000    0.000000   -0.000000
    0.552518    0.120134    0.120134    0.120134    0.000000    0.000000   -0.000000
    0.574619    0.126157    0.126157    0.126157    0.000000    0.000000   -0.000000
    0.596720    0.132357    0.132357    0.132357    0.000000    0.000000   -0.000000
    0.618820    0.138750    0.138750    0.138750    0.000000    0.000000   -0.000000
    0.640921    0.145354    0.145354    0.145354    0.000000    0.000000   -0.000000
    0.663022    0.152186    0.152186    0.152186    0.000000    0.000000   -0.000000
    0.685122    0.159269    0.159269    0.159269    0.000000    0.000000   -0.000000
    0.707223    0.166625    0.166625    0.166625    0.000000    0.000000   -0.000000
    0.729324    0.174283    0.174283    0.174283    0.000000    0.000000   -0.000000
    0.751425    0.182271    0.182271    0.182271    0.000000    0.000000   -0.000000
    0.773525    0.190626    0.190626    0.190626    0.000000    0.000000   -0.000000
    0.795626    0.199386    0.199386    0.199386    0.000000    0.000000   -0.000000
    0.817727    0.208599    0.208599    0.208599    0.000000    0.000000   -0.000000
    0.839827    0.218318    0.218318    0.218318    0.000000    0.000000   -0.000000
    0.861928    0.228608    0.228608    0.228608    0.000000    0.000000   -0.000000
    0.884029    0.239545    0.239545    0.239545    0.000000    0.000000   -0.000000
    0.906130    0.251221    0.251221    0.251221    0.000000    0.000000   -0.000000
    0.928230    0.263746    0.263746    0.263746    0.000000    0.000000   -0.000000
    0.950331    0.277259    0.277259    0.277259    0.000000    0.000000   -0.000000
    0.972432    0.291930    0.291930    0.291930    0.000000    0.000000   -0.000000
    0.994533    0.307973    0.307973    0.307973    0.000000    0.000000   -0.000000
    1.016633    0.325658    0.325658    0.325658    0.000000    0.000000   -0.000000
    1.038734    0.345323    0.345323    0.345323    0.000000    0.000000   -0.000000
    1.060835    0.367381    0.367381    0.367381    0.000000    0.000000   -0.000000
    1.082935    0.392310    0.392310    0.392310    0.000000    0.000000   -0.000000
    1.105036    0.420628    0.420628    0.420628    0.000000    0.000000   -0.000000
    1.127137    0.452838    0.452838    0.452838    0.000000    0.000000   -0.000000
    1.149238    0.489395    0.489395    0.489395    0.000000    0.000000   -0.000000
    1.171338    0.530674    0.530674    0.530674    0.000000    0.000000   -0.000000
    1.193439    0.576973    0.576973    0.576973    0.000000    0.000000   -0.000000
    1.215540    0.628522    0.628522    0.628522    0.000000    0.000000   -0.000000
    1.237641    0.685495    0.685495    0.685495    0.000000    0.000000   -0.000000
    1.259741    0.748020    0.748020    0.748020    0.000000    0.000000   -0.000000
    1.281842    0.816192    0.816192    0.816192    0.000000    0.000000   -0.000000
    1.303943    0.890076    0.890076    0.890076    0.000000    0.000000   -0.000000
    1.326043    0.969710    0.969710    0.969710    0.000000    0.000000   -0.000000
    1.348144    1.055112    1.055112    1.055112    0.000000    0.000000   -0.000000
    1.370245    1.146277    1.146277    1.146277    0.000000    0.000000   -0.000000
    1.392346    1.243173    1.243173    1.243173    0.000000    0.000000   -0.000000
    1.414446    1.345743    1.345743    1.345743    0.000000    0.000000   -0.000000
    1.436547    1.453895    1.453895    1.453895    0.000000    0.000000   -0.000000
    1.458648    1.567506    1.567506    1.567506    0.000000    0.000000   -0.000000
    1.480748    1.686414    1.686414    1.686414    0.000000    0.000000   -0.000000
    1.502849    1.810411    1.810411    1.810411    0.000000    0.000000   -0.000000
    1.524950    1.939237    1.939237    1.939237    0.000000    0.000000   -0.000000
    1.547051    2.072569    2.072569    2.072569    0.000000    0.000000   -0.000000
    1.569151    2.210002    2.210002    2.210002    0.000000    0.000000   -0.000000
    1.591252    2.351030    2.351030    2.351030    0.000000    0.000000   -0.000000
    1.613353    2.495019    2.495019    2.495019    0.000000    0.000000   -0.000000
    1.635454    2.641162    2.641162    2.641162    0.000000    0.000000   -0.000000
    1.657554    2.788425    2.788425    2.788425    0.000000    0.000000   -0.000000
    1.679655    2.935473    2.935473    2.935473    0.000000    0.000000   -0.000000
    1.701756    3.080563    3.080563    3.080563    0.000000    0.000000   -0.000000
    1.723856    3.221413    3.221413    3.221413    0.000000    0.000000   -0.000000
    1.745957    3.355045    3.355045    3.355045    0.000000    0.000000   -0.000000
    1.768058    3.477655    3.477655    3.477655    0.000000    0.000000   -0.000000
    1.790159    3.584651    3.584651    3.584651    0.000000    0.000000   -0.000000
    1.812259    3.671139    3.671139    3.671139    0.000000    0.000000   -0.000000
    1.834360    3.733243    3.733243    3.733243    0.000000    0.000000   -0.000000
    1.856461    3.770121    3.770121    3.770121    0.000000   -0.000000   -0.000000
    1.878562    3.785341    3.785341    3.785341    0.000000   -0.000000   -0.000000
    1.900662    3.785906    3.785906    3.785906    0.000000   -0.000000   -0.000000
    1.922763    3.779227    3.779227    3.779227    0.000000   -0.000000   -0.000000
    1.944864    3.770486    3.770486    3.770486    0.000000   -0.000000   -0.000000
    1.966964    3.762120    3.762120    3.762120    0.000000   -0.000000   -0.000000
    1.989065    3.754963    3.754963    3.754963    0.000000   -0.000000   -0.000000
    2.011166    3.749531    3.749531    3.749531    0.000000   -0.000000   -0.000000
    2.033267    3.746584    3.746584    3.746584    0.000000   -0.000000   -0.000000
    2.055367    3.747126    3.747126    3.747126   -0.000000   -0.000000   -0.000000
    2.077468    3.752277    3.752277    3.752277   -0.000000   -0.000000   -0.000000
    2.099569    3.763209    3.763209    3.763209   -0.000000   -0.000000   -0.000000
    2.121669    3.781145    3.781145    3.781145   -0.000000   -0.000000   -0.000000
    2.143770    3.807414    3.807414    3.807414   -0.000000   -0.000000   -0.000000
[...]
   17.282766    0.275707    0.275707    0.275707   -0.000000    0.000000   -0.000000
   17.304867    0.278031    0.278031    0.278031   -0.000000    0.000000   -0.000000
   17.326967    0.280395    0.280395    0.280395   -0.000000    0.000000   -0.000000
   17.349068    0.282783    0.282783    0.282783   -0.000000    0.000000   -0.000000
   17.371169    0.285187    0.285187    0.285187   -0.000000    0.000000   -0.000000
   17.393269    0.287598    0.287598    0.287598   -0.000000    0.000000   -0.000000
   17.415370    0.290014    0.290014    0.290014   -0.000000    0.000000   -0.000000
   17.437471    0.292432    0.292432    0.292432   -0.000000    0.000000   -0.000000
   17.459572    0.294850    0.294850    0.294850   -0.000000    0.000000   -0.000000
   17.481672    0.297266    0.297266    0.297266   -0.000000    0.000000   -0.000000
   17.503773    0.299679    0.299679    0.299679   -0.000000    0.000000   -0.000000
   17.525874    0.302087    0.302087    0.302087   -0.000000    0.000000   -0.000000
   17.547975    0.304489    0.304489    0.304489   -0.000000    0.000000   -0.000000
   17.570075    0.306882    0.306882    0.306882   -0.000000    0.000000   -0.000000
   17.592176    0.309265    0.309265    0.309265   -0.000000    0.000000   -0.000000
   17.614277    0.311635    0.311635    0.311635   -0.000000    0.000000   -0.000000
   17.636377    0.313989    0.313989    0.313989   -0.000000    0.000000   -0.000000
   17.658478    0.316323    0.316323    0.316323   -0.000000    0.000000   -0.000000
   17.680579    0.318633    0.318633    0.318633   -0.000000    0.000000   -0.000000
   17.702680    0.320917    0.320917    0.320917   -0.000000    0.000000   -0.000000
   17.724780    0.323173    0.323173    0.323173   -0.000000    0.000000   -0.000000
   17.746881    0.325402    0.325402    0.325402   -0.000000    0.000000   -0.000000
   17.768982    0.327605    0.327605    0.327605   -0.000000    0.000000   -0.000000
   17.791082    0.329781    0.329781    0.329781   -0.000000    0.000000   -0.000000
   17.813183    0.331934    0.331934    0.331934   -0.000000    0.000000   -0.000000
   17.835284    0.334063    0.334063    0.334063   -0.000000    0.000000   -0.000000
   17.857385    0.336170    0.336170    0.336170   -0.000000    0.000000   -0.000000
   17.879485    0.338257    0.338257    0.338257   -0.000000    0.000000   -0.000000
   17.901586    0.340323    0.340323    0.340323   -0.000000    0.000000   -0.000000
   17.923687    0.342370    0.342370    0.342370   -0.000000    0.000000   -0.000000
   17.945788    0.344400    0.344400    0.344400   -0.000000    0.000000   -0.000000
   17.967888    0.346411    0.346411    0.346411   -0.000000    0.000000   -0.000000
   17.989989    0.348406    0.348406    0.348406   -0.000000    0.000000   -0.000000
   18.012090    0.350385    0.350385    0.350385   -0.000000    0.000000   -0.000000
   18.034190    0.352348    0.352348    0.352348   -0.000000    0.000000   -0.000000
   18.056291    0.354297    0.354297    0.354297   -0.000000    0.000000   -0.000000
   18.078392    0.356230    0.356230    0.356230   -0.000000    0.000000   -0.000000
   18.100493    0.358150    0.358150    0.358150   -0.000000    0.000000   -0.000000
   18.122593    0.360056    0.360056    0.360056   -0.000000    0.000000   -0.000000
   18.144694    0.361948    0.361948    0.361948   -0.000000    0.000000   -0.000000
   18.166795    0.363828    0.363828    0.363828   -0.000000    0.000000   -0.000000
   18.188896    0.365695    0.365695    0.365695   -0.000000    0.000000   -0.000000
   18.210996    0.367549    0.367549    0.367549   -0.000000    0.000000   -0.000000
   18.233097    0.369392    0.369392    0.369392   -0.000000    0.000000   -0.000000
   18.255198    0.371223    0.371223    0.371223   -0.000000    0.000000   -0.000000
   18.277298    0.373042    0.373042    0.373042   -0.000000    0.000000   -0.000000
   18.299399    0.374850    0.374850    0.374850   -0.000000    0.000000   -0.000000
   18.321500    0.376647    0.376647    0.376647   -0.000000    0.000000   -0.000000
   18.343601    0.378433    0.378433    0.378433   -0.000000    0.000000   -0.000000
   18.365701    0.380208    0.380208    0.380208   -0.000000    0.000000   -0.000000
   18.387802    0.381973    0.381973    0.381973   -0.000000    0.000000   -0.000000
   18.409903    0.383728    0.383728    0.383728   -0.000000    0.000000   -0.000000
   18.432003    0.385473    0.385473    0.385473   -0.000000    0.000000   -0.000000
   18.454104    0.387207    0.387207    0.387207   -0.000000    0.000000   -0.000000
   18.476205    0.388932    0.388932    0.388932   -0.000000    0.000000   -0.000000
   18.498306    0.390648    0.390648    0.390648   -0.000000    0.000000   -0.000000
   18.520406    0.392354    0.392354    0.392354   -0.000000    0.000000   -0.000000
   18.542507    0.394051    0.394051    0.394051   -0.000000    0.000000   -0.000000
   18.564608    0.395738    0.395738    0.395738   -0.000000    0.000000   -0.000000
   18.586709    0.397417    0.397417    0.397417   -0.000000    0.000000   -0.000000
   18.608809    0.399086    0.399086    0.399086   -0.000000    0.000000   -0.000000
   18.630910    0.400747    0.400747    0.400747   -0.000000    0.000000   -0.000000
   18.653011    0.402399    0.402399    0.402399   -0.000000    0.000000   -0.000000
   18.675111    0.404043    0.404043    0.404043   -0.000000    0.000000   -0.000000
   18.697212    0.405678    0.405678    0.405678   -0.000000    0.000000   -0.000000
   18.719313    0.407305    0.407305    0.407305   -0.000000    0.000000   -0.000000
   18.741414    0.408923    0.408923    0.408923   -0.000000    0.000000   -0.000000
   18.763514    0.410534    0.410534    0.410534   -0.000000    0.000000   -0.000000
   18.785615    0.412136    0.412136    0.412136   -0.000000    0.000000   -0.000000
   18.807716    0.413730    0.413730    0.413730   -0.000000    0.000000   -0.000000
   18.829817    0.415317    0.415317    0.415317   -0.000000    0.000000   -0.000000
   18.851917    0.416895    0.416895    0.416895   -0.000000    0.000000   -0.000000
   18.874018    0.418466    0.418466    0.418466   -0.000000    0.000000   -0.000000
   18.896119    0.420030    0.420030    0.420030   -0.000000    0.000000   -0.000000
   18.918219    0.421586    0.421586    0.421586   -0.000000    0.000000   -0.000000
   18.940320    0.423134    0.423134    0.423134   -0.000000    0.000000   -0.000000
   18.962421    0.424675    0.424675    0.424675   -0.000000    0.000000   -0.000000
   18.984522    0.426209    0.426209    0.426209   -0.000000    0.000000   -0.000000
   19.006622    0.427735    0.427735    0.427735   -0.000000    0.000000   -0.000000
   19.028723    0.429254    0.429254    0.429254   -0.000000    0.000000   -0.000000
   19.050824    0.430767    0.430767    0.430767   -0.000000    0.000000   -0.000000
   19.072924    0.432272    0.432272    0.432272   -0.000000    0.000000   -0.000000
   19.095025    0.433770    0.433770    0.433770   -0.000000    0.000000   -0.000000
   19.117126    0.435261    0.435261    0.435261   -0.000000    0.000000   -0.000000
   19.139227    0.436746    0.436746    0.436746   -0.000000    0.000000   -0.000000
   19.161327    0.438223    0.438223    0.438223   -0.000000    0.000000   -0.000000
   19.183428    0.439694    0.439694    0.439694   -0.000000    0.000000   -0.000000
   19.205529    0.441158    0.441158    0.441158   -0.000000    0.000000   -0.000000
   19.227630    0.442616    0.442616    0.442616   -0.000000    0.000000   -0.000000
   19.249730    0.444067    0.444067    0.444067   -0.000000    0.000000   -0.000000
   19.271831    0.445512    0.445512    0.445512   -0.000000    0.000000   -0.000000
   19.293932    0.446950    0.446950    0.446950   -0.000000    0.000000   -0.000000
   19.316032    0.448382    0.448382    0.448382   -0.000000    0.000000   -0.000000
   19.338133    0.449808    0.449808    0.449808   -0.000000    0.000000   -0.000000
   19.360234    0.451227    0.451227    0.451227   -0.000000    0.000000   -0.000000
   19.382335    0.452640    0.452640    0.452640   -0.000000    0.000000   -0.000000
   19.404435    0.454047    0.454047    0.454047   -0.000000    0.000000   -0.000000
   19.426536    0.455447    0.455447    0.455447   -0.000000    0.000000   -0.000000
   19.448637    0.456842    0.456842    0.456842   -0.000000    0.000000   -0.000000
   19.470737    0.458231    0.458231    0.458231   -0.000000    0.000000   -0.000000
   19.492838    0.459613    0.459613    0.459613   -0.000000    0.000000   -0.000000
   19.514939    0.460990    0.460990    0.460990   -0.000000    0.000000   -0.000000
   19.537040    0.462361    0.462361    0.462361   -0.000000    0.000000   -0.000000
   19.559140    0.463726    0.463726    0.463726   -0.000000    0.000000   -0.000000
   19.581241    0.465085    0.465085    0.465085   -0.000000    0.000000   -0.000000
   19.603342    0.466438    0.466438    0.466438   -0.000000    0.000000   -0.000000
   19.625443    0.467786    0.467786    0.467786   -0.000000    0.000000   -0.000000
   19.647543    0.469128    0.469128    0.469128   -0.000000    0.000000   -0.000000
   19.669644    0.470464    0.470464    0.470464   -0.000000    0.000000   -0.000000
   19.691745    0.471795    0.471795    0.471795   -0.000000    0.000000   -0.000000
   19.713845    0.473120    0.473120    0.473120   -0.000000    0.000000   -0.000000
   19.735946    0.474440    0.474440    0.474440   -0.000000    0.000000   -0.000000
   19.758047    0.475754    0.475754    0.475754   -0.000000    0.000000   -0.000000
   19.780148    0.477063    0.477063    0.477063   -0.000000    0.000000   -0.000000
   19.802248    0.478366    0.478366    0.478366   -0.000000    0.000000   -0.000000
   19.824349    0.479664    0.479664    0.479664   -0.000000    0.000000   -0.000000
   19.846450    0.480957    0.480957    0.480957   -0.000000    0.000000   -0.000000
   19.868551    0.482244    0.482244    0.482244   -0.000000    0.000000   -0.000000
   19.890651    0.483526    0.483526    0.483526   -0.000000    0.000000   -0.000000
   19.912752    0.484803    0.484803    0.484803   -0.000000    0.000000   -0.000000
   19.934853    0.486075    0.486075    0.486075   -0.000000    0.000000   -0.000000
   19.956953    0.487341    0.487341    0.487341   -0.000000    0.000000   -0.000000
   19.979054    0.488603    0.488603    0.488603   -0.000000    0.000000   -0.000000
   20.001155    0.489859    0.489859    0.489859   -0.000000    0.000000   -0.000000
   20.023256    0.491111    0.491111    0.491111   -0.000000    0.000000   -0.000000
   20.045356    0.492357    0.492357    0.492357   -0.000000    0.000000   -0.000000
   20.067457    0.493598    0.493598    0.493598   -0.000000    0.000000   -0.000000
   20.089558    0.494835    0.494835    0.494835   -0.000000    0.000000   -0.000000
   20.111658    0.496066    0.496066    0.496066   -0.000000    0.000000   -0.000000
   20.133759    0.497293    0.497293    0.497293   -0.000000    0.000000   -0.000000
   20.155860    0.498514    0.498514    0.498514   -0.000000    0.000000   -0.000000
   20.177961    0.499731    0.499731    0.499731   -0.000000    0.000000   -0.000000
   20.200061    0.500943    0.500943    0.500943   -0.000000    0.000000   -0.000000
   20.222162    0.502151    0.502151    0.502151   -0.000000    0.000000   -0.000000
   20.244263    0.503353    0.503353    0.503353   -0.000000    0.000000   -0.000000
   20.266364    0.504551    0.504551    0.504551   -0.000000    0.000000   -0.000000
   20.288464    0.505744    0.505744    0.505744   -0.000000    0.000000   -0.000000
   20.310565    0.506933    0.506933    0.506933   -0.000000    0.000000   -0.000000
   20.332666    0.508117    0.508117    0.508117   -0.000000    0.000000   -0.000000
   20.354766    0.509296    0.509296    0.509296   -0.000000    0.000000   -0.000000
   20.376867    0.510471    0.510471    0.510471   -0.000000    0.000000   -0.000000
   20.398968    0.511641    0.511641    0.511641   -0.000000    0.000000   -0.000000
   20.421069    0.512807    0.512807    0.512807   -0.000000    0.000000   -0.000000
   20.443169    0.513968    0.513968    0.513968   -0.000000    0.000000   -0.000000
   20.465270    0.515125    0.515125    0.515125   -0.000000    0.000000   -0.000000
   20.487371    0.516277    0.516277    0.516277   -0.000000    0.000000   -0.000000
   20.509471    0.517425    0.517425    0.517425   -0.000000    0.000000   -0.000000
   20.531572    0.518568    0.518568    0.518568   -0.000000    0.000000   -0.000000
   20.553673    0.519708    0.519708    0.519708   -0.000000    0.000000   -0.000000
   20.575774    0.520842    0.520842    0.520842   -0.000000    0.000000   -0.000000
   20.597874    0.521973    0.521973    0.521973   -0.000000    0.000000   -0.000000
   20.619975    0.523099    0.523099    0.523099   -0.000000    0.000000   -0.000000
   20.642076    0.524221    0.524221    0.524221   -0.000000    0.000000   -0.000000
   20.664177    0.525339    0.525339    0.525339   -0.000000    0.000000   -0.000000
   20.686277    0.526453    0.526453    0.526453   -0.000000    0.000000   -0.000000
   20.708378    0.527562    0.527562    0.527562   -0.000000    0.000000   -0.000000
   20.730479    0.528668    0.528668    0.528668   -0.000000    0.000000   -0.000000
   20.752579    0.529769    0.529769    0.529769   -0.000000    0.000000   -0.000000
   20.774680    0.530866    0.530866    0.530866   -0.000000    0.000000   -0.000000
   20.796781    0.531959    0.531959    0.531959   -0.000000    0.000000   -0.000000
   20.818882    0.533048    0.533048    0.533048   -0.000000    0.000000   -0.000000
   20.840982    0.534132    0.534132    0.534132   -0.000000    0.000000   -0.000000
   20.863083    0.535213    0.535213    0.535213   -0.000000    0.000000   -0.000000
   20.885184    0.536290    0.536290    0.536290   -0.000000    0.000000   -0.000000
   20.907285    0.537363    0.537363    0.537363   -0.000000    0.000000   -0.000000
   20.929385    0.538432    0.538432    0.538432   -0.000000    0.000000   -0.000000
   20.951486    0.539497    0.539497    0.539497   -0.000000    0.000000   -0.000000
   20.973587    0.540558    0.540558    0.540558   -0.000000    0.000000   -0.000000
   20.995687    0.541615    0.541615    0.541615   -0.000000    0.000000   -0.000000
   21.017788    0.542668    0.542668    0.542668   -0.000000    0.000000   -0.000000
   21.039889    0.543718    0.543718    0.543718   -0.000000    0.000000   -0.000000
   21.061990    0.544763    0.544763    0.544763   -0.000000    0.000000   -0.000000
   21.084090    0.545805    0.545805    0.545805   -0.000000    0.000000   -0.000000
   21.106191    0.546843    0.546843    0.546843   -0.000000    0.000000   -0.000000
   21.128292    0.547878    0.547878    0.547878   -0.000000    0.000000   -0.000000
   21.150392    0.548908    0.548908    0.548908   -0.000000    0.000000   -0.000000
   21.172493    0.549935    0.549935    0.549935   -0.000000    0.000000   -0.000000
   21.194594    0.550958    0.550958    0.550958   -0.000000    0.000000   -0.000000
   21.216695    0.551978    0.551978    0.551978   -0.000000    0.000000   -0.000000
   21.238795    0.552993    0.552993    0.552993   -0.000000    0.000000   -0.000000
   21.260896    0.554006    0.554006    0.554006   -0.000000    0.000000   -0.000000
   21.282997    0.555014    0.555014    0.555014   -0.000000    0.000000   -0.000000
   21.305098    0.556019    0.556019    0.556019   -0.000000    0.000000   -0.000000
   21.327198    0.557020    0.557020    0.557020   -0.000000    0.000000   -0.000000
   21.349299    0.558018    0.558018    0.558018   -0.000000    0.000000   -0.000000
   21.371400    0.559012    0.559012    0.559012   -0.000000    0.000000   -0.000000
   21.393500    0.560003    0.560003    0.560003   -0.000000    0.000000   -0.000000
   21.415601    0.560990    0.560990    0.560990   -0.000000    0.000000   -0.000000
   21.437702    0.561974    0.561974    0.561974   -0.000000    0.000000   -0.000000
   21.459803    0.562954    0.562954    0.562954   -0.000000    0.000000   -0.000000
   21.481903    0.563931    0.563931    0.563931   -0.000000    0.000000   -0.000000
   21.504004    0.564904    0.564904    0.564904   -0.000000    0.000000   -0.000000
   21.526105    0.565874    0.565874    0.565874   -0.000000    0.000000   -0.000000
   21.548206    0.566841    0.566841    0.566841   -0.000000    0.000000   -0.000000
   21.570306    0.567804    0.567804    0.567804   -0.000000    0.000000   -0.000000
   21.592407    0.568763    0.568763    0.568763   -0.000000    0.000000   -0.000000
   21.614508    0.569720    0.569720    0.569720   -0.000000    0.000000   -0.000000
   21.636608    0.570673    0.570673    0.570673   -0.000000    0.000000   -0.000000
   21.658709    0.571623    0.571623    0.571623   -0.000000    0.000000   -0.000000
   21.680810    0.572569    0.572569    0.572569   -0.000000    0.000000   -0.000000
   21.702911    0.573512    0.573512    0.573512   -0.000000    0.000000   -0.000000
   21.725011    0.574452    0.574452    0.574452   -0.000000    0.000000   -0.000000
   21.747112    0.575389    0.575389    0.575389   -0.000000    0.000000   -0.000000
   21.769213    0.576322    0.576322    0.576322   -0.000000    0.000000   -0.000000
   21.791313    0.577252    0.577252    0.577252   -0.000000    0.000000   -0.000000
   21.813414    0.578179    0.578179    0.578179   -0.000000    0.000000   -0.000000
   21.835515    0.579103    0.579103    0.579103   -0.000000    0.000000   -0.000000
   21.857616    0.580023    0.580023    0.580023   -0.000000    0.000000   -0.000000
   21.879716    0.580941    0.580941    0.580941   -0.000000    0.000000   -0.000000
   21.901817    0.581855    0.581855    0.581855   -0.000000    0.000000   -0.000000
   21.923918    0.582766    0.582766    0.582766   -0.000000    0.000000   -0.000000
   21.946019    0.583674    0.583674    0.583674   -0.000000    0.000000   -0.000000
   21.968119    0.584579    0.584579    0.584579   -0.000000    0.000000   -0.000000
   21.990220    0.585481    0.585481    0.585481   -0.000000    0.000000   -0.000000
   22.012321    0.586380    0.586380    0.586380   -0.000000    0.000000   -0.000000
   22.034421    0.587276    0.587276    0.587276   -0.000000    0.000000   -0.000000
   22.056522    0.588168    0.588168    0.588168   -0.000000    0.000000   -0.000000
   22.078623    0.589058    0.589058    0.589058   -0.000000    0.000000   -0.000000
 
 The outermost node in the dielectric function lies at epsilon=  15.3


--------------------------------------------------------------------------------------------------------


    OPTICS:  cpu time      0.1677: real time      0.1804
    4ORBIT:  cpu time      0.0000: real time      0.0000
 BZINTS: Fermi energy:    3.325781;   32.000000 electrons
         Band energy:-0.713265E+02;  BLOECHL correction:    0.000000

 total amount of memory used by VASP MPI-rank0    45631. kBytes
=======================================================================

   base      :      30000. kBytes
   nonl-proj :       9591. kBytes
   fftplans  :       1096. kBytes
   grid      :       2745. kBytes
   one-center:         64. kBytes
   wavefun   :       2135. kBytes
 
  
  
 General timing and accounting informations for this job:
 ========================================================
  
                  Total CPU time used (sec):        5.284
                            User time (sec):        3.070
                          System time (sec):        2.215
                         Elapsed time (sec):        6.138
  
                   Maximum memory used (kb):      141084.
                   Average memory used (kb):          N/A
  
                          Minor page faults:        14374
                          Major page faults:            4
                 Voluntary context switches:         1744
