GaAs                                    
   4.50000000000000     
     1.162882   -0.000000   -0.000000
    -0.000000    1.162882   -0.000000
     0.000000    0.000000    1.162882
   As   Ga
     4     4
Direct
  0.000000  1.000000  1.000000
  0.500000  0.500000  0.000000
  0.500000  0.000000  0.500000
  1.000000  0.500000  0.500000
  0.250000  0.250000  0.250000
  0.750000  0.250000  0.750000
  0.750000  0.750000  0.250000
  0.250000  0.750000  0.750000
 
   56   56   56
 -.59136536332E+02 -.51855880605E+02 -.31688492104E+02 -.31264012992E+01 0.27895964766E+02
 0.55668151902E+02 0.76048845418E+02 0.87106248789E+02 0.89035529844E+02 0.83611257612E+02
 0.73489196271E+02 0.61558179371E+02 0.50327001142E+02 0.40702353784E+02 0.32633770052E+02
 0.26013375372E+02 0.20698193830E+02 0.16509347509E+02 0.13247524335E+02 0.10721101818E+02
 0.87692118390E+01 0.72684553022E+01 0.61265595196E+01 0.52725248444E+01 0.46492358317E+01
 0.42100456708E+01 0.39189804557E+01 0.37522761929E+01 0.36978473023E+01 0.37522761929E+01
 0.39189804557E+01 0.42100456708E+01 0.46492358317E+01 0.52725248444E+01 0.61265595196E+01
 0.72684553022E+01 0.87692118390E+01 0.10721101818E+02 0.13247524335E+02 0.16509347509E+02
 0.20698193830E+02 0.26013375372E+02 0.32633770052E+02 0.40702353784E+02 0.50327001142E+02
 0.61558179371E+02 0.73489196271E+02 0.83611257612E+02 0.89035529844E+02 0.87106248789E+02
 0.76048845418E+02 0.55668151902E+02 0.27895964766E+02 -.31264012992E+01 -.31688492104E+02
 -.51855880605E+02 -.51855880605E+02 -.44851611906E+02 -.25459649433E+02 0.19730205016E+01
 0.31705949184E+02 0.58219161577E+02 0.77515488597E+02 0.87741399223E+02 0.89109205235E+02
 0.83368349594E+02 0.73127334582E+02 0.61219558683E+02 0.50081359962E+02 0.40535642947E+02
 0.32529292431E+02 0.25957314665E+02 0.20678786332E+02 0.16516504263E+02 0.13272972842E+02
 0.10758556060E+02 0.88142466036E+01 0.73181317532E+01 0.61789812556E+01 0.53264503117E+01
 0.47038265656E+01 0.42647718433E+01 0.39735974450E+01 0.38067583286E+01 0.37522761929E+01
 0.38067583287E+01 0.39735974450E+01 0.42647718433E+01 0.47038265656E+01 0.53264503117E+01
 0.61789812556E+01 0.73181317532E+01 0.88142466036E+01 0.10758556060E+02 0.13272972842E+02
 0.16516504263E+02 0.20678786332E+02 0.25957314665E+02 0.32529292431E+02 0.40535642947E+02
 0.50081359962E+02 0.61219558683E+02 0.73127334582E+02 0.83368349594E+02 0.89109205235E+02
 0.87741399223E+02 0.77515488597E+02 0.58219161577E+02 0.31705949184E+02 0.19730205016E+01
 -.25459649433E+02 -.44851611906E+02 -.31688492104E+02 -.25459649433E+02 -.82425509992E+01
 0.16024219167E+02 0.42145717398E+02 0.65137010374E+02 0.81405734929E+02 0.89318694218E+02
 0.89137305039E+02 0.82540938209E+02 0.72004316483E+02 0.60202185169E+02 0.49347735875E+02
 0.40037069758E+02 0.32216586472E+02 0.25789530054E+02 0.20620855063E+02 0.16538299915E+02
 0.13349829905E+02 0.10871772306E+02 0.89506628574E+01 0.74689763175E+01 0.63385338221E+01
 0.54909038308E+01 0.48705691255E+01 0.44321283166E+01 0.41407635912E+01 0.39735974450E+01
 0.39189804557E+01 0.39735974450E+01 0.41407635912E+01 0.44321283166E+01 0.48705691255E+01
 0.54909038308E+01 0.63385338221E+01 0.74689763175E+01 0.89506628574E+01 0.10871772306E+02
 0.13349829905E+02 0.16538299915E+02 0.20620855063E+02 0.25789530054E+02 0.32216586472E+02
 0.40037069758E+02 0.49347735875E+02 0.60202185169E+02 0.72004316483E+02 0.82540938209E+02
 0.89137305039E+02 0.89318694218E+02 0.81405734929E+02 0.65137010374E+02 0.42145717398E+02
 0.16024219167E+02 -.82425509992E+01 -.25459649433E+02 -.31264012992E+01 0.19730205016E+01
 0.16024219167E+02 0.35687621493E+02 0.56566810761E+02 0.74458816197E+02 0.86363153002E+02
 0.90970606312E+02 0.88617245767E+02 0.80880893524E+02 0.70036627732E+02 0.58517386392E+02
 0.48138927519E+02 0.39213650244E+02 0.31699625876E+02 0.25512511665E+02 0.20526210298E+02
 0.16576451575E+02 0.13480311639E+02 0.11064018709E+02 0.91831770418E+01 0.77273186699E+01
 0.66130967766E+01 0.57750991685E+01 0.51597437018E+01 0.47232018956E+01 0.44321283166E+01
 0.42647718433E+01 0.42100456708E+01 0.42647718433E+01 0.44321283166E+01 0.47232018956E+01
 0.51597437018E+01 0.57750991685E+01 0.66130967766E+01 0.77273186699E+01 0.91831770418E+01
 0.11064018709E+02 0.13480311639E+02 0.16576451575E+02 0.20526210298E+02 0.25512511665E+02
 0.31699625876E+02 0.39213650244E+02 0.48138927519E+02 0.58517386392E+02 0.70036627732E+02
 0.80880893524E+02 0.88617245767E+02 0.90970606312E+02 0.86363153002E+02 0.74458816197E+02
 0.56566810761E+02 0.35687621493E+02 0.16024219167E+02 0.19730205016E+01 0.27895964766E+02
 0.31705949184E+02 0.42145717398E+02 0.56566810761E+02 0.71492487081E+02 0.83619635247E+02
 0.90630529882E+02 0.91593282297E+02 0.86934565136E+02 0.78114639308E+02 0.67168116877E+02
 0.56215858043E+02 0.46483918262E+02 0.38083391370E+02 0.30989962032E+02 0.25134060774E+02
 0.20400600661E+02 0.16636067225E+02 0.13670214204E+02 0.11342895362E+02 0.95219325259E+01
 0.81061448597E+01 0.70184119936E+01 0.61972050670E+01 0.55915273283E+01 0.51597437018E+01
 0.48705691255E+01 0.47038265656E+01 0.46492358317E+01 0.47038265656E+01 0.48705691255E+01
 0.51597437018E+01 0.55915273283E+01 0.61972050670E+01 0.70184119936E+01 0.81061448597E+01
 0.95219325259E+01 0.11342895362E+02 0.13670214204E+02 0.16636067225E+02 0.20400600661E+02
 0.25134060774E+02 0.30989962032E+02 0.38083391370E+02 0.46483918262E+02 0.56215858043E+02
 0.67168116877E+02 0.78114639308E+02 0.86934565136E+02 0.91593282297E+02 0.90630529882E+02
 0.83619635247E+02 0.71492487081E+02 0.56566810761E+02 0.42145717398E+02 0.31705949184E+02
 0.55668151902E+02 0.58219161577E+02 0.65137010374E+02 0.74458816197E+02 0.83619635247E+02
 0.90209628751E+02 0.92592450073E+02 0.90217429177E+02 0.83605297755E+02 0.74093275154E+02
 0.63455390969E+02 0.53376243131E+02 0.44433858977E+02 0.36680656335E+02 0.30111155141E+02
 0.24670799820E+02 0.20256588469E+02 0.16728211801E+02 0.13931376594E+02 0.11722749239E+02
 0.99848148520E+01 0.86272183786E+01 0.75799286978E+01 0.67858729492E+01 0.61972050670E+01
 0.57750991685E+01 0.54909038308E+01 0.53264503117E+01 0.52725248444E+01 0.53264503117E+01
 0.54909038308E+01 0.57750991685E+01 0.61972050670E+01 0.67858729492E+01 0.75799286978E+01
 0.86272183786E+01 0.99848148520E+01 0.11722749239E+02 0.13931376594E+02 0.16728211801E+02
 0.20256588469E+02 0.24670799820E+02 0.30111155141E+02 0.36680656335E+02 0.44433858977E+02
 0.53376243131E+02 0.63455390969E+02 0.74093275154E+02 0.83605297755E+02 0.90217429177E+02
 0.92592450073E+02 0.90209628751E+02 0.83619635247E+02 0.74458816197E+02 0.65137010374E+02
 0.58219161577E+02 0.76048845418E+02 0.77515488597E+02 0.81405734929E+02 0.86363153002E+02
 0.90630529882E+02 0.92592450073E+02 0.91223128113E+02 0.86316648819E+02 0.78475898640E+02
 0.68911093514E+02 0.59118645190E+02 0.50105417511E+02 0.42063641847E+02 0.35058384943E+02
 0.29101002967E+02 0.24150272978E+02 0.20115601601E+02 0.16871954608E+02 0.14283649016E+02
 0.12226404507E+02 0.10598771376E+02 0.93218680015E+01 0.83330238504E+01 0.75799286978E+01
 0.70184119936E+01 0.66130967766E+01 0.63385338221E+01 0.61789812556E+01 0.61265595196E+01
 0.61789812556E+01 0.63385338221E+01 0.66130967766E+01 0.70184119936E+01 0.75799286978E+01
 0.83330238504E+01 0.93218680015E+01 0.10598771376E+02 0.12226404507E+02 0.14283649016E+02
 0.16871954608E+02 0.20115601601E+02 0.24150272978E+02 0.29101002967E+02 0.35058384943E+02
 0.42063641847E+02 0.50105417511E+02 0.59118645190E+02 0.68911093514E+02 0.78475898640E+02
 0.86316648819E+02 0.91223128113E+02 0.92592450073E+02 0.90630529882E+02 0.86363153002E+02
 0.81405734929E+02 0.77515488597E+02 0.87106248789E+02 0.87741399223E+02 0.89318694218E+02
 0.90970606312E+02 0.91593282297E+02 0.90217429177E+02 0.86316648819E+02 0.79964839700E+02
 0.71818160409E+02 0.62949389505E+02 0.54405104014E+02 0.46533525718E+02 0.39468267814E+02
 0.33286159875E+02 0.28010544663E+02 0.23610633858E+02 0.20008130575E+02 0.17094810147E+02
 0.14755258163E+02 0.12885185111E+02 0.11399360849E+02 0.10230105146E+02 0.93218680015E+01
 0.86272183786E+01 0.81061448597E+01 0.77273186699E+01 0.74689763175E+01 0.73181317532E+01
 0.72684553022E+01 0.73181317532E+01 0.74689763175E+01 0.77273186699E+01 0.81061448597E+01
 0.86272183786E+01 0.93218680015E+01 0.10230105146E+02 0.11399360849E+02 0.12885185111E+02
 0.14755258163E+02 0.17094810147E+02 0.20008130575E+02 0.23610633858E+02 0.28010544663E+02
 0.33286159875E+02 0.39468267814E+02 0.46533525718E+02 0.54405104014E+02 0.62949389505E+02
 0.71818160409E+02 0.79964839700E+02 0.86316648819E+02 0.90217429177E+02 0.91593282297E+02
 0.90970606312E+02 0.89318694218E+02 0.87741399223E+02 0.89035529844E+02 0.89109205235E+02
 0.89137305039E+02 0.88617245767E+02 0.86934565136E+02 0.83605297755E+02 0.78475898640E+02
 0.71818160409E+02 0.64297394871E+02 0.56731872498E+02 0.49505924128E+02 0.42803241888E+02
 0.36755640145E+02 0.31444940886E+02 0.26900185884E+02 0.23097889994E+02 0.19971758381E+02
 0.17431156071E+02 0.15381291145E+02 0.13737333884E+02 0.12429200268E+02 0.11399360849E+02
 0.10598771376E+02 0.99848148520E+01 0.95219325259E+01 0.91831770418E+01 0.89506628574E+01
 0.88142466036E+01 0.87692118390E+01 0.88142466036E+01 0.89506628574E+01 0.91831770418E+01
 0.95219325259E+01 0.99848148520E+01 0.10598771376E+02 0.11399360849E+02 0.12429200268E+02
 0.13737333884E+02 0.15381291145E+02 0.17431156071E+02 0.19971758381E+02 0.23097889994E+02
 0.26900185884E+02 0.31444940886E+02 0.36755640145E+02 0.42803241888E+02 0.49505924128E+02
 0.56731872498E+02 0.64297394871E+02 0.71818160409E+02 0.78475898640E+02 0.83605297755E+02
 0.86934565136E+02 0.88617245767E+02 0.89137305039E+02 0.89109205235E+02 0.83611257612E+02
 0.83368349594E+02 0.82540938209E+02 0.80880893524E+02 0.78114639308E+02 0.74093275154E+02
 0.68911093514E+02 0.62949389505E+02 0.56731872498E+02 0.50549946141E+02 0.44604265760E+02
 0.39058850974E+02 0.34037823745E+02 0.29619919285E+02 0.25834027666E+02 0.22661497347E+02
 0.20047678777E+02 0.17919378478E+02 0.16201375220E+02 0.14826378629E+02 0.13737333884E+02
 0.12885185111E+02 0.12226404507E+02 0.11722749239E+02 0.11342895362E+02 0.11064018709E+02
 0.10871772306E+02 0.10758556060E+02 0.10721101818E+02 0.10758556060E+02 0.10871772306E+02
 0.11064018709E+02 0.11342895362E+02 0.11722749239E+02 0.12226404507E+02 0.12885185111E+02
 0.13737333884E+02 0.14826378629E+02 0.16201375220E+02 0.17919378478E+02 0.20047678777E+02
 0.22661497347E+02 0.25834027666E+02 0.29619919285E+02 0.34037823745E+02 0.39058850974E+02
 0.44604265760E+02 0.50549946141E+02 0.56731872498E+02 0.62949389505E+02 0.68911093514E+02
 0.74093275154E+02 0.78114639308E+02 0.80880893524E+02 0.82540938209E+02 0.83368349594E+02
 0.73489196271E+02 0.73127334582E+02 0.72004316483E+02 0.70036627732E+02 0.67168116877E+02
 0.63455390969E+02 0.59118645190E+02 0.54405104014E+02 0.49505924128E+02 0.44604265760E+02
 0.39866932445E+02 0.35436266672E+02 0.31421851312E+02 0.27892689817E+02 0.24873643032E+02
 0.22349593705E+02 0.20277126385E+02 0.18599388169E+02 0.17258408995E+02 0.16201375220E+02
 0.15381291145E+02 0.14755258163E+02 0.14283649016E+02 0.13931376594E+02 0.13670214204E+02
 0.13480311639E+02 0.13349829905E+02 0.13272972842E+02 0.13247524335E+02 0.13272972842E+02
 0.13349829905E+02 0.13480311639E+02 0.13670214204E+02 0.13931376594E+02 0.14283649016E+02
 0.14755258163E+02 0.15381291145E+02 0.16201375220E+02 0.17258408995E+02 0.18599388169E+02
 0.20277126385E+02 0.22349593705E+02 0.24873643032E+02 0.27892689817E+02 0.31421851312E+02
 0.35436266672E+02 0.39866932445E+02 0.44604265760E+02 0.49505924128E+02 0.54405104014E+02
 0.59118645190E+02 0.63455390969E+02 0.67168116877E+02 0.70036627732E+02 0.72004316483E+02
 0.73127334582E+02 0.61558179371E+02 0.61219558683E+02 0.60202185169E+02 0.58517386392E+02
 0.56215858043E+02 0.53376243131E+02 0.50105417511E+02 0.46533525718E+02 0.42803241888E+02
 0.39058850974E+02 0.35436266672E+02 0.32053355673E+02 0.29000548383E+02 0.26333744089E+02
 0.24072528282E+02 0.22205228356E+02 0.20699157836E+02 0.19511886157E+02 0.18599388169E+02
 0.17919378478E+02 0.17431156071E+02 0.17094810147E+02 0.16871954608E+02 0.16728211801E+02
 0.16636067225E+02 0.16576451575E+02 0.16538299915E+02 0.16516504263E+02 0.16509347509E+02
 0.16516504263E+02 0.16538299915E+02 0.16576451575E+02 0.16636067225E+02 0.16728211801E+02
 0.16871954608E+02 0.17094810147E+02 0.17431156071E+02 0.17919378478E+02 0.18599388169E+02
 0.19511886157E+02 0.20699157836E+02 0.22205228356E+02 0.24072528282E+02 0.26333744089E+02
 0.29000548383E+02 0.32053355673E+02 0.35436266672E+02 0.39058850974E+02 0.42803241888E+02
 0.46533525718E+02 0.50105417511E+02 0.53376243131E+02 0.56215858043E+02 0.58517386392E+02
 0.60202185169E+02 0.61219558683E+02 0.50327001142E+02 0.50081359962E+02 0.49347735875E+02
 0.48138927519E+02 0.46483918262E+02 0.44433858977E+02 0.42063641847E+02 0.39468267814E+02
 0.36755640145E+02 0.34037823745E+02 0.31421851312E+02 0.29000548383E+02 0.26844414485E+02
 0.24996532185E+02 0.23472345160E+02 0.22264443614E+02 0.21350227822E+02 0.20699157836E+02
 0.20277126385E+02 0.20047678777E+02 0.19971758381E+02 0.20008130575E+02 0.20115601601E+02
 0.20256588469E+02 0.20400600661E+02 0.20526210298E+02 0.20620855063E+02 0.20678786332E+02
 0.20698193830E+02 0.20678786332E+02 0.20620855063E+02 0.20526210298E+02 0.20400600661E+02
 0.20256588469E+02 0.20115601601E+02 0.20008130575E+02 0.19971758381E+02 0.20047678777E+02
 0.20277126385E+02 0.20699157836E+02 0.21350227822E+02 0.22264443614E+02 0.23472345160E+02
 0.24996532185E+02 0.26844414485E+02 0.29000548383E+02 0.31421851312E+02 0.34037823745E+02
 0.36755640145E+02 0.39468267814E+02 0.42063641847E+02 0.44433858977E+02 0.46483918262E+02
 0.48138927519E+02 0.49347735875E+02 0.50081359962E+02 0.40702353784E+02 0.40535642947E+02
 0.40037069758E+02 0.39213650244E+02 0.38083391370E+02 0.36680656335E+02 0.35058384943E+02
 0.33286159875E+02 0.31444940886E+02 0.29619919285E+02 0.27892689817E+02 0.26333744089E+02
 0.24996532185E+02 0.23914470284E+02 0.23101582146E+02 0.22556018032E+02 0.22264443614E+02
 0.22205228356E+02 0.22349593705E+02 0.22661497347E+02 0.23097889994E+02 0.23610633858E+02
 0.24150272978E+02 0.24670799820E+02 0.25134060774E+02 0.25512511665E+02 0.25789530054E+02
 0.25957314665E+02 0.26013375372E+02 0.25957314665E+02 0.25789530054E+02 0.25512511665E+02
 0.25134060774E+02 0.24670799820E+02 0.24150272978E+02 0.23610633858E+02 0.23097889994E+02
 0.22661497347E+02 0.22349593705E+02 0.22205228356E+02 0.22264443614E+02 0.22556018032E+02
 0.23101582146E+02 0.23914470284E+02 0.24996532185E+02 0.26333744089E+02 0.27892689817E+02
 0.29619919285E+02 0.31444940886E+02 0.33286159875E+02 0.35058384943E+02 0.36680656335E+02
 0.38083391370E+02 0.39213650244E+02 0.40037069758E+02 0.40535642947E+02 0.32633770052E+02
 0.32529292431E+02 0.32216586472E+02 0.31699625876E+02 0.30989962032E+02 0.30111155141E+02
 0.29101002967E+02 0.28010544663E+02 0.26900185884E+02 0.25834027666E+02 0.24873643032E+02
 0.24072528282E+02 0.23472345160E+02 0.23101582146E+02 0.22976291263E+02 0.23101582146E+02
 0.23472345160E+02 0.24072528282E+02 0.24873643032E+02 0.25834027666E+02 0.26900185884E+02
 0.28010544663E+02 0.29101002967E+02 0.30111155141E+02 0.30989962032E+02 0.31699625876E+02
 0.32216586472E+02 0.32529292431E+02 0.32633770052E+02 0.32529292431E+02 0.32216586472E+02
 0.31699625876E+02 0.30989962032E+02 0.30111155141E+02 0.29101002967E+02 0.28010544663E+02
 0.26900185884E+02 0.25834027666E+02 0.24873643032E+02 0.24072528282E+02 0.23472345160E+02
 0.23101582146E+02 0.22976291263E+02 0.23101582146E+02 0.23472345160E+02 0.24072528282E+02
 0.24873643032E+02 0.25834027666E+02 0.26900185884E+02 0.28010544663E+02 0.29101002967E+02
 0.30111155141E+02 0.30989962032E+02 0.31699625876E+02 0.32216586472E+02 0.32529292431E+02
 0.26013375372E+02 0.25957314665E+02 0.25789530054E+02 0.25512511665E+02 0.25134060774E+02
 0.24670799820E+02 0.24150272978E+02 0.23610633858E+02 0.23097889994E+02 0.22661497347E+02
 0.22349593705E+02 0.22205228356E+02 0.22264443614E+02 0.22556018032E+02 0.23101582146E+02
 0.23914470284E+02 0.24996532185E+02 0.26333744089E+02 0.27892689817E+02 0.29619919285E+02
 0.31444940886E+02 0.33286159875E+02 0.35058384943E+02 0.36680656335E+02 0.38083391370E+02
 0.39213650244E+02 0.40037069758E+02 0.40535642947E+02 0.40702353784E+02 0.40535642947E+02
 0.40037069758E+02 0.39213650244E+02 0.38083391370E+02 0.36680656335E+02 0.35058384943E+02
 0.33286159875E+02 0.31444940886E+02 0.29619919285E+02 0.27892689817E+02 0.26333744089E+02
 0.24996532185E+02 0.23914470284E+02 0.23101582146E+02 0.22556018032E+02 0.22264443614E+02
 0.22205228356E+02 0.22349593705E+02 0.22661497347E+02 0.23097889994E+02 0.23610633858E+02
 0.24150272978E+02 0.24670799820E+02 0.25134060774E+02 0.25512511665E+02 0.25789530054E+02
 0.25957314665E+02 0.20698193830E+02 0.20678786332E+02 0.20620855063E+02 0.20526210298E+02
 0.20400600661E+02 0.20256588469E+02 0.20115601601E+02 0.20008130575E+02 0.19971758381E+02
 0.20047678777E+02 0.20277126385E+02 0.20699157836E+02 0.21350227822E+02 0.22264443614E+02
 0.23472345160E+02 0.24996532185E+02 0.26844414485E+02 0.29000548383E+02 0.31421851312E+02
 0.34037823745E+02 0.36755640145E+02 0.39468267814E+02 0.42063641847E+02 0.44433858977E+02
 0.46483918262E+02 0.48138927519E+02 0.49347735875E+02 0.50081359962E+02 0.50327001142E+02
 0.50081359962E+02 0.49347735875E+02 0.48138927519E+02 0.46483918262E+02 0.44433858977E+02
 0.42063641847E+02 0.39468267814E+02 0.36755640145E+02 0.34037823745E+02 0.31421851312E+02
 0.29000548383E+02 0.26844414485E+02 0.24996532185E+02 0.23472345160E+02 0.22264443614E+02
 0.21350227822E+02 0.20699157836E+02 0.20277126385E+02 0.20047678777E+02 0.19971758381E+02
 0.20008130575E+02 0.20115601601E+02 0.20256588469E+02 0.20400600661E+02 0.20526210298E+02
 0.20620855063E+02 0.20678786332E+02 0.16509347509E+02 0.16516504263E+02 0.16538299915E+02
 0.16576451575E+02 0.16636067225E+02 0.16728211801E+02 0.16871954608E+02 0.17094810147E+02
 0.17431156071E+02 0.17919378478E+02 0.18599388169E+02 0.19511886157E+02 0.20699157836E+02
 0.22205228356E+02 0.24072528282E+02 0.26333744089E+02 0.29000548383E+02 0.32053355673E+02
 0.35436266672E+02 0.39058850974E+02 0.42803241888E+02 0.46533525718E+02 0.50105417511E+02
 0.53376243131E+02 0.56215858043E+02 0.58517386392E+02 0.60202185169E+02 0.61219558683E+02
 0.61558179371E+02 0.61219558683E+02 0.60202185169E+02 0.58517386392E+02 0.56215858043E+02
 0.53376243131E+02 0.50105417511E+02 0.46533525718E+02 0.42803241888E+02 0.39058850974E+02
 0.35436266672E+02 0.32053355673E+02 0.29000548383E+02 0.26333744089E+02 0.24072528282E+02
 0.22205228356E+02 0.20699157836E+02 0.19511886157E+02 0.18599388169E+02 0.17919378478E+02
 0.17431156071E+02 0.17094810147E+02 0.16871954608E+02 0.16728211801E+02 0.16636067225E+02
 0.16576451575E+02 0.16538299915E+02 0.16516504263E+02 0.13247524335E+02 0.13272972842E+02
 0.13349829905E+02 0.13480311639E+02 0.13670214204E+02 0.13931376594E+02 0.14283649016E+02
 0.14755258163E+02 0.15381291145E+02 0.16201375220E+02 0.17258408995E+02 0.18599388169E+02
 0.20277126385E+02 0.22349593705E+02 0.24873643032E+02 0.27892689817E+02 0.31421851312E+02
 0.35436266672E+02 0.39866932445E+02 0.44604265760E+02 0.49505924128E+02 0.54405104014E+02
 0.59118645190E+02 0.63455390969E+02 0.67168116877E+02 0.70036627732E+02 0.72004316483E+02
 0.73127334582E+02 0.73489196271E+02 0.73127334582E+02 0.72004316483E+02 0.70036627732E+02
 0.67168116877E+02 0.63455390969E+02 0.59118645190E+02 0.54405104014E+02 0.49505924128E+02
 0.44604265760E+02 0.39866932445E+02 0.35436266672E+02 0.31421851312E+02 0.27892689817E+02
 0.24873643032E+02 0.22349593705E+02 0.20277126385E+02 0.18599388169E+02 0.17258408995E+02
 0.16201375220E+02 0.15381291145E+02 0.14755258163E+02 0.14283649016E+02 0.13931376594E+02
 0.13670214204E+02 0.13480311639E+02 0.13349829905E+02 0.13272972842E+02 0.10721101818E+02
 0.10758556060E+02 0.10871772306E+02 0.11064018709E+02 0.11342895362E+02 0.11722749239E+02
 0.12226404507E+02 0.12885185111E+02 0.13737333884E+02 0.14826378629E+02 0.16201375220E+02
 0.17919378478E+02 0.20047678777E+02 0.22661497347E+02 0.25834027666E+02 0.29619919285E+02
 0.34037823745E+02 0.39058850974E+02 0.44604265760E+02 0.50549946141E+02 0.56731872498E+02
 0.62949389505E+02 0.68911093514E+02 0.74093275154E+02 0.78114639308E+02 0.80880893524E+02
 0.82540938209E+02 0.83368349594E+02 0.83611257612E+02 0.83368349594E+02 0.82540938209E+02
 0.80880893524E+02 0.78114639308E+02 0.74093275154E+02 0.68911093514E+02 0.62949389505E+02
 0.56731872498E+02 0.50549946141E+02 0.44604265760E+02 0.39058850974E+02 0.34037823745E+02
 0.29619919285E+02 0.25834027666E+02 0.22661497347E+02 0.20047678777E+02 0.17919378478E+02
 0.16201375220E+02 0.14826378629E+02 0.13737333884E+02 0.12885185111E+02 0.12226404507E+02
 0.11722749239E+02 0.11342895362E+02 0.11064018709E+02 0.10871772306E+02 0.10758556060E+02
 0.87692118390E+01 0.88142466036E+01 0.89506628574E+01 0.91831770418E+01 0.95219325259E+01
 0.99848148520E+01 0.10598771376E+02 0.11399360849E+02 0.12429200268E+02 0.13737333884E+02
 0.15381291145E+02 0.17431156071E+02 0.19971758381E+02 0.23097889994E+02 0.26900185884E+02
 0.31444940886E+02 0.36755640145E+02 0.42803241888E+02 0.49505924128E+02 0.56731872498E+02
 0.64297394871E+02 0.71818160409E+02 0.78475898640E+02 0.83605297755E+02 0.86934565136E+02
 0.88617245767E+02 0.89137305039E+02 0.89109205235E+02 0.89035529844E+02 0.89109205235E+02
 0.89137305039E+02 0.88617245767E+02 0.86934565136E+02 0.83605297755E+02 0.78475898640E+02
 0.71818160409E+02 0.64297394871E+02 0.56731872498E+02 0.49505924128E+02 0.42803241888E+02
 0.36755640145E+02 0.31444940886E+02 0.26900185884E+02 0.23097889994E+02 0.19971758381E+02
 0.17431156071E+02 0.15381291145E+02 0.13737333884E+02 0.12429200268E+02 0.11399360849E+02
 0.10598771376E+02 0.99848148520E+01 0.95219325259E+01 0.91831770418E+01 0.89506628574E+01
 0.88142466036E+01 0.72684553022E+01 0.73181317532E+01 0.74689763175E+01 0.77273186699E+01
 0.81061448597E+01 0.86272183786E+01 0.93218680015E+01 0.10230105146E+02 0.11399360849E+02
 0.12885185111E+02 0.14755258163E+02 0.17094810147E+02 0.20008130575E+02 0.23610633858E+02
 0.28010544663E+02 0.33286159875E+02 0.39468267814E+02 0.46533525718E+02 0.54405104014E+02
 0.62949389505E+02 0.71818160409E+02 0.79964839700E+02 0.86316648819E+02 0.90217429177E+02
 0.91593282297E+02 0.90970606312E+02 0.89318694218E+02 0.87741399223E+02 0.87106248789E+02
 0.87741399223E+02 0.89318694218E+02 0.90970606312E+02 0.91593282297E+02 0.90217429177E+02
 0.86316648819E+02 0.79964839700E+02 0.71818160409E+02 0.62949389505E+02 0.54405104014E+02
 0.46533525718E+02 0.39468267814E+02 0.33286159875E+02 0.28010544663E+02 0.23610633858E+02
 0.20008130575E+02 0.17094810147E+02 0.14755258163E+02 0.12885185111E+02 0.11399360849E+02
 0.10230105146E+02 0.93218680015E+01 0.86272183786E+01 0.81061448597E+01 0.77273186699E+01
 0.74689763175E+01 0.73181317532E+01 0.61265595196E+01 0.61789812556E+01 0.63385338221E+01
 0.66130967766E+01 0.70184119936E+01 0.75799286978E+01 0.83330238504E+01 0.93218680015E+01
 0.10598771376E+02 0.12226404507E+02 0.14283649016E+02 0.16871954608E+02 0.20115601601E+02
 0.24150272978E+02 0.29101002967E+02 0.35058384943E+02 0.42063641847E+02 0.50105417511E+02
 0.59118645190E+02 0.68911093514E+02 0.78475898640E+02 0.86316648819E+02 0.91223128113E+02
 0.92592450073E+02 0.90630529882E+02 0.86363153002E+02 0.81405734929E+02 0.77515488597E+02
 0.76048845418E+02 0.77515488597E+02 0.81405734929E+02 0.86363153002E+02 0.90630529882E+02
 0.92592450073E+02 0.91223128113E+02 0.86316648819E+02 0.78475898640E+02 0.68911093514E+02
 0.59118645190E+02 0.50105417511E+02 0.42063641847E+02 0.35058384943E+02 0.29101002967E+02
 0.24150272978E+02 0.20115601601E+02 0.16871954608E+02 0.14283649016E+02 0.12226404507E+02
 0.10598771376E+02 0.93218680015E+01 0.83330238504E+01 0.75799286978E+01 0.70184119936E+01
 0.66130967766E+01 0.63385338221E+01 0.61789812556E+01 0.52725248444E+01 0.53264503117E+01
 0.54909038308E+01 0.57750991685E+01 0.61972050670E+01 0.67858729492E+01 0.75799286978E+01
 0.86272183786E+01 0.99848148520E+01 0.11722749239E+02 0.13931376594E+02 0.16728211801E+02
 0.20256588469E+02 0.24670799820E+02 0.30111155141E+02 0.36680656335E+02 0.44433858977E+02
 0.53376243131E+02 0.63455390969E+02 0.74093275154E+02 0.83605297755E+02 0.90217429177E+02
 0.92592450073E+02 0.90209628751E+02 0.83619635247E+02 0.74458816197E+02 0.65137010374E+02
 0.58219161577E+02 0.55668151902E+02 0.58219161577E+02 0.65137010374E+02 0.74458816197E+02
 0.83619635247E+02 0.90209628751E+02 0.92592450073E+02 0.90217429177E+02 0.83605297755E+02
 0.74093275154E+02 0.63455390969E+02 0.53376243131E+02 0.44433858977E+02 0.36680656335E+02
 0.30111155141E+02 0.24670799820E+02 0.20256588469E+02 0.16728211801E+02 0.13931376594E+02
 0.11722749239E+02 0.99848148520E+01 0.86272183786E+01 0.75799286978E+01 0.67858729492E+01
 0.61972050670E+01 0.57750991685E+01 0.54909038308E+01 0.53264503117E+01 0.46492358317E+01
 0.47038265656E+01 0.48705691255E+01 0.51597437018E+01 0.55915273283E+01 0.61972050670E+01
 0.70184119936E+01 0.81061448597E+01 0.95219325259E+01 0.11342895362E+02 0.13670214204E+02
 0.16636067225E+02 0.20400600661E+02 0.25134060774E+02 0.30989962032E+02 0.38083391370E+02
 0.46483918262E+02 0.56215858043E+02 0.67168116877E+02 0.78114639308E+02 0.86934565136E+02
 0.91593282297E+02 0.90630529882E+02 0.83619635247E+02 0.71492487081E+02 0.56566810761E+02
 0.42145717398E+02 0.31705949184E+02 0.27895964766E+02 0.31705949184E+02 0.42145717398E+02
 0.56566810761E+02 0.71492487081E+02 0.83619635247E+02 0.90630529882E+02 0.91593282297E+02
 0.86934565136E+02 0.78114639308E+02 0.67168116877E+02 0.56215858043E+02 0.46483918262E+02
 0.38083391370E+02 0.30989962032E+02 0.25134060774E+02 0.20400600661E+02 0.16636067225E+02
 0.13670214204E+02 0.11342895362E+02 0.95219325259E+01 0.81061448597E+01 0.70184119936E+01
 0.61972050670E+01 0.55915273283E+01 0.51597437018E+01 0.48705691255E+01 0.47038265656E+01
 0.42100456708E+01 0.42647718433E+01 0.44321283166E+01 0.47232018956E+01 0.51597437018E+01
 0.57750991685E+01 0.66130967766E+01 0.77273186699E+01 0.91831770418E+01 0.11064018709E+02
 0.13480311639E+02 0.16576451575E+02 0.20526210298E+02 0.25512511665E+02 0.31699625876E+02
 0.39213650244E+02 0.48138927519E+02 0.58517386392E+02 0.70036627732E+02 0.80880893524E+02
 0.88617245767E+02 0.90970606312E+02 0.86363153002E+02 0.74458816197E+02 0.56566810761E+02
 0.35687621493E+02 0.16024219167E+02 0.19730205016E+01 -.31264012992E+01 0.19730205016E+01
 0.16024219167E+02 0.35687621493E+02 0.56566810761E+02 0.74458816197E+02 0.86363153002E+02
 0.90970606312E+02 0.88617245767E+02 0.80880893524E+02 0.70036627732E+02 0.58517386392E+02
 0.48138927519E+02 0.39213650244E+02 0.31699625876E+02 0.25512511665E+02 0.20526210298E+02
 0.16576451575E+02 0.13480311639E+02 0.11064018709E+02 0.91831770418E+01 0.77273186699E+01
 0.66130967766E+01 0.57750991685E+01 0.51597437018E+01 0.47232018956E+01 0.44321283166E+01
 0.42647718433E+01 0.39189804557E+01 0.39735974450E+01 0.41407635912E+01 0.44321283166E+01
 0.48705691255E+01 0.54909038308E+01 0.63385338221E+01 0.74689763175E+01 0.89506628574E+01
 0.10871772306E+02 0.13349829905E+02 0.16538299915E+02 0.20620855063E+02 0.25789530054E+02
 0.32216586472E+02 0.40037069758E+02 0.49347735875E+02 0.60202185169E+02 0.72004316483E+02
 0.82540938209E+02 0.89137305039E+02 0.89318694218E+02 0.81405734929E+02 0.65137010374E+02
 0.42145717398E+02 0.16024219167E+02 -.82425509992E+01 -.25459649433E+02 -.31688492104E+02
 -.25459649433E+02 -.82425509992E+01 0.16024219167E+02 0.42145717398E+02 0.65137010374E+02
 0.81405734929E+02 0.89318694218E+02 0.89137305039E+02 0.82540938209E+02 0.72004316483E+02
 0.60202185169E+02 0.49347735875E+02 0.40037069758E+02 0.32216586472E+02 0.25789530054E+02
 0.20620855063E+02 0.16538299915E+02 0.13349829905E+02 0.10871772306E+02 0.89506628574E+01
 0.74689763175E+01 0.63385338221E+01 0.54909038308E+01 0.48705691255E+01 0.44321283166E+01
 0.41407635912E+01 0.39735974450E+01 0.37522761929E+01 0.38067583286E+01 0.39735974450E+01
 0.42647718433E+01 0.47038265656E+01 0.53264503117E+01 0.61789812556E+01 0.73181317532E+01
 0.88142466036E+01 0.10758556060E+02 0.13272972842E+02 0.16516504263E+02 0.20678786332E+02
 0.25957314665E+02 0.32529292431E+02 0.40535642947E+02 0.50081359962E+02 0.61219558683E+02
 0.73127334582E+02 0.83368349594E+02 0.89109205235E+02 0.87741399223E+02 0.77515488597E+02
 0.58219161577E+02 0.31705949184E+02 0.19730205016E+01 -.25459649433E+02 -.44851611906E+02
 -.51855880605E+02 -.44851611906E+02 -.25459649433E+02 0.19730205016E+01 0.31705949184E+02
 0.58219161577E+02 0.77515488597E+02 0.87741399223E+02 0.89109205235E+02 0.83368349594E+02
 0.73127334582E+02 0.61219558683E+02 0.50081359962E+02 0.40535642947E+02 0.32529292431E+02
 0.25957314665E+02 0.20678786332E+02 0.16516504263E+02 0.13272972842E+02 0.10758556060E+02
 0.88142466036E+01 0.73181317532E+01 0.61789812556E+01 0.53264503117E+01 0.47038265656E+01
 0.42647718433E+01 0.39735974450E+01 0.38067583287E+01 0.36978473023E+01 0.37522761929E+01
 0.39189804557E+01 0.42100456708E+01 0.46492358317E+01 0.52725248444E+01 0.61265595196E+01
 0.72684553022E+01 0.87692118390E+01 0.10721101818E+02 0.13247524335E+02 0.16509347509E+02
 0.20698193830E+02 0.26013375372E+02 0.32633770052E+02 0.40702353784E+02 0.50327001142E+02
 0.61558179371E+02 0.73489196271E+02 0.83611257612E+02 0.89035529844E+02 0.87106248789E+02
 0.76048845418E+02 0.55668151902E+02 0.27895964766E+02 -.31264012992E+01 -.31688492104E+02
 -.51855880605E+02 -.59136536332E+02 -.51855880605E+02 -.31688492104E+02 -.31264012992E+01
 0.27895964766E+02 0.55668151902E+02 0.76048845418E+02 0.87106248789E+02 0.89035529844E+02
 0.83611257612E+02 0.73489196271E+02 0.61558179371E+02 0.50327001142E+02 0.40702353784E+02
 0.32633770052E+02 0.26013375372E+02 0.20698193830E+02 0.16509347509E+02 0.13247524335E+02
 0.10721101818E+02 0.87692118390E+01 0.72684553022E+01 0.61265595196E+01 0.52725248444E+01