   8   8   0   0
  0.2082684E+02  0.5502640E-09  0.5502640E-09  0.5502640E-09  0.1000000E-15
  1.000000000000000E-004
  CAR 
 GaAs                                    
     11.49434107    -10.71209266  301      4.98276701      1.00000000
    -10.712  0.0000E+00  0.0000E+00
    -10.638  0.0000E+00  0.0000E+00
    -10.564  0.0000E+00  0.0000E+00
    -10.490  0.0000E+00  0.0000E+00
    -10.416  0.0000E+00  0.0000E+00
    -10.342  0.0000E+00  0.0000E+00
    -10.268  0.0000E+00  0.0000E+00
    -10.194  0.0000E+00  0.0000E+00
    -10.120  0.0000E+00  0.0000E+00
    -10.046  0.0000E+00  0.0000E+00
     -9.972  0.0000E+00  0.0000E+00
     -9.898  0.0000E+00  0.0000E+00
     -9.824  0.0000E+00  0.0000E+00
     -9.750  0.0000E+00  0.0000E+00
     -9.676  0.6997E-04  0.6278E-06
     -9.602  0.9839E-03  0.3311E-04
     -9.528  0.2956E-02  0.1724E-03
     -9.454  0.5333E-02  0.4843E-03
     -9.380  0.6685E-02  0.9357E-03
     -9.306  0.7014E-02  0.1448E-02
     -9.232  0.7355E-02  0.1977E-02
     -9.158  0.8102E-02  0.2547E-02
     -9.084  0.9126E-02  0.3184E-02
     -9.010  0.1021E-01  0.3899E-02
     -8.936  0.1267E-01  0.4711E-02
     -8.862  0.1755E-01  0.5837E-02
     -8.788  0.2119E-01  0.7278E-02
     -8.714  0.1874E-01  0.8775E-02
     -8.639  0.1613E-01  0.1006E-01
     -8.565  0.1535E-01  0.1121E-01
     -8.491  0.1516E-01  0.1234E-01
     -8.417  0.1485E-01  0.1345E-01
     -8.343  0.1441E-01  0.1454E-01
     -8.269  0.2033E-01  0.1562E-01
     -8.195  0.1581E-01  0.1696E-01
     -8.121  0.8490E-02  0.1793E-01
     -8.047  0.9079E-02  0.1852E-01
     -7.973  0.1507E-01  0.1941E-01
     -7.899  0.2133E-01  0.2078E-01
     -7.825  0.2269E-01  0.2241E-01
     -7.751  0.2355E-01  0.2427E-01
     -7.677  0.2372E-01  0.2594E-01
     -7.603  0.2569E-01  0.2777E-01
     -7.529  0.2730E-01  0.2973E-01
     -7.455  0.5221E-01  0.3302E-01
     -7.381  0.4607E-01  0.3673E-01
     -7.307  0.3644E-01  0.3978E-01
     -7.233  0.3222E-01  0.4213E-01
     -7.159  0.2746E-01  0.4410E-01
     -7.085  0.2949E-01  0.4621E-01
     -7.011  0.3182E-01  0.4847E-01
     -6.937  0.5918E-01  0.5205E-01
     -6.863  0.4826E-01  0.5576E-01
     -6.789  0.5314E-01  0.5950E-01
     -6.715  0.5441E-01  0.6353E-01
     -6.641  0.3880E-01  0.6724E-01
     -6.567  0.3640E-01  0.7002E-01
     -6.493  0.3410E-01  0.7263E-01
     -6.419  0.3190E-01  0.7507E-01
     -6.345  0.2904E-01  0.7738E-01
     -6.271  0.1831E-01  0.7979E-01
     -6.197  0.0000E+00  0.8000E-01
     -6.123  0.0000E+00  0.8000E-01
     -6.049  0.0000E+00  0.8000E-01
     -5.975  0.0000E+00  0.8000E-01
     -5.901  0.0000E+00  0.8000E-01
     -5.827  0.0000E+00  0.8000E-01
     -5.753  0.0000E+00  0.8000E-01
     -5.679  0.0000E+00  0.8000E-01
     -5.605  0.0000E+00  0.8000E-01
     -5.531  0.0000E+00  0.8000E-01
     -5.457  0.0000E+00  0.8000E-01
     -5.383  0.0000E+00  0.8000E-01
     -5.309  0.0000E+00  0.8000E-01
     -5.235  0.0000E+00  0.8000E-01
     -5.160  0.0000E+00  0.8000E-01
     -5.086  0.0000E+00  0.8000E-01
     -5.012  0.0000E+00  0.8000E-01
     -4.938  0.0000E+00  0.8000E-01
     -4.864  0.0000E+00  0.8000E-01
     -4.790  0.0000E+00  0.8000E-01
     -4.716  0.0000E+00  0.8000E-01
     -4.642  0.0000E+00  0.8000E-01
     -4.568  0.0000E+00  0.8000E-01
     -4.494  0.0000E+00  0.8000E-01
     -4.420  0.0000E+00  0.8000E-01
     -4.346  0.0000E+00  0.8000E-01
     -4.272  0.0000E+00  0.8000E-01
     -4.198  0.0000E+00  0.8000E-01
     -4.124  0.0000E+00  0.8000E-01
     -4.050  0.0000E+00  0.8000E-01
     -3.976  0.0000E+00  0.8000E-01
     -3.902  0.0000E+00  0.8000E-01
     -3.828  0.0000E+00  0.8000E-01
     -3.754  0.0000E+00  0.8000E-01
     -3.680  0.0000E+00  0.8000E-01
     -3.606  0.0000E+00  0.8000E-01
     -3.532  0.0000E+00  0.8000E-01
     -3.458  0.0000E+00  0.8000E-01
     -3.384  0.0000E+00  0.8000E-01
     -3.310  0.0000E+00  0.8000E-01
     -3.236  0.0000E+00  0.8000E-01
     -3.162  0.0000E+00  0.8000E-01
     -3.088  0.4073E-06  0.8000E-01
     -3.014  0.3770E-02  0.8009E-01
     -2.940  0.2749E-01  0.8158E-01
     -2.866  0.2915E-01  0.8339E-01
     -2.792  0.4439E-01  0.8608E-01
     -2.718  0.8787E-01  0.9087E-01
     -2.644  0.6797E-01  0.9810E-01
     -2.570  0.6114E-01  0.1026E+00
     -2.496  0.6097E-01  0.1072E+00
     -2.422  0.6412E-01  0.1119E+00
     -2.348  0.4626E-01  0.1158E+00
     -2.274  0.3591E-01  0.1188E+00
     -2.200  0.3152E-01  0.1210E+00
     -2.126  0.2081E-01  0.1228E+00
     -2.052  0.2028E-01  0.1243E+00
     -1.978  0.1977E-01  0.1258E+00
     -1.904  0.1929E-01  0.1273E+00
     -1.830  0.1884E-01  0.1287E+00
     -1.755  0.1842E-01  0.1301E+00
     -1.681  0.1803E-01  0.1314E+00
     -1.607  0.1766E-01  0.1327E+00
     -1.533  0.1466E-01  0.1340E+00
     -1.459  0.1450E-01  0.1350E+00
     -1.385  0.1431E-01  0.1361E+00
     -1.311  0.1415E-01  0.1372E+00
     -1.237  0.1389E-01  0.1382E+00
     -1.163  0.1362E-01  0.1392E+00
     -1.089  0.1334E-01  0.1402E+00
     -1.015  0.1305E-01  0.1412E+00
     -0.941  0.1276E-01  0.1422E+00
     -0.867  0.1245E-01  0.1431E+00
     -0.793  0.1214E-01  0.1440E+00
     -0.719  0.1248E-01  0.1449E+00
     -0.645  0.1201E-01  0.1458E+00
     -0.571  0.1165E-01  0.1467E+00
     -0.497  0.1140E-01  0.1475E+00
     -0.423  0.1183E-01  0.1484E+00
     -0.349  0.2335E-01  0.1495E+00
     -0.275  0.2157E-01  0.1512E+00
     -0.201  0.2031E-01  0.1527E+00
     -0.127  0.1917E-01  0.1541E+00
     -0.053  0.2017E-01  0.1556E+00
      0.021  0.2127E-01  0.1571E+00
      0.095  0.3427E-01  0.1588E+00
      0.169  0.3520E-01  0.1614E+00
      0.243  0.3431E-01  0.1641E+00
      0.317  0.3004E-01  0.1663E+00
      0.391  0.3640E-01  0.1687E+00
      0.465  0.4326E-01  0.1717E+00
      0.539  0.4725E-01  0.1751E+00
      0.613  0.4791E-01  0.1787E+00
      0.687  0.4796E-01  0.1822E+00
      0.761  0.4740E-01  0.1857E+00
      0.835  0.3859E-01  0.1889E+00
      0.909  0.4083E-01  0.1918E+00
      0.983  0.3338E-01  0.1949E+00
      1.057  0.2902E-01  0.1970E+00
      1.131  0.2962E-01  0.1992E+00
      1.205  0.3085E-01  0.2014E+00
      1.279  0.3445E-01  0.2038E+00
      1.353  0.3501E-01  0.2066E+00
      1.427  0.5180E-01  0.2097E+00
      1.501  0.6065E-01  0.2139E+00
      1.575  0.6506E-01  0.2187E+00
      1.649  0.7611E-01  0.2241E+00
      1.724  0.6507E-01  0.2294E+00
      1.798  0.5331E-01  0.2337E+00
      1.872  0.4350E-01  0.2373E+00
      1.946  0.3404E-01  0.2401E+00
      2.020  0.3047E-01  0.2424E+00
      2.094  0.2864E-01  0.2446E+00
      2.168  0.2875E-01  0.2467E+00
      2.242  0.3513E-01  0.2491E+00
      2.316  0.4230E-01  0.2519E+00
      2.390  0.6570E-01  0.2557E+00
      2.464  0.4575E-01  0.2595E+00
      2.538  0.5120E-01  0.2633E+00
      2.612  0.4609E-01  0.2667E+00
      2.686  0.5440E-01  0.2703E+00
      2.760  0.6997E-01  0.2746E+00
      2.834  0.5618E-01  0.2793E+00
      2.908  0.4113E-01  0.2825E+00
      2.982  0.3678E-01  0.2854E+00
      3.056  0.3247E-01  0.2879E+00
      3.130  0.2742E-01  0.2906E+00
      3.204  0.1951E-01  0.2921E+00
      3.278  0.1774E-01  0.2934E+00
      3.352  0.1669E-01  0.2947E+00
      3.426  0.2019E-01  0.2960E+00
      3.500  0.2788E-01  0.2978E+00
      3.574  0.3999E-01  0.3005E+00
      3.648  0.4043E-01  0.3033E+00
      3.722  0.4420E-01  0.3065E+00
      3.796  0.4768E-01  0.3098E+00
      3.870  0.2936E-01  0.3126E+00
      3.944  0.1344E-01  0.3139E+00
      4.018  0.1191E-01  0.3148E+00
      4.092  0.1044E-01  0.3156E+00
      4.166  0.9030E-02  0.3164E+00
      4.240  0.7688E-02  0.3170E+00
      4.314  0.7451E-02  0.3175E+00
      4.388  0.7595E-02  0.3181E+00
      4.462  0.7189E-02  0.3186E+00
      4.536  0.6233E-02  0.3191E+00
      4.610  0.4728E-02  0.3196E+00
      4.684  0.2672E-02  0.3198E+00
      4.758  0.8418E-03  0.3199E+00
      4.832  0.3303E-03  0.3200E+00
      4.906  0.5382E-04  0.3200E+00
      4.980  0.0000E+00  0.3200E+00
      5.054  0.0000E+00  0.3200E+00
      5.128  0.0000E+00  0.3200E+00
      5.203  0.0000E+00  0.3200E+00
      5.277  0.0000E+00  0.3200E+00
      5.351  0.0000E+00  0.3200E+00
      5.425  0.0000E+00  0.3200E+00
      5.499  0.0000E+00  0.3200E+00
      5.573  0.0000E+00  0.3200E+00
      5.647  0.0000E+00  0.3200E+00
      5.721  0.0000E+00  0.3200E+00
      5.795  0.0000E+00  0.3200E+00
      5.869  0.0000E+00  0.3200E+00
      5.943  0.1822E-02  0.3200E+00
      6.017  0.2288E-02  0.3202E+00
      6.091  0.2863E-02  0.3204E+00
      6.165  0.3549E-02  0.3206E+00
      6.239  0.4344E-02  0.3209E+00
      6.313  0.5248E-02  0.3213E+00
      6.387  0.6286E-02  0.3217E+00
      6.461  0.7022E-02  0.3222E+00
      6.535  0.7575E-02  0.3227E+00
      6.609  0.8487E-02  0.3233E+00
      6.683  0.9759E-02  0.3240E+00
      6.757  0.1297E-01  0.3248E+00
      6.831  0.2594E-01  0.3262E+00
      6.905  0.3024E-01  0.3284E+00
      6.979  0.2343E-01  0.3302E+00
      7.053  0.2541E-01  0.3321E+00
      7.127  0.2754E-01  0.3340E+00
      7.201  0.3019E-01  0.3361E+00
      7.275  0.3278E-01  0.3385E+00
      7.349  0.3780E-01  0.3410E+00
      7.423  0.6053E-01  0.3458E+00
      7.497  0.5471E-01  0.3501E+00
      7.571  0.5948E-01  0.3545E+00
      7.645  0.3867E-01  0.3581E+00
      7.719  0.4480E-01  0.3612E+00
      7.793  0.7114E-01  0.3655E+00
      7.867  0.5170E-01  0.3701E+00
      7.941  0.4234E-01  0.3733E+00
      8.015  0.5341E-01  0.3770E+00
      8.089  0.5703E-01  0.3811E+00
      8.163  0.4980E-01  0.3853E+00
      8.237  0.4801E-01  0.3890E+00
      8.311  0.4558E-01  0.3924E+00
      8.385  0.3727E-01  0.3956E+00
      8.459  0.3534E-01  0.3983E+00
      8.533  0.3245E-01  0.4008E+00
      8.608  0.3156E-01  0.4032E+00
      8.682  0.3204E-01  0.4055E+00
      8.756  0.2776E-01  0.4078E+00
      8.830  0.2379E-01  0.4097E+00
      8.904  0.1764E-01  0.4112E+00
      8.978  0.2331E-01  0.4127E+00
      9.052  0.3242E-01  0.4147E+00
      9.126  0.4095E-01  0.4174E+00
      9.200  0.1274E+00  0.4234E+00
      9.274  0.8050E-01  0.4311E+00
      9.348  0.5871E-01  0.4360E+00
      9.422  0.4850E-01  0.4398E+00
      9.496  0.4459E-01  0.4432E+00
      9.570  0.4181E-01  0.4464E+00
      9.644  0.3965E-01  0.4494E+00
      9.718  0.4230E-01  0.4525E+00
      9.792  0.4026E-01  0.4553E+00
      9.866  0.5006E-01  0.4588E+00
      9.940  0.4392E-01  0.4621E+00
     10.014  0.4327E-01  0.4653E+00
     10.088  0.4175E-01  0.4685E+00
     10.162  0.3937E-01  0.4715E+00
     10.236  0.3351E-01  0.4743E+00
     10.310  0.2341E-01  0.4764E+00
     10.384  0.3335E-01  0.4784E+00
     10.458  0.7594E-02  0.4799E+00
     10.532  0.0000E+00  0.4800E+00
     10.606  0.0000E+00  0.4800E+00
     10.680  0.0000E+00  0.4800E+00
     10.754  0.0000E+00  0.4800E+00
     10.828  0.0000E+00  0.4800E+00
     10.902  0.0000E+00  0.4800E+00
     10.976  0.0000E+00  0.4800E+00
     11.050  0.0000E+00  0.4800E+00
     11.124  0.0000E+00  0.4800E+00
     11.198  0.0000E+00  0.4800E+00
     11.272  0.0000E+00  0.4800E+00
     11.346  0.0000E+00  0.4800E+00
     11.420  0.0000E+00  0.4800E+00
     11.494  0.0000E+00  0.4800E+00
