       N       E                     dE             d eps       ncg     rms          rms(c)
DAV:   1    -0.325893086012E+02   -0.32589E+02   -0.75425E+00   544   0.117E+01    0.528E+00
DAV:   2    -0.323990554323E+02    0.19025E+00   -0.38757E-01   496   0.286E+00    0.317E+00
DAV:   3    -0.323408903101E+02    0.58165E-01   -0.30976E-01   512   0.202E+00    0.319E-01
DAV:   4    -0.323357244572E+02    0.51659E-02   -0.23270E-02   504   0.682E-01    0.213E-01
DAV:   5    -0.323353283272E+02    0.39613E-03   -0.20480E-03   560   0.181E-01    0.582E-02
DAV:   6    -0.323353519957E+02   -0.23668E-04   -0.42759E-05   256   0.308E-02
   1 F= 0.40620830E+01 E0= 0.40620830E+01  d E =0.406208E+01
       N       E                     dE             d eps       ncg     rms          rms(c)
DAV:   1    -0.311452210310E+02    0.11901E+01   -0.76049E+00   544   0.124E+01    0.307E+00
DAV:   2    -0.308991711512E+02    0.24605E+00   -0.47439E-01   504   0.302E+00    0.165E+00
DAV:   3    -0.308093806752E+02    0.89790E-01   -0.31189E-01   504   0.210E+00    0.601E-01
DAV:   4    -0.308071961898E+02    0.21845E-02   -0.10616E-02   520   0.499E-01    0.492E-01
DAV:   5    -0.308049297916E+02    0.22664E-02   -0.46546E-03   552   0.287E-01    0.169E-01
DAV:   6    -0.308049246483E+02    0.51433E-05   -0.35849E-04   464   0.780E-02
   2 F= 0.25231982E+01 E0= 0.25231982E+01  d E =-.153888E+01
       N       E                     dE             d eps       ncg     rms          rms(c)
DAV:   1    -0.294943110521E+02    0.13106E+01   -0.27912E+00   552   0.757E+00    0.190E+00
DAV:   2    -0.294020604476E+02    0.92251E-01   -0.16713E-01   496   0.184E+00    0.102E+00
DAV:   3    -0.293680497375E+02    0.34011E-01   -0.11514E-01   520   0.129E+00    0.366E-01
DAV:   4    -0.293673236136E+02    0.72612E-03   -0.38118E-03   512   0.302E-01    0.303E-01
DAV:   5    -0.293665203517E+02    0.80326E-03   -0.16215E-03   552   0.171E-01    0.102E-01
DAV:   6    -0.293665153024E+02    0.50493E-05   -0.11557E-04   272   0.464E-02
   3 F= 0.21928006E+01 E0= 0.21928006E+01  d E =-.186928E+01
       N       E                     dE             d eps       ncg     rms          rms(c)
DAV:   1    -0.291194580440E+02    0.24706E+00   -0.60442E-02   552   0.110E+00    0.277E-01
DAV:   2    -0.291174459812E+02    0.20121E-02   -0.34663E-03   496   0.270E-01    0.149E-01
DAV:   3    -0.291167446763E+02    0.70130E-03   -0.25029E-03   528   0.191E-01    0.507E-02
DAV:   4    -0.291167294273E+02    0.15249E-04   -0.79378E-05   248   0.450E-02
   4 F= 0.21874396E+01 E0= 0.21874396E+01  d E =-.187464E+01
