 vasp.6.4.3 19Mar24 (build Aug 29 2024 15:27:20) complex                        
  
 executed on             LinuxIFC date 2025.03.19  11:22:05
 running    8 mpi-ranks, on    1 nodes
 distrk:  each k-point on    8 cores,    1 groups
 distr:  one band on NCORE=   1 cores,    8 groups


--------------------------------------------------------------------------------------------------------


 INCAR:
   SYSTEM = GaAs
   PREC = Normal
   ENCUT = 400
   ISMEAR = -5
   SIGMA = 0.1
   IBRION = 2
   POTIM = 0.1
   NFREE = 2
   NSW = 100
   ISIF = 3
   PSTRESS = 350

 POTCAR:    PAW_PBE As 22Sep2009                  
 POTCAR:    PAW_PBE Ga 08Apr2002                  
 -----------------------------------------------------------------------------
|                                                                             |
|           W    W    AA    RRRRR   N    N  II  N    N   GGGG   !!!           |
|           W    W   A  A   R    R  NN   N  II  NN   N  G    G  !!!           |
|           W    W  A    A  R    R  N N  N  II  N N  N  G       !!!           |
|           W WW W  AAAAAA  RRRRR   N  N N  II  N  N N  G  GGG   !            |
|           WW  WW  A    A  R   R   N   NN  II  N   NN  G    G                |
|           W    W  A    A  R    R  N    N  II  N    N   GGGG   !!!           |
|                                                                             |
|     For optimal performance we recommend to set                             |
|       NCORE = 2 up to number-of-cores-per-socket                            |
|     NCORE specifies how many cores store one orbital (NPAR=cpu/NCORE).      |
|     This setting can greatly improve the performance of VASP for DFT.       |
|     The default, NCORE=1 might be grossly inefficient on modern             |
|     multi-core architectures or massively parallel machines. Do your        |
|     own testing! More info at https://www.vasp.at/wiki/index.php/NCORE      |
|     Unfortunately you need to use the default for GW and RPA                |
|     calculations (for HF NCORE is supported but not extensively tested      |
|     yet).                                                                   |
|                                                                             |
 -----------------------------------------------------------------------------

 POTCAR:    PAW_PBE As 22Sep2009                  
   VRHFIN =As: s2p3                                                                                 
   LEXCH  = PE                                                                                      
   EATOM  =   170.1867 eV,   12.5084 Ry                                                             
                                                                                                    
   TITEL  = PAW_PBE As 22Sep2009                                                                    
   LULTRA =        F    use ultrasoft PP ?                                                          
   IUNSCR =        1    unscreen: 0-lin 1-nonlin 2-no                                               
   RPACOR =    1.900    partial core radius                                                         
   POMASS =   74.922; ZVAL   =    5.000    mass and valenz                                          
   RCORE  =    2.100    outmost cutoff radius                                                       
   RWIGS  =    2.300; RWIGS  =    1.217    wigner-seitz radius (au A)                               
   ENMAX  =  208.702; ENMIN  =  156.526 eV                                                          
   ICORE  =        3    local potential                                                             
   LCOR   =        T    correct aug charges                                                         
   LPAW   =        T    paw PP                                                                      
   EAUG   =  462.758                                                                                
   DEXC   =    0.000                                                                                
   RMAX   =    2.144    core radius for proj-oper                                                   
   RAUG   =    1.300    factor for augmentation sphere                                              
   RDEP   =    2.140    radius for radial grids                                                     
   RDEPT  =    1.956    core radius for aug-charge                                                  
                                                                                                    
   Atomic configuration                                                                             
   10 entries                                                                                       
     n  l   j            E        occ.                                                              
     1  0  0.50    -11718.0418   2.0000                                                             
     2  0  0.50     -1486.5454   2.0000                                                             
     2  1  1.50     -1303.3889   6.0000                                                             
     3  0  0.50      -190.2849   2.0000                                                             
     3  1  1.50      -133.6555   6.0000                                                             
     3  2  2.50       -40.6443  10.0000                                                             
     4  0  0.50       -14.4936   2.0000                                                             
     4  1  0.50        -5.1947   3.0000                                                             
     4  2  1.50        -5.4423   0.0000                                                             
     4  3  2.50        -5.4423   0.0000                                                             
   Description                                                                                      
     l       E           TYP  RCUT    TYP  RCUT                                                     
     0    -14.4935570     23  2.100                                                                 
     0    -11.9212055     23  2.100                                                                 
     1     -5.1947127     23  2.100                                                                 
     1     27.2116520     23  2.100                                                                 
     2     -5.4423304     23  2.100                                                                 
     3     -1.3605826      7  2.100                                                                 
  local pseudopotential read in
  partial core-charges read in
  partial kinetic energy density read in
  atomic valenz-charges read in
  non local Contribution for L=           0  read in
    real space projection operators read in
  non local Contribution for L=           0  read in
    real space projection operators read in
  non local Contribution for L=           1  read in
    real space projection operators read in
  non local Contribution for L=           1  read in
    real space projection operators read in
  non local Contribution for L=           2  read in
    real space projection operators read in
    PAW grid and wavefunctions read in
 
   number of l-projection  operators is LMAX  =           5
   number of lm-projection operators is LMMAX =          13
 
 POTCAR:    PAW_PBE Ga 08Apr2002                  
   VRHFIN =Ga: s2p1                                                                                 
   LEXCH  = PE                                                                                      
   EATOM  =    58.8688 eV,    4.3267 Ry                                                             
                                                                                                    
   TITEL  = PAW_PBE Ga 08Apr2002                                                                    
   LULTRA =        F    use ultrasoft PP ?                                                          
   IUNSCR =        1    unscreen: 0-lin 1-nonlin 2-no                                               
   RPACOR =    2.170    partial core radius                                                         
   POMASS =   69.723; ZVAL   =    3.000    mass and valenz                                          
   RCORE  =    2.600    outmost cutoff radius                                                       
   RWIGS  =    2.650; RWIGS  =    1.402    wigner-seitz radius (au A)                               
   ENMAX  =  134.678; ENMIN  =  101.009 eV                                                          
   ICORE  =        3    local potential                                                             
   LCOR   =        T    correct aug charges                                                         
   LPAW   =        T    paw PP                                                                      
   EAUG   =  320.264                                                                                
   DEXC   =    0.000                                                                                
   RMAX   =    2.658    core radius for proj-oper                                                   
   RAUG   =    1.300    factor for augmentation sphere                                              
   RDEP   =    2.684    radius for radial grids                                                     
   RDEPT  =    2.308    core radius for aug-charge                                                  
                                                                                                    
   Atomic configuration                                                                             
   10 entries                                                                                       
     n  l   j            E        occ.                                                              
     1  0  0.50    -10228.7830   2.0000                                                             
     2  0  0.50     -1262.1604   2.0000                                                             
     2  1  1.50     -1098.6333   6.0000                                                             
     3  0  0.50      -148.1110   2.0000                                                             
     3  1  1.50       -98.8436   6.0000                                                             
     3  2  2.50       -19.1549  10.0000                                                             
     4  0  0.50        -8.9483   2.0000                                                             
     4  1  0.50        -2.5791   1.0000                                                             
     4  2  1.50         5.4423   0.0000                                                             
     4  3  2.50        -2.7416   0.0000                                                             
   Description                                                                                      
     l       E           TYP  RCUT    TYP  RCUT                                                     
     0     -8.9483097     23  2.600                                                                 
     0     -5.8232215     23  2.600                                                                 
     1     -2.5790793     23  2.600                                                                 
     1      5.2230115     23  2.600                                                                 
     2      1.3605826     23  2.600                                                                 
     3     -1.3605826      7  2.600                                                                 
  local pseudopotential read in
  partial core-charges read in
  partial kinetic energy density read in
  atomic valenz-charges read in
  non local Contribution for L=           0  read in
    real space projection operators read in
  non local Contribution for L=           0  read in
    real space projection operators read in
  non local Contribution for L=           1  read in
    real space projection operators read in
  non local Contribution for L=           1  read in
    real space projection operators read in
  non local Contribution for L=           2  read in
    real space projection operators read in
    PAW grid and wavefunctions read in
 
   number of l-projection  operators is LMAX  =           5
   number of lm-projection operators is LMMAX =          13
 
  PAW_PBE As 22Sep2009                  :
 energy of atom  1       EATOM= -170.1867
 kinetic energy error for atom=    0.0013 (will be added to EATOM!!)
  PAW_PBE Ga 08Apr2002                  :
 energy of atom  2       EATOM=  -58.8688
 kinetic energy error for atom=    0.0001 (will be added to EATOM!!)
 
 
 POSCAR: cubic gallium arsenide
  positions in direct lattice
  velocities in cartesian coordinates


 exchange-correlation table for PE
   RHO(1)=    0.500       N(1)  =     2000
   RHO(2)=  100.500       N(2)  =     4000
 


--------------------------------------------------------------------------------------------------------


 ion  position               nearest neighbor table
   1  0.000  0.000  0.000-   5 2.38   6 2.38   7 2.38   8 2.38
   2  0.500  0.500  0.000-   5 2.38   6 2.38   7 2.38   8 2.38
   3  0.500  0.000  0.500-   5 2.38   6 2.38   7 2.38   8 2.38
   4  0.000  0.500  0.500-   5 2.38   6 2.38   7 2.38   8 2.38
   5  0.250  0.250  0.250-   1 2.38   2 2.38   3 2.38   4 2.38
   6  0.750  0.250  0.750-   1 2.38   2 2.38   3 2.38   4 2.38
   7  0.750  0.750  0.250-   1 2.38   2 2.38   3 2.38   4 2.38
   8  0.250  0.750  0.750-   1 2.38   2 2.38   3 2.38   4 2.38
 
  LATTYP: Found a simple cubic cell.
 ALAT       =     5.5026400603
  
  Lattice vectors:
  
 A1 = (   5.5026400603,   0.0000000000,   0.0000000000)
 A2 = (   0.0000000000,   5.5026400603,   0.0000000000)
 A3 = (   0.0000000000,   0.0000000000,   5.5026400603)


Analysis of symmetry for initial positions (statically):
=====================================================================
 Subroutine PRICEL returns following result:
 
  LATTYP: Found a face centered cubic cell.
 ALAT       =     5.5026400603
  
  Lattice vectors:
  
 A1 = (   2.7513200301,  -2.7513200301,   0.0000000000)
 A2 = (   2.7513200301,   0.0000000000,   2.7513200301)
 A3 = (   0.0000000000,  -2.7513200301,   2.7513200301)
 
   4 primitive cells build up your supercell.
 

 Routine SETGRP: Setting up the symmetry group for a 
 simple cubic supercell.


 Subroutine GETGRP returns: Found 24 space group operations
 (whereof 24 operations were pure point group operations)
 out of a pool of 48 trial point group operations.


The static configuration has the point symmetry T_d .


Analysis of symmetry for dynamics (positions and initial velocities):
=====================================================================
 Subroutine PRICEL returns following result:
 
  LATTYP: Found a face centered cubic cell.
 ALAT       =     5.5026400603
  
  Lattice vectors:
  
 A1 = (   2.7513200301,  -2.7513200301,   0.0000000000)
 A2 = (   2.7513200301,   0.0000000000,   2.7513200301)
 A3 = (   0.0000000000,  -2.7513200301,   2.7513200301)
 
   4 primitive cells build up your supercell.
 

 Routine SETGRP: Setting up the symmetry group for a 
 simple cubic supercell.


 Subroutine GETGRP returns: Found 24 space group operations
 (whereof 24 operations were pure point group operations)
 out of a pool of 48 trial point group operations.


The dynamic configuration has the point symmetry T_d .


 Subroutine INISYM returns: Found 24 space group operations
 (whereof 24 operations are pure point group operations),
 and found     4 'primitive' translations


----------------------------------------------------------------------------------------

                                     Primitive cell                                     

  volume of cell :      41.6537

  direct lattice vectors                    reciprocal lattice vectors
     2.751320030 -2.751320030  0.000000000     0.181730949 -0.181730949 -0.181730949
     2.751320030  0.000000000  2.751320030     0.181730949  0.181730949  0.181730949
     0.000000000 -2.751320030  2.751320030    -0.181730949 -0.181730949  0.181730949

  length of vectors
     3.890954101  3.890954101  3.890954101     0.314767237  0.314767237  0.314767237

  position of ions in fractional coordinates (direct lattice)
     0.000000000  0.000000000  0.000000000
     0.750000000  0.750000000  0.750000000

  ion indices of the primitive-cell ions
   primitive index   ion index
                 1           1
                 2           5

----------------------------------------------------------------------------------------

 
 
 KPOINTS: Automatic mesh                          

Automatic generation of k-mesh.
 Grid dimensions read from file:
 generate k-points for:    5    5    5

 Generating k-lattice:

  Cartesian coordinates                     Fractional coordinates (reciprocal lattice)
     0.036346190  0.000000000  0.000000000     0.200000000  0.000000000  0.000000000
     0.000000000  0.036346190  0.000000000     0.000000000  0.200000000  0.000000000
     0.000000000  0.000000000  0.036346190     0.000000000  0.000000000  0.200000000

  Length of vectors
     0.036346190  0.036346190  0.036346190

  Shift w.r.t. Gamma in fractional coordinates (k-lattice)
     0.000000000  0.000000000  0.000000000

 TETIRR: Found     57 inequivalent tetrahedra from      750
 
 Subroutine IBZKPT returns following result:
 ===========================================
 
 Found     10 irreducible k-points:
 
 Following reciprocal coordinates:
            Coordinates               Weight
  0.000000  0.000000  0.000000      1.000000
  0.200000  0.000000  0.000000      6.000000
  0.400000  0.000000  0.000000      6.000000
  0.200000  0.200000  0.000000     12.000000
  0.400000  0.200000  0.000000     24.000000
  0.400000  0.400000  0.000000     12.000000
  0.200000  0.200000  0.200000      8.000000
  0.400000  0.200000  0.200000     24.000000
  0.400000  0.400000  0.200000     24.000000
  0.400000  0.400000  0.400000      8.000000
 
 Following cartesian coordinates:
            Coordinates               Weight
  0.000000  0.000000  0.000000      1.000000
  0.163558  0.000000  0.000000      6.000000
  0.327116  0.000000  0.000000      6.000000
  0.163558  0.163558  0.000000     12.000000
  0.327116  0.163558  0.000000     24.000000
  0.327116  0.327116  0.000000     12.000000
  0.163558  0.163558  0.163558      8.000000
  0.327116  0.163558  0.163558     24.000000
  0.327116  0.327116  0.163558     24.000000
  0.327116  0.327116  0.327116      8.000000
 


--------------------------------------------------------------------------------------------------------




 Dimension of arrays:
   k-points           NKPTS =     10   k-points in BZ     NKDIM =     10   number of bands    NBANDS=     24
   number of dos      NEDOS =    301   number of ions     NIONS =      8
   non local maximal  LDIM  =      5   non local SUM 2l+1 LMDIM =     13
   total plane-waves  NPLWV =  21952
   max r-space proj   IRMAX =      1   max aug-charges    IRDMAX=   9668
   dimension x,y,z NGX =    28 NGY =   28 NGZ =   28
   dimension x,y,z NGXF=    56 NGYF=   56 NGZF=   56
   support grid    NGXF=    56 NGYF=   56 NGZF=   56
   ions per type =               4   4
   NGX,Y,Z   is equivalent  to a cutoff of   8.46,  8.46,  8.46 a.u.
   NGXF,Y,Z  is equivalent  to a cutoff of  16.92, 16.92, 16.92 a.u.

 SYSTEM =  GaAs                                    
 POSCAR =  cubic gallium arsenide                  

 Startparameter for this run:
   NWRITE =      2    write-flag & timer
   PREC   = normal    normal or accurate (medium, high low for compatibility)
   ISTART =      1    job   : 0-new  1-cont  2-samecut
   ICHARG =      0    charge: 1-file 2-atom 10-const
   ISPIN  =      1    spin polarized calculation?
   LNONCOLLINEAR =      F non collinear calculations
   LSORBIT =      F    spin-orbit coupling
   INIWAV =      1    electr: 0-lowe 1-rand  2-diag
   LASPH  =      F    aspherical Exc in radial PAW
 Electronic Relaxation 1
   ENCUT  =  400.0 eV  29.40 Ry    5.42 a.u.   8.97  8.97  8.97*2*pi/ulx,y,z
   ENINI  =  400.0     initial cutoff
   ENAUG  =  462.8 eV  augmentation charge cutoff
   NELM   =     60;   NELMIN=  2; NELMDL=  0     # of ELM steps 
   EDIFF  = 0.1E-03   stopping-criterion for ELM
   LREAL  =      F    real-space projection
   NLSPLINE    = F    spline interpolate recip. space projectors
   LCOMPAT=      F    compatible to vasp.4.4
   GGA_COMPAT  = T    GGA compatible to vasp.4.4-vasp.4.6
   LMAXPAW     = -100 max onsite density
   LMAXMIX     =    2 max onsite mixed and CHGCAR
   VOSKOWN=      0    Vosko Wilk Nusair interpolation
   ROPT   =    0.00000   0.00000
 Ionic relaxation
   EDIFFG = 0.1E-02   stopping-criterion for IOM
   NSW    =    100    number of steps for IOM
   NBLOCK =      1;   KBLOCK =    100    inner block; outer block 
   IBRION =      2    ionic relax: 0-MD 1-quasi-New 2-CG
   NFREE  =      2    steps in history (QN), initial steepest desc. (CG)
   ISIF   =      3    stress and relaxation
   IWAVPR =     11    prediction:  0-non 1-charg 2-wave 3-comb
   ISYM   =      2    0-nonsym 1-usesym 2-fastsym
   LCORR  =      T    Harris-Foulkes like correction to forces

   POTIM  = 0.1000    time-step for ionic-motion
   TEIN   =    0.0    initial temperature
   TEBEG  =    0.0;   TEEND  =   0.0 temperature during run
   SMASS  =  -3.00    Nose mass-parameter (am)
   estimated Nose-frequenzy (Omega)   =  0.10E-29 period in steps = 0.63E+47 mass=  -0.692E-27a.u.
   SCALEE = 1.0000    scale energy and forces
   NPACO  =    256;   APACO  = 10.0  distance and # of slots for P.C.
   PSTRESS=  350.0 pullay stress

  Mass of Ions in am
   POMASS =  74.92 69.72
  Ionic Valenz
   ZVAL   =   5.00  3.00
  Atomic Wigner-Seitz radii
   RWIGS  =  -1.00 -1.00
  virtual crystal weights 
   VCA    =   1.00  1.00
   NELECT =      32.0000    total number of electrons
   NUPDOWN=      -1.0000    fix difference up-down

 DOS related values:
   EMIN   =  10.00;   EMAX   =-10.00  energy-range for DOS
   EFERMI =   0.00;   METHOD = LEGACY      
   ISMEAR =    -5;   SIGMA  =   0.10  broadening in eV -4-tet -1-fermi 0-gaus

 Electronic relaxation 2 (details)
   IALGO  =     38    algorithm
   LDIAG  =      T    sub-space diagonalisation (order eigenvalues)
   LSUBROT=      F    optimize rotation matrix (better conditioning)
   TURBO    =      0    0=normal 1=particle mesh
   IRESTART =      0    0=no restart 2=restart with 2 vectors
   NREBOOT  =      0    no. of reboots
   NMIN     =      0    reboot dimension
   EREF     =   0.00    reference energy to select bands
   IMIX   =      4    mixing-type and parameters
     AMIX     =   0.40;   BMIX     =  1.00
     AMIX_MAG =   1.60;   BMIX_MAG =  1.00
     AMIN     =   0.10
     WC   =   100.;   INIMIX=   1;  MIXPRE=   1;  MAXMIX= -45

 Intra band minimization:
   WEIMIN = 0.0010     energy-eigenvalue tresh-hold
   EBREAK =  0.10E-05  absolut break condition
   DEPER  =   0.30     relativ break condition  

   TIME   =   0.40     timestep for ELM

  volume/ion in A,a.u.               =      20.83       140.55
  Fermi-wavevector in a.u.,A,eV,Ry     =   0.944540  1.784922 12.138518  0.892156
  Thomas-Fermi vector in A             =   2.072355
 
 Write flags
   LWAVE        =      T    write WAVECAR
   LDOWNSAMPLE  =      F    k-point downsampling of WAVECAR
   LCHARG       =      T    write CHGCAR
   LVTOT        =      F    write LOCPOT, total local potential
   LVHAR        =      F    write LOCPOT, Hartree potential only
   WRT_POTENTIAL= false  ! write potential to hdf5 file
   LELF         =      F    write electronic localiz. function (ELF)
   LORBIT       =      0    0 simple, 1 ext, 2 COOP (PROOUT), +10 PAW based schemes


 Dipole corrections
   LMONO      =      F    monopole corrections only (constant potential shift)
   LDIPOL     =      F    correct potential (dipole corrections)
   IDIPOL     =      0    1-x, 2-y, 3-z, 4-all directions 
   EPSILON    =  1.0000000 bulk dielectric constant
   LVACPOTAV  =      F  vacuum potentials using an averaging scheme for the charge density
   VACPOTFLAT =  0.1000000 required flatness to determine vacuum potential
 Exchange correlation treatment:
   GGA     = PE    functional components
   XC_C    = 1    coefficients multiplying the functional components
   LIBXC   =     F    Libxc                    
   VOSKOWN =     0    Vosko Wilk Nusair interpolation
   LHFCALC =     F    Hartree Fock is set to
   LHFONE  =     F    Hartree Fock one center treatment
   AEXX    =    0.0000 exact exchange contribution

 Parameters of functionals:
   PE:
     No parameter
 
 Van der Waals corrections
   IVDW    =     0    specifies the selected vdW correction

 Linear response parameters
   LEPSILON=     F    determine dielectric tensor
   LRPA    =     F    only Hartree local field effects (RPA)
   LNABLA  =     F    use nabla operator in PAW spheres
   LVEL    =     F    velocity operator in full k-point grid
   CSHIFT  =0.1000    complex shift for real part using Kramers Kronig
   OMEGAMAX=  -1.0    maximum frequency
   DEG_THRESHOLD= 0.2000000E-02 threshold for treating states as degnerate
   RTIME   =   -0.100 relaxation time in fs
  (WPLASMAI=    0.000 imaginary part of plasma frequency in eV, 0.658/RTIME)
   DFIELD  = 0.0000000 0.0000000 0.0000000 field for delta impulse in time
 
  Optional k-point grid parameters
   LKPOINTS_OPT  =     F    use optional k-point grid
   KPOINTS_OPT_MODE=     1    mode for optional k-point grid
 
 Orbital magnetization related:
   ORBITALMAG=     F  switch on orbital magnetization
   LCHIMAG   =     F  perturbation theory with respect to B field
   DQ        =  0.001000  dq finite difference perturbation B field
   LLRAUG    =     F  two centre corrections for induced B field
   LBONE     =     F  B-component reconstruction in AE one-centre
   LVGVCALC  =     T  calculate vGv susceptibility
   LVGVAPPL  =     F  apply vGv susceptibility instead of pGv for G=0

 Random number generation:
   RANDOM_GENERATOR = DEFAULT
   PCG_SEED         = not used


--------------------------------------------------------------------------------------------------------


 conjugate gradient relaxation of ions
 charge density and potential will be updated during run
 non-spin polarized calculation
 Variant of blocked Davidson
 Davidson routine will perform the subspace rotation
 perform sub-space diagonalisation
    after iterative eigenvector-optimisation
 modified Broyden-mixing scheme, WC =      100.0
 initial mixing is a Kerker type mixing with AMIX =  0.4000 and BMIX =      1.0000
 Hartree-type preconditioning will be used
 using additional bands            8
 reciprocal scheme for non local part
 use partial core corrections
 calculate Harris-corrections to forces 
   (improved forces if not selfconsistent)
 use gradient corrections 
 use of overlap-Matrix (Vanderbilt PP)
 Fermi weights with tetrahedron method with Bloechl corrections


--------------------------------------------------------------------------------------------------------


  energy-cutoff  :      400.00
  volume of cell :      166.61
      direct lattice vectors                 reciprocal lattice vectors
     5.502640060  0.000000000  0.000000000     0.181730949  0.000000000  0.000000000
     0.000000000  5.502640060  0.000000000     0.000000000  0.181730949  0.000000000
     0.000000000  0.000000000  5.502640060     0.000000000  0.000000000  0.181730949

  length of vectors
     5.502640060  5.502640060  5.502640060     0.181730949  0.181730949  0.181730949


 
 old parameters found on file WAVECAR:
  energy-cutoff  :      400.00
  volume of cell :      166.61
      direct lattice vectors                 reciprocal lattice vectors
     5.502640060  0.000000000  0.000000000     0.181730949  0.000000000  0.000000000
     0.000000000  5.502640060  0.000000000     0.000000000  0.181730949  0.000000000
     0.000000000  0.000000000  5.502640060     0.000000000  0.000000000  0.181730949

  length of vectors

 
 k-points in units of 2pi/SCALE and weight: Automatic mesh                          
   0.00000000  0.00000000  0.00000000       0.008
   0.16355785  0.00000000  0.00000000       0.048
   0.32711571  0.00000000  0.00000000       0.048
   0.16355785  0.16355785  0.00000000       0.096
   0.32711571  0.16355785  0.00000000       0.192
   0.32711571  0.32711571  0.00000000       0.096
   0.16355785  0.16355785  0.16355785       0.064
   0.32711571  0.16355785  0.16355785       0.192
   0.32711571  0.32711571  0.16355785       0.192
   0.32711571  0.32711571  0.32711571       0.064
 
 k-points in reciprocal lattice and weights: Automatic mesh                          
   0.00000000  0.00000000  0.00000000       0.008
   0.20000000  0.00000000  0.00000000       0.048
   0.40000000  0.00000000  0.00000000       0.048
   0.20000000  0.20000000  0.00000000       0.096
   0.40000000  0.20000000  0.00000000       0.192
   0.40000000  0.40000000  0.00000000       0.096
   0.20000000  0.20000000  0.20000000       0.064
   0.40000000  0.20000000  0.20000000       0.192
   0.40000000  0.40000000  0.20000000       0.192
   0.40000000  0.40000000  0.40000000       0.064
 
 position of ions in fractional coordinates (direct lattice) 
   0.00000000  0.00000000  0.00000000
   0.50000000  0.50000000  0.00000000
   0.50000000  0.00000000  0.50000000
   0.00000000  0.50000000  0.50000000
   0.25000000  0.25000000  0.25000000
   0.75000000  0.25000000  0.75000000
   0.75000000  0.75000000  0.25000000
   0.25000000  0.75000000  0.75000000
 
 position of ions in cartesian coordinates  (Angst):
   0.00000000  0.00000000  0.00000000
   2.75132003  2.75132003  0.00000000
   2.75132003  0.00000000  2.75132003
   0.00000000  2.75132003  2.75132003
   1.37566002  1.37566002  1.37566002
   4.12698005  1.37566002  4.12698005
   4.12698005  4.12698005  1.37566002
   1.37566002  4.12698005  4.12698005
 


--------------------------------------------------------------------------------------------------------


 k-point     1 :   0.0000 0.0000 0.0000  plane waves:    2969
 k-point     2 :   0.2000 0.0000 0.0000  plane waves:    3014
 k-point     3 :   0.4000 0.0000 0.0000  plane waves:    3010
 k-point     4 :   0.2000 0.2000 0.0000  plane waves:    3017
 k-point     5 :   0.4000 0.2000 0.0000  plane waves:    3024
 k-point     6 :   0.4000 0.4000 0.0000  plane waves:    3042
 k-point     7 :   0.2000 0.2000 0.2000  plane waves:    3043
 k-point     8 :   0.4000 0.2000 0.2000  plane waves:    3025
 k-point     9 :   0.4000 0.4000 0.2000  plane waves:    3034
 k-point    10 :   0.4000 0.4000 0.4000  plane waves:    3034

 maximum and minimum number of plane-waves per node :      3043     2969

 maximum number of plane-waves:      3043
 maximum index in each direction: 
   IXMAX=    8   IYMAX=    8   IZMAX=    8
   IXMIN=   -9   IYMIN=   -9   IZMIN=   -9


 serial   3D FFT for wavefunctions
 parallel 3D FFT for charge:
    minimum data exchange during FFTs selected (reduces bandwidth)


 total amount of memory used by VASP MPI-rank0    41314. kBytes
=======================================================================

   base      :      30000. kBytes
   nonl-proj :       6729. kBytes
   fftplans  :        858. kBytes
   grid      :       2151. kBytes
   one-center:         64. kBytes
   wavefun   :       1512. kBytes
 
     INWAV:  cpu time      0.0322: real time      0.0360
 Broyden mixing: mesh for mixing (old mesh)
   NGX = 17   NGY = 17   NGZ = 17
  (NGX  = 56   NGY  = 56   NGZ  = 56)
  gives a total of   4913 points

 charge density for first step will be calculated from the start-wavefunctions


--------------------------------------------------------------------------------------------------------


 Maximum index for augmentation-charges         1159 (set IRDMAX)


--------------------------------------------------------------------------------------------------------


 initial charge from wavefunction
 First call to EWALD:  gamma=   0.322
 Maximum number of real-space cells 3x 3x 3
 Maximum number of reciprocal cells 3x 3x 3

    FEWALD:  cpu time      0.0011: real time      0.0011


--------------------------------------- Ionic step        1  -------------------------------------------




--------------------------------------- Iteration      1(   1)  ---------------------------------------


    POTLOK:  cpu time      0.0106: real time      0.0132
    SETDIJ:  cpu time      0.0017: real time      0.0017
     EDDAV:  cpu time      0.1970: real time      0.2084
 BZINTS: Fermi energy:    3.153945;   32.000000 electrons
         Band energy:-0.765351E+02;  BLOECHL correction:    0.000000
       DOS:  cpu time      0.0004: real time      0.0004
    CHARGE:  cpu time      0.0099: real time      0.0101
    MIXING:  cpu time      0.0004: real time      0.0004
    --------------------------------------------
      LOOP:  cpu time      0.2200: real time      0.2341

 eigenvalue-minimisations  :   544
 total energy-change (2. order) :-0.3258931E+02  (-0.7542506E+00)
 number of electron      32.0000030 magnetization 
 augmentation part       -5.2505687 magnetization 

 Broyden mixing:
  rms(total) = 0.52841E+00    rms(broyden)= 0.52841E+00
  rms(prec ) = 0.66633E+00
  weight for this iteration     100.00

 Free energy of the ion-electron system (eV)
  ---------------------------------------------------
  alpha Z        PSCENC =        82.12872199
  Ewald energy   TEWEN  =      -941.78307081
  -Hartree energ DENC   =       -71.54195235
  -exchange      EXHF   =         0.00000000
  -V(xc)+E(xc)   XCENC  =      -119.79238163
  PAW double counting   =      2888.93764376    -2710.21976758
  entropy T*S    EENTRO =         0.00000000
  eigenvalues    EBANDS =       -76.53513492
  atomic energy  EATOM  =       916.21663293
  Solvation  Ediel_sol  =         0.00000000
  ---------------------------------------------------
  free energy    TOTEN  =       -32.58930860 eV

  energy without entropy =      -32.58930860  energy(sigma->0) =      -32.58930860


--------------------------------------------------------------------------------------------------------




--------------------------------------- Iteration      1(   2)  ---------------------------------------


    POTLOK:  cpu time      0.0109: real time      0.0120
    SETDIJ:  cpu time      0.0016: real time      0.0017
     EDDAV:  cpu time      0.1807: real time      0.1913
 BZINTS: Fermi energy:    3.300300;   32.000000 electrons
         Band energy:-0.724130E+02;  BLOECHL correction:    0.000000
       DOS:  cpu time      0.0003: real time      0.0003
    CHARGE:  cpu time      0.0095: real time      0.0097
    MIXING:  cpu time      0.0005: real time      0.0005
    --------------------------------------------
      LOOP:  cpu time      0.2037: real time      0.2155

 eigenvalue-minimisations  :   496
 total energy-change (2. order) : 0.1902532E+00  (-0.3875666E-01)
 number of electron      32.0000029 magnetization 
 augmentation part       -5.2428222 magnetization 

 Broyden mixing:
  rms(total) = 0.31736E+00    rms(broyden)= 0.31736E+00
  rms(prec ) = 0.37742E+00
  weight for this iteration     100.00

 eigenvalues of (default mixing * dielectric matrix)
  average eigenvalue GAMMA=   2.3963
  2.3963

 Free energy of the ion-electron system (eV)
  ---------------------------------------------------
  alpha Z        PSCENC =        82.12872199
  Ewald energy   TEWEN  =      -941.78307081
  -Hartree energ DENC   =       -75.29576849
  -exchange      EXHF   =         0.00000000
  -V(xc)+E(xc)   XCENC  =      -119.82424094
  PAW double counting   =      2623.38279078    -2444.81115039
  entropy T*S    EENTRO =         0.00000000
  eigenvalues    EBANDS =       -72.41297051
  atomic energy  EATOM  =       916.21663293
  Solvation  Ediel_sol  =         0.00000000
  ---------------------------------------------------
  free energy    TOTEN  =       -32.39905543 eV

  energy without entropy =      -32.39905543  energy(sigma->0) =      -32.39905543


--------------------------------------------------------------------------------------------------------




--------------------------------------- Iteration      1(   3)  ---------------------------------------


    POTLOK:  cpu time      0.0105: real time      0.0110
    SETDIJ:  cpu time      0.0016: real time      0.0016
     EDDAV:  cpu time      0.1825: real time      0.1929
 BZINTS: Fermi energy:    3.522289;   32.000000 electrons
         Band energy:-0.680000E+02;  BLOECHL correction:    0.000000
       DOS:  cpu time      0.0004: real time      0.0004
    CHARGE:  cpu time      0.0094: real time      0.0096
    MIXING:  cpu time      0.0005: real time      0.0005
    --------------------------------------------
      LOOP:  cpu time      0.2050: real time      0.2160

 eigenvalue-minimisations  :   512
 total energy-change (2. order) : 0.5816512E-01  (-0.3097553E-01)
 number of electron      32.0000029 magnetization 
 augmentation part       -5.1988911 magnetization 

 Broyden mixing:
  rms(total) = 0.31948E-01    rms(broyden)= 0.31948E-01
  rms(prec ) = 0.71531E-01
  weight for this iteration     100.00

 eigenvalues of (default mixing * dielectric matrix)
  average eigenvalue GAMMA=   1.5895
  1.1030  2.0760

 Free energy of the ion-electron system (eV)
  ---------------------------------------------------
  alpha Z        PSCENC =        82.12872199
  Ewald energy   TEWEN  =      -941.78307081
  -Hartree energ DENC   =       -79.40469387
  -exchange      EXHF   =         0.00000000
  -V(xc)+E(xc)   XCENC  =      -119.94999470
  PAW double counting   =      2309.93717617    -2131.48567138
  entropy T*S    EENTRO =         0.00000000
  eigenvalues    EBANDS =       -67.99999064
  atomic energy  EATOM  =       916.21663293
  Solvation  Ediel_sol  =         0.00000000
  ---------------------------------------------------
  free energy    TOTEN  =       -32.34089031 eV

  energy without entropy =      -32.34089031  energy(sigma->0) =      -32.34089031


--------------------------------------------------------------------------------------------------------




--------------------------------------- Iteration      1(   4)  ---------------------------------------


    POTLOK:  cpu time      0.0104: real time      0.0111
    SETDIJ:  cpu time      0.0015: real time      0.0016
     EDDAV:  cpu time      0.1812: real time      0.1916
 BZINTS: Fermi energy:    3.444987;   32.000000 electrons
         Band energy:-0.687208E+02;  BLOECHL correction:    0.000000
       DOS:  cpu time      0.0003: real time      0.0003
    CHARGE:  cpu time      0.0096: real time      0.0097
    MIXING:  cpu time      0.0005: real time      0.0005
    --------------------------------------------
      LOOP:  cpu time      0.2035: real time      0.2148

 eigenvalue-minimisations  :   504
 total energy-change (2. order) : 0.5165853E-02  (-0.2327031E-02)
 number of electron      32.0000029 magnetization 
 augmentation part       -5.2002910 magnetization 

 Broyden mixing:
  rms(total) = 0.21251E-01    rms(broyden)= 0.21251E-01
  rms(prec ) = 0.28201E-01
  weight for this iteration     100.00

 eigenvalues of (default mixing * dielectric matrix)
  average eigenvalue GAMMA=   1.6435
  2.3114  1.3095  1.3095

 Free energy of the ion-electron system (eV)
  ---------------------------------------------------
  alpha Z        PSCENC =        82.12872199
  Ewald energy   TEWEN  =      -941.78307081
  -Hartree energ DENC   =       -78.66982823
  -exchange      EXHF   =         0.00000000
  -V(xc)+E(xc)   XCENC  =      -119.99951722
  PAW double counting   =      2326.02711352    -2147.53494075
  entropy T*S    EENTRO =         0.00000000
  eigenvalues    EBANDS =       -68.72083588
  atomic energy  EATOM  =       916.21663293
  Solvation  Ediel_sol  =         0.00000000
  ---------------------------------------------------
  free energy    TOTEN  =       -32.33572446 eV

  energy without entropy =      -32.33572446  energy(sigma->0) =      -32.33572446


--------------------------------------------------------------------------------------------------------




--------------------------------------- Iteration      1(   5)  ---------------------------------------


    POTLOK:  cpu time      0.0104: real time      0.0111
    SETDIJ:  cpu time      0.0016: real time      0.0016
     EDDAV:  cpu time      0.1964: real time      0.2073
 BZINTS: Fermi energy:    3.451784;   32.000000 electrons
         Band energy:-0.684792E+02;  BLOECHL correction:   -0.000000
       DOS:  cpu time      0.0003: real time      0.0003
    CHARGE:  cpu time      0.0095: real time      0.0097
    MIXING:  cpu time      0.0005: real time      0.0005
    --------------------------------------------
      LOOP:  cpu time      0.2186: real time      0.2305

 eigenvalue-minimisations  :   560
 total energy-change (2. order) : 0.3961300E-03  (-0.2048039E-03)
 number of electron      32.0000029 magnetization 
 augmentation part       -5.1970788 magnetization 

 Broyden mixing:
  rms(total) = 0.58204E-02    rms(broyden)= 0.58204E-02
  rms(prec ) = 0.63217E-02
  weight for this iteration     100.00

 eigenvalues of (default mixing * dielectric matrix)
  average eigenvalue GAMMA=   1.4827
  2.1155  1.3787  1.3787  1.0580

 Free energy of the ion-electron system (eV)
  ---------------------------------------------------
  alpha Z        PSCENC =        82.12872199
  Ewald energy   TEWEN  =      -941.78307081
  -Hartree energ DENC   =       -78.88397032
  -exchange      EXHF   =         0.00000000
  -V(xc)+E(xc)   XCENC  =      -120.03131463
  PAW double counting   =      2300.28077267    -2121.78390982
  entropy T*S    EENTRO =         0.00000000
  eigenvalues    EBANDS =       -68.47919034
  atomic energy  EATOM  =       916.21663293
  Solvation  Ediel_sol  =         0.00000000
  ---------------------------------------------------
  free energy    TOTEN  =       -32.33532833 eV

  energy without entropy =      -32.33532833  energy(sigma->0) =      -32.33532833


--------------------------------------------------------------------------------------------------------




--------------------------------------- Iteration      1(   6)  ---------------------------------------


    POTLOK:  cpu time      0.0103: real time      0.0106
    SETDIJ:  cpu time      0.0016: real time      0.0016
     EDDAV:  cpu time      0.1309: real time      0.1387
 BZINTS: Fermi energy:    3.451775;   32.000000 electrons
         Band energy:-0.684886E+02;  BLOECHL correction:    0.000000
       DOS:  cpu time      0.0003: real time      0.0003
    --------------------------------------------
      LOOP:  cpu time      0.1431: real time      0.1512

 eigenvalue-minimisations  :   256
 total energy-change (2. order) :-0.2366848E-04  (-0.4275888E-05)
 number of electron      32.0000029 magnetization 
 augmentation part       -5.1970788 magnetization 

 Free energy of the ion-electron system (eV)
  ---------------------------------------------------
  alpha Z        PSCENC =        82.12872199
  Ewald energy   TEWEN  =      -941.78307081
  -Hartree energ DENC   =       -78.87910271
  -exchange      EXHF   =         0.00000000
  -V(xc)+E(xc)   XCENC  =      -120.02893403
  PAW double counting   =      2304.73592825    -2126.23692148
  entropy T*S    EENTRO =         0.00000000
  eigenvalues    EBANDS =       -68.48860613
  atomic energy  EATOM  =       916.21663293
  Solvation  Ediel_sol  =         0.00000000
  ---------------------------------------------------
  free energy    TOTEN  =       -32.33535200 eV

  energy without entropy =      -32.33535200  energy(sigma->0) =      -32.33535200


--------------------------------------------------------------------------------------------------------




 average (electrostatic) potential at core
  the test charge radii are     1.0621  1.2767
  (the norm of the test charge is              1.0000)
       1 -50.8581       2 -50.8581       3 -50.8581       4 -50.8581       5 -13.9854
       6 -13.9854       7 -13.9854       8 -13.9854
 
 
 
 E-fermi :   3.4518     XC(G=0):  -9.5239     alpha+bet : -9.2840

 val. band max:        3.4516560123   @ k =   0.0000   0.0000   0.0000
 cond. band min:       4.6672871784   @ k =   0.0000   0.0000   0.0000
 fundamental gap:      1.2156311660
 Fermi energy:         3.4517753001

 k-point     1 :       0.0000    0.0000    0.0000
  band No.  band energies     occupation 
      1      -9.8694      2.00000
      2      -7.1721      2.00000
      3      -7.1721      2.00000
      4      -7.1721      2.00000
      5      -3.7302      2.00000
      6      -3.7302      2.00000
      7      -3.7302      2.00000
      8       0.4864      2.00000
      9       0.4864      2.00000
     10       0.4864      2.00000
     11       0.4864      2.00000
     12       0.4864      2.00000
     13       0.4864      2.00000
     14       3.4517      2.00000
     15       3.4517      2.00000
     16       3.4517      2.00000
     17       4.6673      0.00000
     18       4.7518      0.00000
     19       4.7518      0.00000
     20       4.7518      0.00000
     21       5.0736      0.00000
     22       5.0736      0.00000
     23       5.0736      0.00000
     24       7.2368      0.00000

 k-point     2 :       0.2000    0.0000    0.0000
  band No.  band energies     occupation 
      1      -9.7102      2.00000
      2      -7.6568      2.00000
      3      -7.1518      2.00000
      4      -7.1518      2.00000
      5      -3.6549      2.00000
      6      -3.6549      2.00000
      7      -3.0313      2.00000
      8       0.1063      2.00000
      9       0.1063      2.00000
     10       0.1792      2.00000
     11       0.1792      2.00000
     12       0.6646      2.00000
     13       0.6646      2.00000
     14       2.0253      2.00000
     15       2.9292      2.00000
     16       2.9292      2.00000
     17       4.7605      0.00000
     18       5.5207      0.00000
     19       5.5568      0.00000
     20       5.5568      0.00000
     21       5.8906      0.00000
     22       5.8906      0.00000
     23       6.0046      0.00000
     24       6.7414      0.00000

 k-point     3 :       0.4000    0.0000    0.0000
  band No.  band energies     occupation 
      1      -9.2432      2.00000
      2      -8.5120      2.00000
      3      -7.1181      2.00000
      4      -7.1181      2.00000
      5      -3.5155      2.00000
      6      -3.5155      2.00000
      7      -1.5480      2.00000
      8      -0.4180      2.00000
      9      -0.4180      2.00000
     10      -0.2180      2.00000
     11      -0.2180      2.00000
     12       0.1951      2.00000
     13       1.1853      2.00000
     14       1.1853      2.00000
     15       1.9943      2.00000
     16       1.9943      2.00000
     17       5.0889      0.00000
     18       5.7668      0.00000
     19       6.4657      0.00000
     20       7.1494      0.00000
     21       7.4164      0.00000
     22       7.4164      0.00000
     23       7.7406      0.00000
     24       7.7406      0.00000

 k-point     4 :       0.2000    0.2000    0.0000
  band No.  band energies     occupation 
      1      -9.5545      2.00000
      2      -7.5905      2.00000
      3      -7.5905      2.00000
      4      -7.1750      2.00000
      5      -3.5820      2.00000
      6      -3.0729      2.00000
      7      -3.0729      2.00000
      8      -0.6171      2.00000
      9       0.1940      2.00000
     10       0.1940      2.00000
     11       0.5316      2.00000
     12       0.5316      2.00000
     13       0.7843      2.00000
     14       0.9663      2.00000
     15       2.3809      2.00000
     16       3.2644      2.00000
     17       5.1987      0.00000
     18       5.6222      0.00000
     19       5.6222      0.00000
     20       5.9935      0.00000
     21       6.2422      0.00000
     22       6.2422      0.00000
     23       7.3210      0.00000
     24       7.4774      0.00000

 k-point     5 :       0.4000    0.2000    0.0000
  band No.  band energies     occupation 
      1      -9.0999      2.00000
      2      -8.3954      2.00000
      3      -7.4292      2.00000
      4      -7.2660      2.00000
      5      -3.4061      2.00000
      6      -3.2099      2.00000
      7      -1.8544      2.00000
      8      -0.8902      2.00000
      9      -0.5408      2.00000
     10      -0.4672      2.00000
     11       0.4806      2.00000
     12       0.6499      2.00000
     13       0.7194      2.00000
     14       1.3507      2.00000
     15       1.4336      2.00000
     16       2.4580      2.00000
     17       5.9791      0.00000
     18       6.2849      0.00000
     19       6.5650      0.00000
     20       6.9953      0.00000
     21       7.0306      0.00000
     22       7.4816      0.00000
     23       7.9137      0.00000
     24       8.6812      0.00000

 k-point     6 :       0.4000    0.4000    0.0000
  band No.  band energies     occupation 
      1      -8.6877      2.00000
      2      -8.0738      2.00000
      3      -8.0738      2.00000
      4      -7.6418      2.00000
      5      -3.0571      2.00000
      6      -2.4839      2.00000
      7      -2.4839      2.00000
      8      -1.5282      2.00000
      9      -0.8188      2.00000
     10      -0.2236      2.00000
     11      -0.2236      2.00000
     12       0.4979      2.00000
     13       1.5892      2.00000
     14       1.6556      2.00000
     15       1.6556      2.00000
     16       2.5850      2.00000
     17       5.9925      0.00000
     18       6.5277      0.00000
     19       7.0371      0.00000
     20       7.0371      0.00000
     21       8.0316      0.00000
     22       8.0316      0.00000
     23       8.5546      0.00000
     24       8.6147      0.00000

 k-point     7 :       0.2000    0.2000    0.2000
  band No.  band energies     occupation 
      1      -9.4033      2.00000
      2      -7.5557      2.00000
      3      -7.5557      2.00000
      4      -7.5557      2.00000
      5      -3.1672      2.00000
      6      -3.1672      2.00000
      7      -3.1672      2.00000
      8      -0.2447      2.00000
      9      -0.2447      2.00000
     10      -0.2447      2.00000
     11       0.0551      2.00000
     12       0.9479      2.00000
     13       0.9479      2.00000
     14       0.9479      2.00000
     15       2.8877      2.00000
     16       2.8877      2.00000
     17       5.3927      0.00000
     18       5.3962      0.00000
     19       5.3962      0.00000
     20       5.3962      0.00000
     21       7.5124      0.00000
     22       7.5124      0.00000
     23       7.5124      0.00000
     24       7.9963      0.00000

 k-point     8 :       0.4000    0.2000    0.2000
  band No.  band energies     occupation 
      1      -8.9643      2.00000
      2      -8.2944      2.00000
      3      -7.4966      2.00000
      4      -7.4966      2.00000
      5      -3.3359      2.00000
      6      -3.3359      2.00000
      7      -2.2783      2.00000
      8      -1.1870      2.00000
      9      -0.4348      2.00000
     10      -0.4348      2.00000
     11       0.7769      2.00000
     12       0.9712      2.00000
     13       0.9712      2.00000
     14       1.4196      2.00000
     15       2.1155      2.00000
     16       2.1284      2.00000
     17       5.8968      0.00000
     18       5.9582      0.00000
     19       6.4349      0.00000
     20       6.4349      0.00000
     21       7.5612      0.00000
     22       7.8564      0.00000
     23       8.4636      0.00000
     24       8.4636      0.00000

 k-point     9 :       0.4000    0.4000    0.2000
  band No.  band energies     occupation 
      1      -8.5798      2.00000
      2      -8.0289      2.00000
      3      -8.0289      2.00000
      4      -7.7141      2.00000
      5      -3.3561      2.00000
      6      -2.9608      2.00000
      7      -2.9608      2.00000
      8      -2.2059      2.00000
      9      -0.0607      2.00000
     10       0.4669      2.00000
     11       0.4669      2.00000
     12       1.3561      2.00000
     13       1.6901      2.00000
     14       1.7328      2.00000
     15       1.7328      2.00000
     16       2.5061      2.00000
     17       5.7473      0.00000
     18       6.0420      0.00000
     19       6.4341      0.00000
     20       6.4341      0.00000
     21       7.6889      0.00000
     22       7.6889      0.00000
     23       8.2710      0.00000
     24       8.3052      0.00000

 k-point    10 :       0.4000    0.4000    0.4000
  band No.  band energies     occupation 
      1      -8.2940      2.00000
      2      -7.9513      2.00000
      3      -7.9513      2.00000
      4      -7.9513      2.00000
      5      -3.4981      2.00000
      6      -3.4981      2.00000
      7      -3.4981      2.00000
      8      -3.0706      2.00000
      9       1.3698      2.00000
     10       1.3698      2.00000
     11       1.3698      2.00000
     12       1.9548      2.00000
     13       1.9548      2.00000
     14       1.9548      2.00000
     15       2.2729      2.00000
     16       2.2729      2.00000
     17       4.8185      0.00000
     18       5.5545      0.00000
     19       5.5545      0.00000
     20       5.5545      0.00000
     21       7.8471      0.00000
     22       7.8471      0.00000
     23       7.8471      0.00000
     24       8.1870      0.00000


--------------------------------------------------------------------------------------------------------


 soft charge-density along one line, spin component           1
         0         1         2         3         4         5         6         7         8         9
 total charge-density along one line
 
 pseudopotential strength for first ion, spin component:           1
 23.494  28.081  -0.000   0.000  -0.000   0.000  -0.000   0.000
 28.081  33.571  -0.000   0.000  -0.000   0.000  -0.000   0.000
 -0.000  -0.000   5.529   0.000   0.000 -10.946  -0.000  -0.000
  0.000   0.000   0.000   5.529  -0.000  -0.000 -10.946   0.000
 -0.000  -0.000   0.000  -0.000   5.529  -0.000   0.000 -10.946
  0.000   0.000 -10.946  -0.000  -0.000  22.238   0.000   0.000
 -0.000  -0.000  -0.000 -10.946   0.000   0.000  22.238  -0.000
  0.000   0.000  -0.000   0.000 -10.946   0.000  -0.000  22.238
  0.000   0.000  -0.000   0.002  -0.000   0.000  -0.003   0.000
  0.000   0.000   0.000  -0.000   0.002  -0.000   0.000  -0.003
 -0.000  -0.000   0.000   0.000   0.000  -0.000  -0.000  -0.000
 -0.000  -0.000   0.002  -0.000   0.000  -0.003   0.000  -0.000
  0.000   0.000   0.000   0.000  -0.000  -0.000  -0.000   0.000
 total augmentation occupancy for first ion, spin component:           1
  5.848  -2.623  -0.000  -0.000   0.000   0.000  -0.000   0.000   0.000   0.000  -0.000   0.000   0.000
 -2.623   1.528   0.000   0.000  -0.000  -0.000   0.000  -0.000   0.000   0.000   0.000   0.000  -0.000
  0.000   0.000   1.549  -0.000   0.000   0.065   0.000   0.000   0.000   0.000  -0.000   0.109   0.000
  0.000   0.000  -0.000   1.549   0.000   0.000   0.065  -0.000   0.109  -0.000   0.000  -0.000  -0.000
 -0.000  -0.000  -0.000  -0.000   1.549   0.000   0.000   0.065   0.000   0.109  -0.000   0.000   0.000
 -0.000  -0.000   0.065  -0.000  -0.000   0.003   0.000   0.000  -0.000   0.000  -0.000   0.005   0.000
 -0.000   0.000  -0.000   0.065  -0.000   0.000   0.003   0.000   0.005   0.000  -0.000   0.000   0.000
 -0.000  -0.000   0.000  -0.000   0.065   0.000   0.000   0.003   0.000   0.005  -0.000  -0.000   0.000
  0.000   0.000   0.000   0.109  -0.000  -0.000   0.005   0.000   0.016  -0.000   0.000  -0.000   0.000
  0.000   0.000  -0.000   0.000   0.109   0.000   0.000   0.005  -0.000   0.016   0.000   0.000   0.000
 -0.000   0.000  -0.000   0.000  -0.000  -0.000  -0.000  -0.000   0.000   0.000   0.005   0.000   0.000
  0.000  -0.000   0.109   0.000   0.000   0.005   0.000  -0.000   0.000   0.000   0.000   0.016   0.000
  0.000   0.000  -0.000   0.000  -0.000  -0.000   0.000  -0.000   0.000  -0.000   0.000   0.000   0.005


------------------------ aborting loop because EDIFF is reached ----------------------------------------


    CHARGE:  cpu time      0.0095: real time      0.0097
    FORLOC:  cpu time      0.0008: real time      0.0008
    FORNL :  cpu time      0.0357: real time      0.0362
    STRESS:  cpu time      0.2085: real time      0.2100
    FORCOR:  cpu time      0.0109: real time      0.0112
    FORHAR:  cpu time      0.0026: real time      0.0026
    MIXING:  cpu time      0.0004: real time      0.0004
    OFIELD:  cpu time      0.0000: real time      0.0000

  FORCE on cell =-STRESS in cart. coord.  units (eV):
  Direction    XX          YY          ZZ          XY          YZ          ZX
  --------------------------------------------------------------------------------------
  Alpha Z    82.12872    82.12872    82.12872
  Ewald    -313.92819  -313.92819  -313.92819     0.00000    -0.00000    -0.00000
  Hartree    26.30425    26.30425    26.30425    -0.00000    -0.00000    -0.00000
  E(xc)    -123.06080  -123.06080  -123.06080    -0.00000    -0.00000     0.00000
  Local    -118.53130  -118.53130  -118.53130    -0.00000     0.00000     0.00000
  n-local   184.18027   186.19006   183.35405    -2.01113    -1.17528    -0.96247
  augment     8.05818     8.05818     8.05818     0.00000     0.00000     0.00000
  Kinetic   260.16990   271.40294   268.99989    -4.83538    -4.62177    -3.06481
  Fock        0.00000     0.00000     0.00000     0.00000     0.00000     0.00000
  -------------------------------------------------------------------------------------
  Total      12.40323    12.40323    12.40323    -0.00000     0.00000    -0.00000
  in kB     119.27027   119.27027   119.27027    -0.00000     0.00000    -0.00000
  external pressure =     -230.73 kB  Pullay stress =      350.00 kB


 VOLUME and BASIS-vectors are now :
 -----------------------------------------------------------------------------
  energy-cutoff  :      400.00
  volume of cell :      166.61
      direct lattice vectors                 reciprocal lattice vectors
     5.502640060  0.000000000  0.000000000     0.181730949  0.000000000  0.000000000
     0.000000000  5.502640060  0.000000000     0.000000000  0.181730949  0.000000000
     0.000000000  0.000000000  5.502640060     0.000000000  0.000000000  0.181730949

  length of vectors
     5.502640060  5.502640060  5.502640060     0.181730949  0.181730949  0.181730949


 FORCES acting on ions
    electron-ion (+dipol)            ewald-force                    non-local-force                 convergence-correction
 -----------------------------------------------------------------------------------------------
   -.103E-13 0.118E-14 -.258E-14   -.355E-14 0.000E+00 0.000E+00   0.147E-16 -.958E-18 0.434E-16   -.435E-14 0.327E-14 0.105E-14
   -.116E-13 0.283E-12 0.236E-12   -.355E-14 0.355E-14 0.000E+00   0.121E-16 0.109E-16 0.218E-16   0.384E-14 -.422E-15 0.628E-15
   0.710E-14 0.153E-14 0.602E-12   -.355E-14 0.000E+00 0.000E+00   -.761E-17 -.149E-16 0.573E-16   0.284E-14 0.300E-14 -.168E-14
   0.129E-14 0.845E-14 0.939E-14   -.355E-14 0.355E-14 0.000E+00   0.847E-17 -.239E-17 0.428E-16   -.575E-14 -.208E-15 -.174E-14
   -.646E-14 0.486E-13 -.182E-13   0.366E-14 -.317E-14 0.165E-16   -.303E-17 0.153E-17 -.225E-17   -.599E-15 -.497E-15 0.203E-14
   -.116E-13 -.972E-14 0.679E-13   0.323E-14 -.316E-14 0.186E-15   -.472E-17 -.219E-17 -.811E-19   0.258E-14 0.118E-15 -.398E-15
   -.129E-13 -.124E-12 0.148E-12   0.419E-14 -.391E-14 -.181E-15   0.431E-17 -.344E-17 0.422E-18   0.269E-14 -.681E-15 0.225E-14
   -.775E-14 0.305E-13 0.461E-14   0.304E-14 -.390E-14 -.111E-16   0.348E-17 -.442E-18 0.333E-19   -.463E-15 -.222E-15 -.508E-15
 -----------------------------------------------------------------------------------------------
   -.523E-13 0.240E-12 0.105E-11   -.995E-16 -.703E-14 0.108E-16   0.277E-16 -.118E-16 0.163E-15   0.789E-15 0.436E-14 0.163E-14
 
 
 POSITION                                       TOTAL-FORCE (eV/Angst)
 -----------------------------------------------------------------------------------
      0.00000      0.00000      0.00000         0.000000     -0.000000     -0.000000
      2.75132      2.75132      0.00000        -0.000000      0.000000      0.000000
      2.75132      0.00000      2.75132        -0.000000      0.000000      0.000000
      0.00000      2.75132      2.75132        -0.000000      0.000000      0.000000
      1.37566      1.37566      1.37566         0.000000     -0.000000     -0.000000
      4.12698      1.37566      4.12698         0.000000     -0.000000      0.000000
      4.12698      4.12698      1.37566         0.000000     -0.000000     -0.000000
      1.37566      4.12698      4.12698         0.000000     -0.000000     -0.000000
 -----------------------------------------------------------------------------------
    total drift:                               -0.000000      0.000000      0.000000


--------------------------------------------------------------------------------------------------------



  FREE ENERGIE OF THE ION-ELECTRON SYSTEM (eV)
  ---------------------------------------------------
  free  energy   TOTEN  =       -32.33535200 eV

  energy  without entropy=      -32.33535200  energy(sigma->0) =      -32.33535200
  enthalpy is  TOTEN    =         4.06208297 eV   P V=       36.39743497



--------------------------------------------------------------------------------------------------------


    POTLOK:  cpu time      0.0121: real time      0.0124


--------------------------------------------------------------------------------------------------------




--------------------------------------------------------------------------------------------------------


    WAVPRE:  cpu time      0.1391: real time      0.5376
    FEWALD:  cpu time      0.0001: real time      0.0001
    GENKIN:  cpu time      0.0022: real time      0.0022
    ORTHCH:  cpu time      0.0185: real time      0.0200
     LOOP+:  cpu time      1.6444: real time      2.1190


--------------------------------------- Ionic step        2  -------------------------------------------




--------------------------------------- Iteration      2(   1)  ---------------------------------------


    POTLOK:  cpu time      0.0099: real time      0.0109
    SETDIJ:  cpu time      0.0019: real time      0.0019
     EDDAV:  cpu time      0.1904: real time      0.2011
 BZINTS: Fermi energy:    4.659173;   32.000000 electrons
         Band energy:-0.450820E+02;  BLOECHL correction:    0.000000
       DOS:  cpu time      0.0004: real time      0.0004
    CHARGE:  cpu time      0.0095: real time      0.0100
    MIXING:  cpu time      0.0004: real time      0.0004
    --------------------------------------------
      LOOP:  cpu time      0.2124: real time      0.2246

 eigenvalue-minimisations  :   544
 total energy-change (2. order) : 0.1190107E+01  (-0.7604925E+00)
 number of electron      31.9999973 magnetization 
 augmentation part       -5.1840910 magnetization 

 Broyden mixing:
  rms(total) = 0.30666E+00    rms(broyden)= 0.30664E+00
  rms(prec ) = 0.56352E+00
  weight for this iteration     100.00

 Free energy of the ion-electron system (eV)
  ---------------------------------------------------
  alpha Z        PSCENC =        89.69226467
  Ewald energy   TEWEN  =      -969.84914612
  -Hartree energ DENC   =       -81.26961550
  -exchange      EXHF   =         0.00000000
  -V(xc)+E(xc)   XCENC  =      -119.35585024
  PAW double counting   =      2306.43656668    -2127.93409276
  entropy T*S    EENTRO =         0.00000000
  eigenvalues    EBANDS =       -45.08198068
  atomic energy  EATOM  =       916.21663293
  Solvation  Ediel_sol  =         0.00000000
  ---------------------------------------------------
  free energy    TOTEN  =       -31.14522103 eV

  energy without entropy =      -31.14522103  energy(sigma->0) =      -31.14522103


--------------------------------------------------------------------------------------------------------




--------------------------------------- Iteration      2(   2)  ---------------------------------------


    POTLOK:  cpu time      0.0105: real time      0.0111
    SETDIJ:  cpu time      0.0016: real time      0.0016
     EDDAV:  cpu time      0.1833: real time      0.1940
 BZINTS: Fermi energy:    4.485412;   32.000000 electrons
         Band energy:-0.492212E+02;  BLOECHL correction:    0.000000
       DOS:  cpu time      0.0004: real time      0.0004
    CHARGE:  cpu time      0.0096: real time      0.0097
    MIXING:  cpu time      0.0004: real time      0.0004
    --------------------------------------------
      LOOP:  cpu time      0.2057: real time      0.2172

 eigenvalue-minimisations  :   504
 total energy-change (2. order) : 0.2460499E+00  (-0.4743928E-01)
 number of electron      31.9999972 magnetization 
 augmentation part       -5.1951513 magnetization 

 Broyden mixing:
  rms(total) = 0.16470E+00    rms(broyden)= 0.16470E+00
  rms(prec ) = 0.29353E+00
  weight for this iteration     100.00

 eigenvalues of (default mixing * dielectric matrix)
  average eigenvalue GAMMA=   1.9810
  1.9810

 Free energy of the ion-electron system (eV)
  ---------------------------------------------------
  alpha Z        PSCENC =        89.69226467
  Ewald energy   TEWEN  =      -969.84914612
  -Hartree energ DENC   =       -76.84608815
  -exchange      EXHF   =         0.00000000
  -V(xc)+E(xc)   XCENC  =      -119.27797924
  PAW double counting   =      2499.58686739    -2321.20053728
  entropy T*S    EENTRO =         0.00000000
  eigenvalues    EBANDS =       -49.22118536
  atomic energy  EATOM  =       916.21663293
  Solvation  Ediel_sol  =         0.00000000
  ---------------------------------------------------
  free energy    TOTEN  =       -30.89917115 eV

  energy without entropy =      -30.89917115  energy(sigma->0) =      -30.89917115


--------------------------------------------------------------------------------------------------------




--------------------------------------- Iteration      2(   3)  ---------------------------------------


    POTLOK:  cpu time      0.0102: real time      0.0107
    SETDIJ:  cpu time      0.0016: real time      0.0016
     EDDAV:  cpu time      0.1821: real time      0.1928
 BZINTS: Fermi energy:    4.314638;   32.000000 electrons
         Band energy:-0.532641E+02;  BLOECHL correction:    0.000000
       DOS:  cpu time      0.0004: real time      0.0004
    CHARGE:  cpu time      0.0097: real time      0.0099
    MIXING:  cpu time      0.0004: real time      0.0004
    --------------------------------------------
      LOOP:  cpu time      0.2044: real time      0.2158

 eigenvalue-minimisations  :   504
 total energy-change (2. order) : 0.8979048E-01  (-0.3118916E-01)
 number of electron      31.9999972 magnetization 
 augmentation part       -5.2462850 magnetization 

 Broyden mixing:
  rms(total) = 0.60063E-01    rms(broyden)= 0.60063E-01
  rms(prec ) = 0.80818E-01
  weight for this iteration     100.00

 eigenvalues of (default mixing * dielectric matrix)
  average eigenvalue GAMMA=   1.2446
  1.8515  0.6376

 Free energy of the ion-electron system (eV)
  ---------------------------------------------------
  alpha Z        PSCENC =        89.69226467
  Ewald energy   TEWEN  =      -969.84914612
  -Hartree energ DENC   =       -72.72328498
  -exchange      EXHF   =         0.00000000
  -V(xc)+E(xc)   XCENC  =      -119.05829308
  PAW double counting   =      2719.02648813    -2540.84996338
  entropy T*S    EENTRO =         0.00000000
  eigenvalues    EBANDS =       -53.26407884
  atomic energy  EATOM  =       916.21663293
  Solvation  Ediel_sol  =         0.00000000
  ---------------------------------------------------
  free energy    TOTEN  =       -30.80938068 eV

  energy without entropy =      -30.80938068  energy(sigma->0) =      -30.80938068


--------------------------------------------------------------------------------------------------------




--------------------------------------- Iteration      2(   4)  ---------------------------------------


    POTLOK:  cpu time      0.0105: real time      0.0110
    SETDIJ:  cpu time      0.0016: real time      0.0016
     EDDAV:  cpu time      0.1849: real time      0.1955
 BZINTS: Fermi energy:    4.319973;   32.000000 electrons
         Band energy:-0.530134E+02;  BLOECHL correction:    0.000000
       DOS:  cpu time      0.0004: real time      0.0004
    CHARGE:  cpu time      0.0095: real time      0.0097
    MIXING:  cpu time      0.0005: real time      0.0005
    --------------------------------------------
      LOOP:  cpu time      0.2073: real time      0.2186

 eigenvalue-minimisations  :   520
 total energy-change (2. order) : 0.2184485E-02  (-0.1061645E-02)
 number of electron      31.9999972 magnetization 
 augmentation part       -5.2463494 magnetization 

 Broyden mixing:
  rms(total) = 0.49212E-01    rms(broyden)= 0.49212E-01
  rms(prec ) = 0.61106E-01
  weight for this iteration     100.00

 eigenvalues of (default mixing * dielectric matrix)
  average eigenvalue GAMMA=   1.6305
  2.1800  1.3558  1.3558

 Free energy of the ion-electron system (eV)
  ---------------------------------------------------
  alpha Z        PSCENC =        89.69226467
  Ewald energy   TEWEN  =      -969.84914612
  -Hartree energ DENC   =       -72.97639504
  -exchange      EXHF   =         0.00000000
  -V(xc)+E(xc)   XCENC  =      -119.02640842
  PAW double counting   =      2708.86765074    -2530.71843086
  entropy T*S    EENTRO =         0.00000000
  eigenvalues    EBANDS =       -53.01336409
  atomic energy  EATOM  =       916.21663293
  Solvation  Ediel_sol  =         0.00000000
  ---------------------------------------------------
  free energy    TOTEN  =       -30.80719619 eV

  energy without entropy =      -30.80719619  energy(sigma->0) =      -30.80719619


--------------------------------------------------------------------------------------------------------




--------------------------------------- Iteration      2(   5)  ---------------------------------------


    POTLOK:  cpu time      0.0102: real time      0.0108
    SETDIJ:  cpu time      0.0016: real time      0.0016
     EDDAV:  cpu time      0.1918: real time      0.2028
 BZINTS: Fermi energy:    4.313050;   32.000000 electrons
         Band energy:-0.532240E+02;  BLOECHL correction:    0.000000
       DOS:  cpu time      0.0004: real time      0.0004
    CHARGE:  cpu time      0.0096: real time      0.0098
    MIXING:  cpu time      0.0004: real time      0.0004
    --------------------------------------------
      LOOP:  cpu time      0.2141: real time      0.2258

 eigenvalue-minimisations  :   552
 total energy-change (2. order) : 0.2266398E-02  (-0.4654591E-03)
 number of electron      31.9999972 magnetization 
 augmentation part       -5.2534424 magnetization 

 Broyden mixing:
  rms(total) = 0.16877E-01    rms(broyden)= 0.16877E-01
  rms(prec ) = 0.17961E-01
  weight for this iteration     100.00

 eigenvalues of (default mixing * dielectric matrix)
  average eigenvalue GAMMA=   1.4891
  2.1506  1.5551  1.5551  0.6957

 Free energy of the ion-electron system (eV)
  ---------------------------------------------------
  alpha Z        PSCENC =        89.69226467
  Ewald energy   TEWEN  =      -969.84914612
  -Hartree energ DENC   =       -72.76744976
  -exchange      EXHF   =         0.00000000
  -V(xc)+E(xc)   XCENC  =      -118.94264737
  PAW double counting   =      2715.28928391    -2537.21989485
  entropy T*S    EENTRO =         0.00000000
  eigenvalues    EBANDS =       -53.22397320
  atomic energy  EATOM  =       916.21663293
  Solvation  Ediel_sol  =         0.00000000
  ---------------------------------------------------
  free energy    TOTEN  =       -30.80492979 eV

  energy without entropy =      -30.80492979  energy(sigma->0) =      -30.80492979


--------------------------------------------------------------------------------------------------------




--------------------------------------- Iteration      2(   6)  ---------------------------------------


    POTLOK:  cpu time      0.0108: real time      0.0113
    SETDIJ:  cpu time      0.0016: real time      0.0016
     EDDAV:  cpu time      0.1745: real time      0.1847
 BZINTS: Fermi energy:    4.314584;   32.000000 electrons
         Band energy:-0.531536E+02;  BLOECHL correction:    0.000000
       DOS:  cpu time      0.0003: real time      0.0003
    --------------------------------------------
      LOOP:  cpu time      0.1872: real time      0.1980

 eigenvalue-minimisations  :   464
 total energy-change (2. order) : 0.5143258E-05  (-0.3584948E-04)
 number of electron      31.9999972 magnetization 
 augmentation part       -5.2534424 magnetization 

 Free energy of the ion-electron system (eV)
  ---------------------------------------------------
  alpha Z        PSCENC =        89.69226467
  Ewald energy   TEWEN  =      -969.84914612
  -Hartree energ DENC   =       -72.83554890
  -exchange      EXHF   =         0.00000000
  -V(xc)+E(xc)   XCENC  =      -118.94109068
  PAW double counting   =      2707.10945008    -2529.04385972
  entropy T*S    EENTRO =         0.00000000
  eigenvalues    EBANDS =       -53.15362691
  atomic energy  EATOM  =       916.21663293
  Solvation  Ediel_sol  =         0.00000000
  ---------------------------------------------------
  free energy    TOTEN  =       -30.80492465 eV

  energy without entropy =      -30.80492465  energy(sigma->0) =      -30.80492465


--------------------------------------------------------------------------------------------------------




 average (electrostatic) potential at core
  the test charge radii are     1.0621  1.2767
  (the norm of the test charge is              1.0000)
       1 -50.1522       2 -50.1522       3 -50.1522       4 -50.1522       5 -13.2489
       6 -13.2489       7 -13.2489       8 -13.2489
 
 
 
 E-fermi :   4.3146     XC(G=0):  -9.8954     alpha+bet :-10.1390

 val. band max:        4.2974191314   @ k =   0.0000   0.0000   0.0000
 cond. band min:       5.3861207343   @ k =   0.0000   0.0000   0.0000
 fundamental gap:      1.0887016029
 Fermi energy:         4.3145841360

 k-point     1 :       0.0000    0.0000    0.0000
  band No.  band energies     occupation 
      1      -9.7729      2.00000
      2      -6.6796      2.00000
      3      -6.6796      2.00000
      4      -6.6796      2.00000
      5      -3.3681      2.00000
      6      -3.3681      2.00000
      7      -3.3681      2.00000
      8       0.9661      2.00000
      9       0.9661      2.00000
     10       0.9661      2.00000
     11       0.9661      2.00000
     12       0.9661      2.00000
     13       0.9661      2.00000
     14       4.2974      2.00000
     15       4.2974      2.00000
     16       4.2974      2.00000
     17       5.3861      0.00000
     18       5.3861      0.00000
     19       5.3861      0.00000
     20       5.8200      0.00000
     21       5.8200      0.00000
     22       5.8200      0.00000
     23       6.2328      0.00000
     24       8.0819      0.00000

 k-point     2 :       0.2000    0.0000    0.0000
  band No.  band energies     occupation 
      1      -9.5968      2.00000
      2      -7.2702      2.00000
      3      -6.6516      2.00000
      4      -6.6516      2.00000
      5      -3.2783      2.00000
      6      -3.2783      2.00000
      7      -2.5426      2.00000
      8       0.5372      2.00000
      9       0.5372      2.00000
     10       0.6062      2.00000
     11       0.6062      2.00000
     12       1.1626      2.00000
     13       1.1626      2.00000
     14       2.9610      2.00000
     15       3.6895      2.00000
     16       3.6895      2.00000
     17       5.4315      0.00000
     18       6.2682      0.00000
     19       6.2726      0.00000
     20       6.2726      0.00000
     21       6.7173      0.00000
     22       6.7173      0.00000
     23       7.3792      0.00000
     24       7.6345      0.00000

 k-point     3 :       0.4000    0.0000    0.0000
  band No.  band energies     occupation 
      1      -9.0781      2.00000
      2      -8.2571      2.00000
      3      -6.6049      2.00000
      4      -6.6049      2.00000
      5      -3.1081      2.00000
      6      -3.1081      2.00000
      7      -0.8734      2.00000
      8      -0.0573      2.00000
      9      -0.0573      2.00000
     10       0.1462      2.00000
     11       0.1462      2.00000
     12       1.0282      2.00000
     13       1.7376      2.00000
     14       1.7376      2.00000
     15       2.6356      2.00000
     16       2.6356      2.00000
     17       5.8028      0.00000
     18       6.5413      0.00000
     19       7.3181      0.00000
     20       8.2767      0.00000
     21       8.2767      0.00000
     22       8.3588      0.00000
     23       8.7704      0.00000
     24       8.7704      0.00000

 k-point     4 :       0.2000    0.2000    0.0000
  band No.  band energies     occupation 
      1      -9.4239      2.00000
      2      -7.1877      2.00000
      3      -7.1877      2.00000
      4      -6.6761      2.00000
      5      -3.1941      2.00000
      6      -2.5919      2.00000
      7      -2.5919      2.00000
      8      -0.2861      2.00000
      9       0.6352      2.00000
     10       0.6352      2.00000
     11       0.9996      2.00000
     12       0.9996      2.00000
     13       1.2971      2.00000
     14       1.7755      2.00000
     15       3.0629      2.00000
     16       4.0887      2.00000
     17       5.9133      0.00000
     18       6.3714      0.00000
     19       6.3714      0.00000
     20       7.0754      0.00000
     21       7.0754      0.00000
     22       7.3100      0.00000
     23       8.2394      0.00000
     24       8.4168      0.00000

 k-point     5 :       0.4000    0.2000    0.0000
  band No.  band energies     occupation 
      1      -8.9169      2.00000
      2      -8.1219      2.00000
      3      -6.9859      2.00000
      4      -6.7831      2.00000
      5      -2.9909      2.00000
      6      -2.7582      2.00000
      7      -1.2349      2.00000
      8      -0.5884      2.00000
      9      -0.1876      2.00000
     10       0.2512      2.00000
     11       0.9348      2.00000
     12       1.1407      2.00000
     13       1.2124      2.00000
     14       1.9255      2.00000
     15       2.0066      2.00000
     16       3.1840      2.00000
     17       6.7799      0.00000
     18       7.1200      0.00000
     19       7.4930      0.00000
     20       7.9548      0.00000
     21       8.2411      0.00000
     22       8.3877      0.00000
     23       8.9969      0.00000
     24       9.6309      0.00000

 k-point     6 :       0.4000    0.4000    0.0000
  band No.  band energies     occupation 
      1      -8.4506      2.00000
      2      -7.7463      2.00000
      3      -7.7463      2.00000
      4      -7.2346      2.00000
      5      -2.6062      2.00000
      6      -1.9595      2.00000
      7      -1.9595      2.00000
      8      -0.9208      2.00000
      9      -0.4939      2.00000
     10       0.1737      2.00000
     11       0.1737      2.00000
     12       0.9721      2.00000
     13       2.1957      2.00000
     14       2.2662      2.00000
     15       2.2662      2.00000
     16       3.3187      2.00000
     17       6.8369      0.00000
     18       7.6723      0.00000
[...]
  eigenvalues    EBANDS =       -41.37401003
  atomic energy  EATOM  =       916.21663293
  Solvation  Ediel_sol  =         0.00000000
  ---------------------------------------------------
  free energy    TOTEN  =       -29.11672943 eV

  energy without entropy =      -29.11672943  energy(sigma->0) =      -29.11672943


--------------------------------------------------------------------------------------------------------




 average (electrostatic) potential at core
  the test charge radii are     1.0621  1.2767
  (the norm of the test charge is              1.0000)
       1 -49.6310       2 -49.6310       3 -49.6310       4 -49.6310       5 -12.6981
       6 -12.6981       7 -12.6981       8 -12.6981
 
 
 
 E-fermi :   4.9828     XC(G=0): -10.1662     alpha+bet :-10.7945

 val. band max:        4.9565353528   @ k =   0.0000   0.0000   0.0000
 cond. band min:       5.8722071755   @ k =   0.0000   0.0000   0.0000
 fundamental gap:      0.9156718227
 Fermi energy:         4.9827670101

 k-point     1 :       0.0000    0.0000    0.0000
  band No.  band energies     occupation 
      1      -9.7027      2.00000
      2      -6.3076      2.00000
      3      -6.3076      2.00000
      4      -6.3076      2.00000
      5      -3.0887      2.00000
      6      -3.0887      2.00000
      7      -3.0887      2.00000
      8       1.3375      2.00000
      9       1.3375      2.00000
     10       1.3375      2.00000
     11       1.3375      2.00000
     12       1.3375      2.00000
     13       1.3375      2.00000
     14       4.9565      2.00000
     15       4.9565      2.00000
     16       4.9565      2.00000
     17       5.8722      0.00000
     18       5.8722      0.00000
     19       5.8722      0.00000
     20       6.3793      0.00000
     21       6.3793      0.00000
     22       6.3793      0.00000
     23       7.4096      0.00000
     24       8.7269      0.00000

 k-point     2 :       0.2000    0.0000    0.0000
  band No.  band energies     occupation 
      1      -9.5141      2.00000
      2      -6.9838      2.00000
      3      -6.2727      2.00000
      4      -6.2727      2.00000
      5      -2.9873      2.00000
      6      -2.9873      2.00000
      7      -2.1616      2.00000
      8       0.8706      2.00000
      9       0.8706      2.00000
     10       0.9355      2.00000
     11       0.9355      2.00000
     12       1.5482      2.00000
     13       1.5482      2.00000
     14       3.6658      2.00000
     15       4.2790      2.00000
     16       4.2790      2.00000
     17       5.9419      0.00000
     18       6.8201      0.00000
     19       6.8201      0.00000
     20       6.8269      0.00000
     21       7.3352      0.00000
     22       7.3352      0.00000
     23       8.1162      0.00000
     24       8.6313      0.00000

 k-point     3 :       0.4000    0.0000    0.0000
  band No.  band energies     occupation 
      1      -8.9572      2.00000
      2      -8.0696      2.00000
      3      -6.2140      2.00000
      4      -6.2140      2.00000
      5      -2.7919      2.00000
      6      -2.7919      2.00000
      7      -0.3519      2.00000
      8       0.2209      2.00000
      9       0.2209      2.00000
     10       0.4254      2.00000
     11       0.4254      2.00000
     12       1.6653      2.00000
     13       2.1651      2.00000
     14       2.1651      2.00000
     15       3.1321      2.00000
     16       3.1321      2.00000
     17       6.3456      0.00000
     18       7.1257      0.00000
     19       7.9367      0.00000
     20       8.9301      0.00000
     21       8.9301      0.00000
     22       9.2224      0.00000
     23       9.5257      0.00000
     24       9.5257      0.00000

 k-point     4 :       0.2000    0.2000    0.0000
  band No.  band energies     occupation 
      1      -9.3285      2.00000
      2      -6.8880      2.00000
      3      -6.8880      2.00000
      4      -6.2972      2.00000
      5      -2.8943      2.00000
      6      -2.2166      2.00000
      7      -2.2166      2.00000
      8      -0.0315      2.00000
      9       0.9770      2.00000
     10       0.9770      2.00000
     11       1.3603      2.00000
     12       1.3603      2.00000
     13       1.6942      2.00000
     14       2.3837      2.00000
     15       3.5904      2.00000
     16       4.7312      2.00000
     17       6.4522      0.00000
     18       6.9409      0.00000
     19       6.9409      0.00000
     20       7.6955      0.00000
     21       7.6955      0.00000
     22       8.2889      0.00000
     23       8.9293      0.00000
     24       9.1380      0.00000

 k-point     5 :       0.4000    0.2000    0.0000
  band No.  band energies     occupation 
      1      -8.7826      2.00000
      2      -7.9203      2.00000
      3      -6.6526      2.00000
      4      -6.4166      2.00000
      5      -2.6699      2.00000
      6      -2.4073      2.00000
      7      -0.7578      2.00000
      8      -0.3560      2.00000
      9       0.0865      2.00000
     10       0.7957      2.00000
     11       1.2845      2.00000
     12       1.5211      2.00000
     13       1.5934      2.00000
     14       2.3712      2.00000
     15       2.4502      2.00000
     16       3.7502      2.00000
     17       7.3869      0.00000
     18       7.7435      0.00000
     19       8.1586      0.00000
     20       8.6438      0.00000
     21       9.0622      0.00000
     22       9.1871      0.00000
     23       9.7678      0.00000
     24      10.4019      0.00000

 k-point     6 :       0.4000    0.4000    0.0000
  band No.  band energies     occupation 
      1      -8.2759      2.00000
      2      -7.5032      2.00000
      3      -7.5032      2.00000
      4      -6.9288      2.00000
      5      -2.2593      2.00000
      6      -1.5565      2.00000
      7      -1.5565      2.00000
      8      -0.4580      2.00000
      9      -0.2410      2.00000
     10       0.4830      2.00000
     11       0.4830      2.00000
     12       1.3405      2.00000
     13       2.6658      2.00000
     14       2.7394      2.00000
     15       2.7394      2.00000
     16       3.8891      2.00000
     17       7.4610      0.00000
     18       8.5135      0.00000
     19       8.8845      0.00000
     20       8.8845      0.00000
     21       9.7147      0.00000
     22       9.7147      0.00000
     23      10.2328      0.00000
     24      10.4850      0.00000

 k-point     7 :       0.2000    0.2000    0.2000
  band No.  band energies     occupation 
      1      -9.1469      2.00000
      2      -6.8302      2.00000
      3      -6.8302      2.00000
      4      -6.8302      2.00000
      5      -2.3716      2.00000
      6      -2.3716      2.00000
      7      -2.3716      2.00000
      8       0.4541      2.00000
      9       0.4541      2.00000
     10       0.4541      2.00000
     11       1.2538      2.00000
     12       1.8887      2.00000
     13       1.8887      2.00000
     14       1.8887      2.00000
     15       4.2465      2.00000
     16       4.2465      2.00000
     17       6.6897      0.00000
     18       6.6897      0.00000
     19       6.6897      0.00000
     20       7.4552      0.00000
     21       9.1578      0.00000
     22       9.1578      0.00000
     23       9.1578      0.00000
     24       9.6226      0.00000

 k-point     8 :       0.4000    0.2000    0.2000
  band No.  band energies     occupation 
      1      -8.6153      2.00000
      2      -7.7872      2.00000
      3      -6.7288      2.00000
      4      -6.7288      2.00000
      5      -2.6552      2.00000
      6      -2.6552      2.00000
      7      -1.3642      2.00000
      8      -0.1581      2.00000
      9       0.2858      2.00000
     10       0.2858      2.00000
     11       1.7636      2.00000
     12       1.8922      2.00000
     13       1.8922      2.00000
     14       2.4517      2.00000
     15       3.3068      2.00000
     16       3.3889      2.00000
     17       7.3474      0.00000
     18       7.8927      0.00000
     19       7.9580      0.00000
     20       7.9580      0.00000
     21       9.2644      0.00000
     22       9.7554      0.00000
     23      10.3177      0.00000
     24      10.3177      0.00000

 k-point     9 :       0.4000    0.4000    0.2000
  band No.  band energies     occupation 
      1      -8.1359      2.00000
      2      -7.4324      2.00000
      3      -7.4324      2.00000
      4      -7.0078      2.00000
      5      -2.7553      2.00000
      6      -2.2618      2.00000
      7      -2.2618      2.00000
      8      -1.3827      2.00000
      9       0.7804      2.00000
     10       1.4176      2.00000
     11       1.4176      2.00000
     12       2.4476      2.00000
     13       2.7896      2.00000
     14       2.8367      2.00000
     15       2.8367      2.00000
     16       3.7950      2.00000
     17       7.6293      0.00000
     18       7.7800      0.00000
     19       8.3628      0.00000
     20       8.3628      0.00000
     21       9.1551      0.00000
     22       9.1551      0.00000
     23       9.8195      0.00000
     24       9.8755      0.00000

 k-point    10 :       0.4000    0.4000    0.4000
  band No.  band energies     occupation 
      1      -7.7603      2.00000
      2      -7.3055      2.00000
      3      -7.3055      2.00000
      4      -7.3055      2.00000
      5      -2.9904      2.00000
      6      -2.9904      2.00000
      7      -2.9904      2.00000
      8      -2.4638      2.00000
      9       2.5080      2.00000
     10       2.5080      2.00000
     11       2.5080      2.00000
     12       3.1162      2.00000
     13       3.1162      2.00000
     14       3.1162      2.00000
     15       3.5099      2.00000
     16       3.5099      2.00000
     17       6.8092      0.00000
     18       7.5257      0.00000
     19       7.5257      0.00000
     20       7.5257      0.00000
     21       9.3016      0.00000
     22       9.3016      0.00000
     23       9.3016      0.00000
     24       9.6942      0.00000


--------------------------------------------------------------------------------------------------------


 soft charge-density along one line, spin component           1
         0         1         2         3         4         5         6         7         8         9
 total charge-density along one line
 
 pseudopotential strength for first ion, spin component:           1
 23.154  27.671  -0.000  -0.000  -0.000   0.000   0.000   0.000
 27.671  33.077  -0.000  -0.000  -0.000   0.000   0.000   0.000
 -0.000  -0.000   5.473   0.000   0.000 -10.819  -0.000  -0.000
 -0.000  -0.000   0.000   5.473  -0.000  -0.000 -10.819   0.000
 -0.000  -0.000   0.000  -0.000   5.473  -0.000   0.000 -10.819
  0.000   0.000 -10.819  -0.000  -0.000  21.939   0.000   0.000
  0.000   0.000  -0.000 -10.819   0.000   0.000  21.939  -0.000
  0.000   0.000  -0.000   0.000 -10.819   0.000  -0.000  21.939
  0.000   0.000  -0.000   0.005  -0.000   0.000  -0.008   0.000
  0.000   0.000   0.000  -0.000   0.005  -0.000   0.000  -0.008
 -0.000  -0.000   0.000  -0.000   0.000  -0.000   0.000  -0.000
 -0.000  -0.000   0.005  -0.000  -0.000  -0.008   0.000   0.000
  0.000   0.000   0.000  -0.000  -0.000  -0.000   0.000   0.000
 total augmentation occupancy for first ion, spin component:           1
  6.973  -3.376  -0.000   0.000  -0.000  -0.000  -0.000   0.000  -0.000   0.000   0.000  -0.000  -0.000
 -3.376   1.986   0.000   0.000   0.000   0.000  -0.000  -0.000  -0.000  -0.000   0.000   0.000  -0.000
  0.000   0.000   1.685   0.000   0.000   0.075  -0.000  -0.000   0.000  -0.000  -0.000   0.125  -0.000
 -0.000  -0.000  -0.000   1.685  -0.000   0.000   0.075   0.000   0.125   0.000  -0.000   0.000  -0.000
 -0.000   0.000  -0.000  -0.000   1.685  -0.000  -0.000   0.075  -0.000   0.125  -0.000  -0.000  -0.000
 -0.000   0.000   0.075   0.000   0.000   0.004   0.000   0.000   0.000   0.000  -0.000   0.006   0.000
  0.000   0.000  -0.000   0.075  -0.000  -0.000   0.004   0.000   0.006  -0.000  -0.000  -0.000   0.000
  0.000  -0.000   0.000  -0.000   0.075  -0.000   0.000   0.004   0.000   0.006  -0.000   0.000  -0.000
 -0.000  -0.000   0.000   0.125   0.000  -0.000   0.006  -0.000   0.021  -0.000  -0.000  -0.000  -0.000
  0.000  -0.000  -0.000   0.000   0.125  -0.000  -0.000   0.006  -0.000   0.021   0.000  -0.000  -0.000
 -0.000   0.000   0.000   0.000   0.000  -0.000   0.000  -0.000  -0.000   0.000   0.008   0.000   0.000
  0.000   0.000   0.125  -0.000   0.000   0.006  -0.000  -0.000  -0.000   0.000  -0.000   0.021   0.000
  0.000  -0.000  -0.000  -0.000   0.000   0.000   0.000   0.000  -0.000  -0.000  -0.000   0.000   0.008


------------------------ aborting loop because EDIFF is reached ----------------------------------------


    CHARGE:  cpu time      0.0095: real time      0.0098
    FORLOC:  cpu time      0.0008: real time      0.0008
    FORNL :  cpu time      0.0363: real time      0.0365
    STRESS:  cpu time      0.2116: real time      0.2131
    FORCOR:  cpu time      0.0106: real time      0.0109
    FORHAR:  cpu time      0.0027: real time      0.0027
    MIXING:  cpu time      0.0004: real time      0.0004
    OFIELD:  cpu time      0.0000: real time      0.0000

  FORCE on cell =-STRESS in cart. coord.  units (eV):
  Direction    XX          YY          ZZ          XY          YZ          ZX
  --------------------------------------------------------------------------------------
  Alpha Z    95.49127    95.49127    95.49127
  Ewald    -330.10582  -330.10582  -330.10582     0.00000     0.00000     0.00000
  Hartree    22.88479    22.88479    22.88479    -0.00000    -0.00000    -0.00000
  E(xc)    -127.81867  -127.81867  -127.81867    -0.00000    -0.00000     0.00000
  Local    -117.13734  -117.13734  -117.13734     0.00000     0.00000     0.00000
  n-local   198.03882   199.80350   196.77330    -2.10402    -1.16140    -0.97313
  augment     9.25292     9.25292     9.25292     0.00000     0.00000     0.00000
  Kinetic   273.20303   284.93429   283.65687    -4.78624    -4.79001    -3.06601
  Fock        0.00000     0.00000     0.00000     0.00000     0.00000     0.00000
  -------------------------------------------------------------------------------------
  Total      31.37042    31.37042    31.37042    -0.00000     0.00000    -0.00000
  in kB     350.74072   350.74072   350.74072    -0.00000     0.00000    -0.00000
  external pressure =        0.74 kB  Pullay stress =      350.00 kB


 VOLUME and BASIS-vectors are now :
 -----------------------------------------------------------------------------
  energy-cutoff  :      400.00
  volume of cell :      143.30
      direct lattice vectors                 reciprocal lattice vectors
     5.232969930 -0.000000000 -0.000000000     0.191096072  0.000000000 -0.000000000
    -0.000000000  5.232969930 -0.000000000     0.000000000  0.191096072 -0.000000000
     0.000000000  0.000000000  5.232969930     0.000000000  0.000000000  0.191096072

  length of vectors
     5.232969930  5.232969930  5.232969930     0.191096072  0.191096072  0.191096072


 FORCES acting on ions
    electron-ion (+dipol)            ewald-force                    non-local-force                 convergence-correction
 -----------------------------------------------------------------------------------------------
   0.272E-14 -.476E-13 -.411E-15   -.178E-13 -.355E-14 0.355E-14   -.129E-16 -.351E-17 -.132E-16   -.358E-14 -.643E-13 0.763E-14
   0.339E-14 0.278E-12 0.256E-12   -.178E-13 0.355E-14 0.355E-14   0.259E-17 0.250E-16 -.135E-16   0.401E-14 0.330E-13 0.991E-14
   0.747E-14 0.343E-14 0.576E-12   -.178E-13 -.355E-14 0.355E-14   -.147E-16 -.383E-17 -.129E-16   0.326E-14 -.699E-14 -.770E-14
   0.251E-13 0.952E-12 0.452E-12   -.178E-13 0.355E-14 0.355E-14   -.126E-17 0.248E-16 -.138E-16   -.557E-14 0.608E-14 -.370E-13
   0.815E-14 0.405E-13 -.576E-14   0.170E-13 -.294E-15 -.771E-14   0.790E-18 0.237E-17 -.286E-17   -.360E-15 0.471E-14 0.622E-14
   0.136E-13 -.642E-14 0.680E-13   0.186E-13 -.278E-15 -.333E-14   -.332E-17 0.149E-17 0.103E-19   -.140E-14 -.125E-14 -.117E-13
   0.136E-13 -.110E-12 0.150E-12   0.173E-13 0.304E-15 -.729E-14   -.258E-17 0.191E-17 -.274E-17   0.111E-13 -.323E-14 -.119E-13
   0.272E-14 0.304E-13 0.201E-13   0.182E-13 0.321E-15 -.291E-14   -.217E-17 0.190E-17 -.209E-17   -.977E-15 0.394E-14 0.692E-14
 -----------------------------------------------------------------------------------------------
   0.767E-13 0.114E-11 0.152E-11   -.409E-16 0.523E-16 -.702E-14   -.335E-16 0.502E-16 -.611E-16   0.650E-14 -.281E-13 -.375E-13
 
 
 POSITION                                       TOTAL-FORCE (eV/Angst)
 -----------------------------------------------------------------------------------
     -0.00000      5.23297      5.23297        -0.000000     -0.000000     -0.000000
      2.61648      2.61648     -0.00000        -0.000000      0.000000      0.000000
      2.61648      0.00000      2.61648        -0.000000     -0.000000      0.000000
      5.23297      2.61648      2.61648         0.000000      0.000000     -0.000000
      1.30824      1.30824      1.30824         0.000000     -0.000000     -0.000000
      3.92473      1.30824      3.92473        -0.000000     -0.000000     -0.000000
      3.92473      3.92473      1.30824        -0.000000     -0.000000     -0.000000
      1.30824      3.92473      3.92473         0.000000     -0.000000      0.000000
 -----------------------------------------------------------------------------------
    total drift:                                0.000000      0.000000      0.000000


--------------------------------------------------------------------------------------------------------



  FREE ENERGIE OF THE ION-ELECTRON SYSTEM (eV)
  ---------------------------------------------------
  free  energy   TOTEN  =       -29.11672943 eV

  energy  without entropy=      -29.11672943  energy(sigma->0) =      -29.11672943
  enthalpy is  TOTEN    =         2.18743957 eV   P V=       31.30416899

 d Force = 0.5011548E-63[-0.361E-62, 0.461E-62]  d Energy = 0.5361077E-02-0.536E-02
 d Force =-0.1411138E-46[-0.234E-46,-0.486E-47]  d Ewald  = 0.2676020E+01-0.268E+01


--------------------------------------------------------------------------------------------------------


    POTLOK:  cpu time      0.0119: real time      0.0122


--------------------------------------------------------------------------------------------------------




--------------------------------------------------------------------------------------------------------


  
 reached required accuracy - stopping structural energy minimisation
 writing wavefunctions
     LOOP+:  cpu time      1.0883: real time      1.1596
    4ORBIT:  cpu time      0.0000: real time      0.0000
 BZINTS: Fermi energy:    4.982767;   32.000000 electrons
         Band energy:-0.413740E+02;  BLOECHL correction:    0.000000

 total amount of memory used by VASP MPI-rank0    41314. kBytes
=======================================================================

   base      :      30000. kBytes
   nonl-proj :       6729. kBytes
   fftplans  :        858. kBytes
   grid      :       2151. kBytes
   one-center:         64. kBytes
   wavefun   :       1512. kBytes
 
  
  
 General timing and accounting informations for this job:
 ========================================================
  
                  Total CPU time used (sec):        7.249
                            User time (sec):        4.889
                          System time (sec):        2.360
                         Elapsed time (sec):        8.598
  
                   Maximum memory used (kb):      127180.
                   Average memory used (kb):          N/A
  
                          Minor page faults:        12801
                          Major page faults:          149
                 Voluntary context switches:         1869
