<?xml version="1.0" encoding="ISO-8859-1"?>
<modeling>
 <generator>
  <i name="program" type="string">vasp </i>
  <i name="version" type="string">6.4.3  </i>
  <i name="subversion" type="string">19Mar24 (build Aug 29 2024 15:27:20) complex                          parallel </i>
  <i name="platform" type="string">LinuxIFC </i>
  <i name="date" type="string">2025 03 19 </i>
  <i name="time" type="string">11:22:05 </i>
 </generator>
 <incar>
  <i type="string" name="SYSTEM">GaAs</i>
  <i type="string" name="PREC">Normal</i>
  <i type="int" name="IBRION">     2</i>
  <i type="int" name="NFREE">     2</i>
  <i type="int" name="NSW">   100</i>
  <i type="int" name="ISIF">     3</i>
  <i name="ENCUT">    400.00000000</i>
  <i name="POTIM">      0.10000000</i>
  <i type="int" name="ISMEAR">    -5</i>
  <i name="SIGMA">      0.10000000</i>
  <i name="PSTRESS">    350.00000000</i>
 </incar>
 <primitive_cell>
  <structure name="primitive_cell" >
   <crystal>
    <varray name="basis" >
     <v>       2.75132003      -2.75132003       0.00000000 </v>
     <v>       2.75132003       0.00000000       2.75132003 </v>
     <v>       0.00000000      -2.75132003       2.75132003 </v>
    </varray>
    <i name="volume">     41.65367512 </i>
    <varray name="rec_basis" >
     <v>       0.18173095      -0.18173095      -0.18173095 </v>
     <v>       0.18173095       0.18173095       0.18173095 </v>
     <v>      -0.18173095      -0.18173095       0.18173095 </v>
    </varray>
   </crystal>
   <varray name="positions" >
    <v>       0.00000000       0.00000000       0.00000000 </v>
    <v>       0.75000000       0.75000000       0.75000000 </v>
   </varray>
  </structure>
  <varray name="primitive_index" >
   <v type="int" >        1 </v>
   <v type="int" >        5 </v>
  </varray>
 </primitive_cell>
 <kpoints>
  <generation param="Gamma">
   <v type="int" name="divisions">       5        5        5 </v>
   <v name="usershift">      0.00000000       0.00000000       0.00000000 </v>
   <v name="genvec1">      0.20000000       0.00000000       0.00000000 </v>
   <v name="genvec2">      0.00000000       0.20000000       0.00000000 </v>
   <v name="genvec3">      0.00000000       0.00000000       0.20000000 </v>
   <v name="shift">      0.00000000       0.00000000       0.00000000 </v>
  </generation>
  <varray name="kpointlist" >
   <v>       0.00000000       0.00000000       0.00000000 </v>
   <v>       0.20000000       0.00000000       0.00000000 </v>
   <v>       0.40000000       0.00000000       0.00000000 </v>
   <v>       0.20000000       0.20000000       0.00000000 </v>
   <v>       0.40000000       0.20000000       0.00000000 </v>
   <v>       0.40000000       0.40000000       0.00000000 </v>
   <v>       0.20000000       0.20000000       0.20000000 </v>
   <v>       0.40000000       0.20000000       0.20000000 </v>
   <v>       0.40000000       0.40000000       0.20000000 </v>
   <v>       0.40000000       0.40000000       0.40000000 </v>
  </varray>
  <varray name="weights" >
   <v>       0.00800000 </v>
   <v>       0.04800000 </v>
   <v>       0.04800000 </v>
   <v>       0.09600000 </v>
   <v>       0.19200000 </v>
   <v>       0.09600000 </v>
   <v>       0.06400000 </v>
   <v>       0.19200000 </v>
   <v>       0.19200000 </v>
   <v>       0.06400000 </v>
  </varray>
  <varray name="tetrahedronlist"  type="int" >
   <v type="int" >       12        7        8        8        9 </v>
   <v type="int" >       18        8        8        9        9 </v>
   <v type="int" >       24        8        9        9       10 </v>
   <v type="int" >       12        8        9        9        9 </v>
   <v type="int" >       24        9        9        9       10 </v>
   <v type="int" >       18        9        9       10       10 </v>
   <v type="int" >       24        4        5        7        8 </v>
   <v type="int" >       12        5        7        8        8 </v>
   <v type="int" >       24        5        8        8        9 </v>
   <v type="int" >       24        4        5        5        8 </v>
   <v type="int" >       24        5        5        6        8 </v>
   <v type="int" >       12        5        6        8        9 </v>
   <v type="int" >       12        9       10       10       10 </v>
   <v type="int" >       12        8        8        9       10 </v>
   <v type="int" >       12        8        9       10       10 </v>
   <v type="int" >       12        5        5        8        9 </v>
   <v type="int" >       12        5        8        9        9 </v>
   <v type="int" >       12        5        5        6        9 </v>
   <v type="int" >       12        5        6        6        9 </v>
   <v type="int" >       12        5        6        9        9 </v>
   <v type="int" >       12        5        6        8        8 </v>
   <v type="int" >       12        5        6        6        8 </v>
   <v type="int" >       12        6        8        8        9 </v>
   <v type="int" >       12        6        8        9        9 </v>
   <v type="int" >       12        6        6        8        9 </v>
   <v type="int" >       12        7        8        9       10 </v>
   <v type="int" >       12        4        5        8        9 </v>
   <v type="int" >       12        4        7        8        9 </v>
   <v type="int" >       12        4        5        6        9 </v>
   <v type="int" >       12        5        6        7        8 </v>
   <v type="int" >       12        4        5        6        7 </v>
   <v type="int" >       12        6        7        8        9 </v>
   <v type="int" >       12        2        4        7        8 </v>
   <v type="int" >       12        2        4        5        8 </v>
   <v type="int" >       12        2        3        5        8 </v>
   <v type="int" >       12        4        4        5        7 </v>
   <v type="int" >       12        2        4        4        5 </v>
   <v type="int" >       12        2        3        4        5 </v>
   <v type="int" >       12        3        4        5        5 </v>
   <v type="int" >       12        2        3        4        7 </v>
   <v type="int" >       12        3        4        5        7 </v>
   <v type="int" >       12        3        5        7        8 </v>
   <v type="int" >        6       10       10       10       10 </v>
   <v type="int" >       12        6        6        9        9 </v>
   <v type="int" >       12        6        9        9        9 </v>
   <v type="int" >       12        6        6        6        9 </v>
   <v type="int" >       12        3        5        8        8 </v>
   <v type="int" >       12        3        5        5        8 </v>
   <v type="int" >       12        3        3        5        8 </v>
   <v type="int" >       12        5        5        5        8 </v>
   <v type="int" >       12        3        5        5        5 </v>
   <v type="int" >        6        3        3        5        5 </v>
   <v type="int" >        6        5        5        8        8 </v>
   <v type="int" >       12        2        4        4        7 </v>
   <v type="int" >       12        2        2        4        4 </v>
   <v type="int" >       12        1        2        2        4 </v>
   <v type="int" >       12        1        2        4        7 </v>
  </varray>
  <i name="volumeweight">      0.00133333 </i>
 </kpoints>
 <parameters>
  <separator name="general" >
   <i type="string" name="SYSTEM">GaAs</i>
   <i type="logical" name="LCOMPAT"> F  </i>
  </separator>
  <separator name="electronic" >
   <i type="string" name="PREC">normal</i>
   <i name="ENMAX">    400.00000000</i>
   <i name="ENAUG">    462.75800000</i>
   <i name="EDIFF">      0.00010000</i>
   <i type="int" name="IALGO">    38</i>
   <i type="int" name="IWAVPR">    11</i>
   <i type="int" name="NBANDS">    24</i>
   <i type="int" name="NBANDSLOW">    -1</i>
   <i type="int" name="NBANDSHIGH">    -1</i>
   <i name="NELECT">     32.00000000</i>
   <i type="int" name="TURBO">     0</i>
   <i type="int" name="IRESTART">     0</i>
   <i type="int" name="NREBOOT">     0</i>
   <i type="int" name="NMIN">     0</i>
   <i name="EREF">      0.00000000</i>
   <separator name="electronic smearing" >
    <i type="int" name="ISMEAR">    -5</i>
    <i name="SIGMA">      0.10000000</i>
    <i name="KSPACING">      0.50000000</i>
    <i type="logical" name="KGAMMA"> T  </i>
    <i type="logical" name="KBLOWUP"> T  </i>
   </separator>
   <separator name="electronic projectors" >
    <i type="logical" name="LREAL"> F  </i>
    <v name="ROPT">      0.00000000      0.00000000</v>
    <i type="int" name="LMAXPAW">  -100</i>
    <i type="int" name="LMAXMIX">     2</i>
    <i type="logical" name="NLSPLINE"> F  </i>
   </separator>
   <separator name="electronic startup" >
    <i type="int" name="ISTART">     1</i>
    <i type="int" name="ICHARG">     0</i>
    <i type="int" name="INIWAV">     1</i>
   </separator>
   <separator name="electronic spin" >
    <i type="int" name="ISPIN">     1</i>
    <i type="logical" name="LNONCOLLINEAR"> F  </i>
    <v name="MAGMOM">      1.00000000      1.00000000      1.00000000      1.00000000      1.00000000      1.00000000      1.00000000      1.00000000</v>
    <i name="NUPDOWN">     -1.00000000</i>
    <i type="logical" name="LSORBIT"> F  </i>
    <v name="SAXIS">      0.00000000      0.00000000      1.00000000</v>
    <i type="logical" name="LSPIRAL"> F  </i>
    <v name="QSPIRAL">      0.00000000      0.00000000      0.00000000</v>
    <i type="logical" name="LZEROZ"> F  </i>
   </separator>
   <separator name="electronic exchange-correlation" >
    <i type="logical" name="LASPH"> F  </i>
   </separator>
   <separator name="electronic convergence" >
    <i type="int" name="NELM">    60</i>
    <i type="int" name="NELMDL">     0</i>
    <i type="int" name="NELMIN">     2</i>
    <i name="ENINI">    400.00000000</i>
    <separator name="electronic convergence detail" >
     <i type="logical" name="LDIAG"> T  </i>
     <i type="logical" name="LSUBROT"> F  </i>
     <i name="WEIMIN">      0.00100000</i>
     <i name="EBREAK">      0.00000104</i>
     <i name="DEPER">      0.30000000</i>
     <i type="int" name="NRMM">     4</i>
     <i name="TIME">      0.40000000</i>
    </separator>
   </separator>
   <separator name="electronic mixer" >
    <i name="AMIX">      0.40000000</i>
    <i name="BMIX">      1.00000000</i>
    <i name="AMIN">      0.10000000</i>
    <i name="AMIX_MAG">      1.60000000</i>
    <i name="BMIX_MAG">      1.00000000</i>
    <separator name="electronic mixer details" >
     <i type="int" name="IMIX">     4</i>
     <i type="logical" name="MIXFIRST"> F  </i>
     <i type="int" name="MAXMIX">   -45</i>
     <i name="WC">    100.00000000</i>
     <i type="int" name="INIMIX">     1</i>
     <i type="int" name="MIXPRE">     1</i>
     <i type="int" name="MREMOVE">     5</i>
    </separator>
   </separator>
   <separator name="electronic dipolcorrection" >
    <i type="logical" name="LDIPOL"> F  </i>
    <i type="logical" name="LMONO"> F  </i>
    <i type="int" name="IDIPOL">     0</i>
    <i name="EPSILON">      1.00000000</i>
    <v name="DIPOL">   -100.00000000   -100.00000000   -100.00000000</v>
    <i name="EFIELD">      0.00000000</i>
    <i type="logical" name="LVACPOTAV"> F  </i>
   </separator>
  </separator>
  <separator name="grids" >
   <i type="int" name="NGX">    28</i>
   <i type="int" name="NGY">    28</i>
   <i type="int" name="NGZ">    28</i>
   <i type="int" name="NGXF">    56</i>
   <i type="int" name="NGYF">    56</i>
   <i type="int" name="NGZF">    56</i>
   <i type="logical" name="ADDGRID"> F  </i>
  </separator>
  <separator name="ionic" >
   <i type="int" name="NSW">   100</i>
   <i type="int" name="IBRION">     2</i>
   <i type="int" name="MDALGO">     0</i>
   <i type="int" name="ISIF">     3</i>
   <i name="PSTRESS">    350.00000000</i>
   <i name="EDIFFG">      0.00100000</i>
   <i type="int" name="NFREE">     2</i>
   <i name="POTIM">      0.10000000</i>
   <i name="SMASS">     -3.00000000</i>
   <i name="SCALEE">      1.00000000</i>
  </separator>
  <separator name="ionic md" >
   <i name="TEBEG">      0.00010000</i>
   <i name="TEEND">      0.00010000</i>
   <i type="int" name="NBLOCK">     1</i>
   <i type="int" name="KBLOCK">   100</i>
   <i type="int" name="NPACO">   256</i>
   <i name="APACO">     10.00000000</i>
  </separator>
  <separator name="symmetry" >
   <i type="int" name="ISYM">     2</i>
   <i name="SYMPREC">      0.00001000</i>
  </separator>
  <separator name="dos" >
   <i type="int" name="LORBIT">     0</i>
   <v name="RWIGS">     -1.00000000     -1.00000000</v>
   <i type="int" name="NEDOS">   301</i>
   <i name="EMIN">     10.00000000</i>
   <i name="EMAX">    -10.00000000</i>
   <i name="EFERMI">      0.00000000</i>
  </separator>
  <separator name="writing" >
   <i type="int" name="NWRITE">     2</i>
   <i type="logical" name="LWAVE"> T  </i>
   <i type="logical" name="LDOWNSAMPLE"> F  </i>
   <i type="logical" name="LCHARG"> T  </i>
   <i type="logical" name="LPARD"> F  </i>
   <i type="logical" name="LVTOT"> F  </i>
   <i type="logical" name="LVHAR"> F  </i>
   <i type="logical" name="LELF"> F  </i>
   <i type="logical" name="LOPTICS"> F  </i>
   <v name="STM">      0.00000000      0.00000000      0.00000000      0.00000000      0.00000000      0.00000000      0.00000000</v>
  </separator>
  <separator name="performance" >
   <i type="int" name="NPAR">     8</i>
   <i type="int" name="NSIM">     4</i>
   <i type="int" name="NBLK">    -1</i>
   <i type="logical" name="LPLANE"> T  </i>
   <i type="logical" name="LSCALAPACK"> T  </i>
   <i type="logical" name="LSCAAWARE"> F  </i>
   <i type="logical" name="LSCALU"> F  </i>
   <i type="logical" name="LASYNC"> F  </i>
   <i type="logical" name="LORBITALREAL"> F  </i>
  </separator>
  <separator name="miscellaneous" >
   <i type="int" name="IDIOT">     3</i>
   <i type="int" name="PHON_NSTRUCT">    -1</i>
   <i type="logical" name="LMUSIC"> F  </i>
   <v name="POMASS">     74.92200000     69.72300000</v>
   <v name="DARWINR">      0.00000000      0.00000000</v>
   <v name="DARWINV">      1.00000000      1.00000000</v>
   <i type="logical" name="LCORR"> T  </i>
  </separator>
  <i type="logical" name="GGA_COMPAT"> T  </i>
  <i type="logical" name="LBERRY"> F  </i>
  <i type="int" name="ICORELEVEL">     0</i>
  <i type="logical" name="LDAU"> F  </i>
  <i type="int" name="I_CONSTRAINED_M">     0</i>
  <separator name="electronic exchange-correlation" >
   <i type="string" name="GGA    ">PE</i>
   <i type="string" name="XC_C">1</i>
   <i type="int" name="VOSKOWN">     0</i>
   <i type="logical" name="LHFCALC"> F  </i>
   <i type="string" name="PRECFOCK"></i>
   <i type="logical" name="LSYMGRAD"> F  </i>
   <i type="logical" name="LHFONE"> F  </i>
   <i type="logical" name="LRHFCALC"> F  </i>
   <i type="logical" name="LTHOMAS"> F  </i>
   <i type="logical" name="LMODELHF"> F  </i>
   <i type="logical" name="LFOCKACE"> F  </i>
   <i name="ENCUT4O">     -1.00000000</i>
   <i type="int" name="EXXOEP">     0</i>
   <i type="int" name="FOURORBIT">     0</i>
   <i name="AEXX">      0.00000000</i>
   <i name="HFALPHA">      0.00000000</i>
   <i name="MCALPHA">      0.00000000</i>
   <i name="ALDAX">      1.00000000</i>
   <i name="AGGAX">      1.00000000</i>
   <i name="AMGGAX">      1.00000000</i>
   <i name="ALDAC">      1.00000000</i>
   <i name="AGGAC">      1.00000000</i>
   <i name="AMGGAC">      1.00000000</i>
   <i type="int" name="NKREDX">     1</i>
   <i type="int" name="NKREDY">     1</i>
   <i type="int" name="NKREDZ">     1</i>
   <i type="logical" name="SHIFTRED"> F  </i>
   <i type="logical" name="ODDONLY"> F  </i>
   <i type="logical" name="EVENONLY"> F  </i>
   <i type="int" name="LMAXFOCK">     0</i>
   <i type="int" name="NMAXFOCKAE">     0</i>
   <i type="logical" name="LFOCKAEDFT"> F  </i>
   <i name="HFSCREEN">      0.00000000</i>
   <i name="HFSCREENC">      0.00000000</i>
   <i type="int" name="NBANDSGWLOW">     0</i>
  </separator>
  <separator name="vdW DFT" >
   <i type="logical" name="LUSE_VDW"> F  </i>
   <i type="int" name="IVDW_NL">    -1</i>
   <i type="logical" name="LSPIN_VDW"> F  </i>
   <i name="ZAB_VDW">     -0.84910000</i>
   <i name="GAMMA_VDW">      1.39626340</i>
   <i name="ALPHA_VDW">      0.00000000</i>
   <i name="PARAM1">      0.12340000</i>
   <i name="PARAM2">      1.00000000</i>
   <i name="BPARAM">      6.30000000</i>
   <i name="CPARAM">      0.00930000</i>
  </separator>
  <separator name="model GW" >
   <i type="int" name="MODEL_GW">     0</i>
   <i name="MODEL_EPS0">     12.49610254</i>
   <i name="MODEL_ALPHA">      1.00000000</i>
  </separator>
  <separator name="linear response parameters" >
   <i type="logical" name="LEPSILON"> F  </i>
   <i type="logical" name="LRPA"> F  </i>
   <i type="logical" name="LNABLA"> F  </i>
   <i type="logical" name="LVEL"> F  </i>
   <i name="CSHIFT">      0.10000000</i>
   <i name="OMEGAMAX">     -1.00000000</i>
   <i name="DEG_THRESHOLD">      0.00200000</i>
   <i name="RTIME">     -0.10000000</i>
   <i name="WPLASMAI">      0.00000000</i>
   <v name="DFIELD">      0.00000000      0.00000000      0.00000000</v>
   <v name="WPLASMA">      0.00000000      0.00000000      0.00000000      0.00000000      0.00000000      0.00000000      0.00000000      0.00000000      0.00000000</v>
  </separator>
  <separator name="orbital magnetization" >
   <i type="logical" name="NUCIND"> F  </i>
   <v name="MAGPOS">      0.00000000      0.00000000      0.00000000</v>
   <i type="logical" name="LNICSALL"> T  </i>
   <i type="logical" name="ORBITALMAG"> F  </i>
   <i type="logical" name="LMAGBLOCH"> F  </i>
   <i type="logical" name="LCHIMAG"> F  </i>
   <i type="logical" name="LGAUGE"> T  </i>
   <i type="int" name="MAGATOM">     0</i>
   <v name="MAGDIPOL">      0.00000000      0.00000000      0.00000000</v>
   <v name="AVECCONST">      0.00000000      0.00000000      0.00000000</v>
  </separator>
  <separator name="response functions" >
   <i type="logical" name="LALL_IN_ONE"> F  </i>
   <i type="int" name="IALL_IN_ONE">    -1</i>
   <i type="int" name="NBANDS_WAVE">    -1</i>
   <i type="logical" name="LFINITE_TEMPERATURE"> F  </i>
   <i type="logical" name="LADDER"> F  </i>
   <i type="logical" name="LRPAFORCE"> F  </i>
   <i type="logical" name="LFXC"> F  </i>
   <i type="logical" name="LHARTREE"> T  </i>
   <i type="int" name="IBSE">     0</i>
   <v type="int" name="KPOINT">    -1     0     0     0</v>
   <i type="logical" name="LTCTC"> F  </i>
   <i type="logical" name="LTCTE"> F  </i>
   <i type="logical" name="LTETE"> F  </i>
   <i type="logical" name="LTRIPLET"> F  </i>
   <i type="logical" name="LFXCEPS"> F  </i>
   <i type="logical" name="LFXHEG"> F  </i>
   <i type="int" name="NATURALO">     2</i>
   <i type="logical" name="LHOLEGF"> F  </i>
   <i type="logical" name="L2ORDER"> F  </i>
   <i type="logical" name="LDMP1"> F  </i>
   <i type="logical" name="LMP2LT"> F  </i>
   <i type="logical" name="LSMP2LT"> F  </i>
   <i type="logical" name="LGWLF"> F  </i>
   <i name="ENCUTGW">     -1.60000002</i>
   <i name="ENCUTGWSOFT">     -1.60000002</i>
   <i name="ENCUTLF">     -1.00000000</i>
   <i type="logical" name="ESF_SPLINES"> F  </i>
   <i name="ESF_CONV">      0.01000000</i>
   <i type="int" name="ESF_NINTER">    15</i>
   <i type="int" name="LMAXMP2">    -1</i>
   <i name="SCISSOR">      0.00000000</i>
   <i type="int" name="NOMEGA">     0</i>
   <i type="int" name="NOMEGAR">     0</i>
   <i type="int" name="NBANDSGW">    -1</i>
   <i type="int" name="NBANDSO">    -1</i>
   <i type="int" name="NBANDSV">    -1</i>
   <i type="int" name="NELMGW">     1</i>
   <i type="int" name="NELMHF">     1</i>
   <i type="int" name="DIM">     3</i>
   <i type="int" name="IESPILON">     4</i>
   <i type="int" name="ANTIRES">     0</i>
   <i name="OMEGAMAX">    -30.00000000</i>
   <i name="OMEGAMIN">    -30.00000000</i>
   <i name="OMEGATL">   -200.00000000</i>
   <i type="int" name="OMEGAGRID">     0</i>
   <i name="CSHIFT">     -0.10000000</i>
   <i type="logical" name="LSELFENERGY"> F  </i>
   <i type="logical" name="LSPECTRAL"> F  </i>
   <i type="logical" name="LSPECTRALGW"> F  </i>
   <i type="logical" name="LSINGLES"> F  </i>
   <i type="logical" name="LFERMIGW"> F  </i>
   <i type="logical" name="ODDONLYGW"> F  </i>
   <i type="logical" name="EVENONLYGW"> F  </i>
   <i type="int" name="NKREDLFX">     1</i>
   <i type="int" name="NKREDLFY">     1</i>
   <i type="int" name="NKREDLFZ">     1</i>
   <i type="int" name="MAXMEM">  2800</i>
   <i type="int" name="TELESCOPE">     0</i>
   <i type="int" name="NTAUPAR">    -1</i>
   <i type="int" name="NOMEGAPAR">    -1</i>
   <i name="DAMP_NEWTON">      0.80000001</i>
   <i name="LAMBDA">      1.00000000</i>
  </separator>
  <separator name="External order field" >
   <i name="OFIELD_KAPPA">      0.00000000</i>
   <v name="OFIELD_K">      0.00000000      0.00000000      0.00000000</v>
   <i name="OFIELD_Q6_NEAR">      0.00000000</i>
   <i name="OFIELD_Q6_FAR">      0.00000000</i>
   <i name="OFIELD_A">      0.00000000</i>
  </separator>
  <separator name="optional k-points parameters" >
   <i type="int" name="KPOINTS_OPT_MODE">     1</i>
   <i type="logical" name="LKPOINTS_OPT"> F  </i>
  </separator>
 </parameters>
 <atominfo>
  <atoms>       8 </atoms>
  <types>       2 </types>
  <array name="atoms" >
   <dimension dim="1">ion</dimension>
   <field type="string">element</field>
   <field type="int">atomtype</field>
   <set>
    <rc><c>As</c><c>   1</c></rc>
    <rc><c>As</c><c>   1</c></rc>
    <rc><c>As</c><c>   1</c></rc>
    <rc><c>As</c><c>   1</c></rc>
    <rc><c>Ga</c><c>   2</c></rc>
    <rc><c>Ga</c><c>   2</c></rc>
    <rc><c>Ga</c><c>   2</c></rc>
    <rc><c>Ga</c><c>   2</c></rc>
   </set>
  </array>
  <array name="atomtypes" >
   <dimension dim="1">type</dimension>
   <field type="int">atomspertype</field>
   <field type="string">element</field>
   <field>mass</field>
   <field>valence</field>
   <field type="string">pseudopotential</field>
   <set>
    <rc><c>   4</c><c>As</c><c>     74.92200000</c><c>      5.00000000</c><c>  PAW_PBE As 22Sep2009                  </c></rc>
    <rc><c>   4</c><c>Ga</c><c>     69.72300000</c><c>      3.00000000</c><c>  PAW_PBE Ga 08Apr2002                  </c></rc>
   </set>
  </array>
 </atominfo>
 <structure name="initialpos" >
  <crystal>
   <varray name="basis" >
    <v>       5.50264006       0.00000000       0.00000000 </v>
    <v>       0.00000000       5.50264006       0.00000000 </v>
    <v>       0.00000000       0.00000000       5.50264006 </v>
   </varray>
   <i name="volume">    166.61470049 </i>
   <varray name="rec_basis" >
    <v>       0.18173095       0.00000000       0.00000000 </v>
    <v>       0.00000000       0.18173095       0.00000000 </v>
    <v>       0.00000000       0.00000000       0.18173095 </v>
   </varray>
  </crystal>
  <varray name="positions" >
   <v>       0.00000000       0.00000000       0.00000000 </v>
   <v>       0.50000000       0.50000000       0.00000000 </v>
   <v>       0.50000000       0.00000000       0.50000000 </v>
   <v>       0.00000000       0.50000000       0.50000000 </v>
   <v>       0.25000000       0.25000000       0.25000000 </v>
   <v>       0.75000000       0.25000000       0.75000000 </v>
   <v>       0.75000000       0.75000000       0.25000000 </v>
   <v>       0.25000000       0.75000000       0.75000000 </v>
  </varray>
 </structure>
 <calculation>
  <scstep>
   <time name="dav">    0.20    0.21</time>
   <time name="total">    0.22    0.23</time>
   <energy>
    <i name="alphaZ">     82.12872199 </i>
    <i name="ewald">   -941.78307081 </i>
    <i name="hartreedc">    -71.54195235 </i>
    <i name="XCdc">   -119.79238163 </i>
    <i name="pawpsdc">   2888.93764376 </i>
    <i name="pawaedc">  -2710.21976758 </i>
    <i name="eentropy">      0.00000000 </i>
    <i name="bandstr">    -76.53513492 </i>
    <i name="atom">    916.21663293 </i>
    <i name="e_fr_energy">    -32.58930860 </i>
    <i name="e_wo_entrp">    -32.58930860 </i>
    <i name="e_0_energy">    -32.58930860 </i>
   </energy>
  </scstep>
  <scstep>
   <time name="dav">    0.18    0.19</time>
   <time name="total">    0.20    0.22</time>
   <energy>
    <i name="e_fr_energy">    -32.39905543 </i>
    <i name="e_wo_entrp">    -32.39905543 </i>
    <i name="e_0_energy">    -32.39905543 </i>
   </energy>
  </scstep>
  <scstep>
   <time name="dav">    0.18    0.19</time>
   <time name="total">    0.20    0.22</time>
   <energy>
    <i name="e_fr_energy">    -32.34089031 </i>
    <i name="e_wo_entrp">    -32.34089031 </i>
    <i name="e_0_energy">    -32.34089031 </i>
   </energy>
  </scstep>
  <scstep>
   <time name="dav">    0.18    0.19</time>
   <time name="total">    0.20    0.21</time>
   <energy>
    <i name="e_fr_energy">    -32.33572446 </i>
    <i name="e_wo_entrp">    -32.33572446 </i>
    <i name="e_0_energy">    -32.33572446 </i>
   </energy>
  </scstep>
  <scstep>
   <time name="dav">    0.20    0.21</time>
   <time name="total">    0.22    0.23</time>
   <energy>
    <i name="e_fr_energy">    -32.33532833 </i>
    <i name="e_wo_entrp">    -32.33532833 </i>
    <i name="e_0_energy">    -32.33532833 </i>
   </energy>
  </scstep>
  <scstep>
   <time name="dav">    0.13    0.14</time>
   <time name="total">    0.14    0.15</time>
   <energy>
    <i name="alphaZ">     82.12872199 </i>
    <i name="ewald">   -941.78307081 </i>
    <i name="hartreedc">    -78.87910271 </i>
    <i name="XCdc">   -120.02893403 </i>
    <i name="pawpsdc">   2304.73592825 </i>
    <i name="pawaedc">  -2126.23692148 </i>
    <i name="eentropy">      0.00000000 </i>
    <i name="bandstr">    -68.48860613 </i>
    <i name="atom">    916.21663293 </i>
    <i name="e_fr_energy">    -32.33535200 </i>
    <i name="e_wo_entrp">    -32.33535200 </i>
    <i name="e_0_energy">    -32.33535200 </i>
   </energy>
  </scstep>
  <structure>
   <crystal>
    <varray name="basis" >
     <v>       5.50264006       0.00000000       0.00000000 </v>
     <v>       0.00000000       5.50264006       0.00000000 </v>
     <v>       0.00000000       0.00000000       5.50264006 </v>
    </varray>
    <i name="volume">    166.61470049 </i>
    <varray name="rec_basis" >
     <v>       0.18173095       0.00000000       0.00000000 </v>
     <v>       0.00000000       0.18173095       0.00000000 </v>
     <v>       0.00000000       0.00000000       0.18173095 </v>
    </varray>
   </crystal>
   <varray name="positions" >
    <v>       0.00000000       0.00000000       0.00000000 </v>
    <v>       0.50000000       0.50000000       0.00000000 </v>
    <v>       0.50000000       0.00000000       0.50000000 </v>
    <v>       0.00000000       0.50000000       0.50000000 </v>
    <v>       0.25000000       0.25000000       0.25000000 </v>
    <v>       0.75000000       0.25000000       0.75000000 </v>
    <v>       0.75000000       0.75000000       0.25000000 </v>
    <v>       0.25000000       0.75000000       0.75000000 </v>
   </varray>
  </structure>
  <varray name="forces" >
   <v>       0.00000000      -0.00000000      -0.00000000 </v>
   <v>      -0.00000000       0.00000000       0.00000000 </v>
   <v>      -0.00000000       0.00000000       0.00000000 </v>
   <v>      -0.00000000       0.00000000       0.00000000 </v>
   <v>       0.00000000      -0.00000000      -0.00000000 </v>
   <v>       0.00000000      -0.00000000       0.00000000 </v>
   <v>       0.00000000      -0.00000000      -0.00000000 </v>
   <v>       0.00000000      -0.00000000      -0.00000000 </v>
  </varray>
  <varray name="stress" >
   <v>     119.27026750      -0.00000000      -0.00000000 </v>
   <v>      -0.00000000     119.27026750      -0.00000000 </v>
   <v>       0.00000000       0.00000000     119.27026750 </v>
  </varray>
  <energy>
   <i name="e_fr_energy">      4.06208297 </i>
   <i name="e_wo_entrp">      4.06208297 </i>
   <i name="e_0_energy">      4.06208297 </i>
  </energy>
  <time name="totalsc">    1.64    2.12</time>
 </calculation>
 <calculation>
  <scstep>
   <time name="dav">    0.19    0.20</time>
   <time name="total">    0.21    0.22</time>
   <energy>
    <i name="alphaZ">     89.69226467 </i>
    <i name="ewald">   -969.84914612 </i>
    <i name="hartreedc">    -81.26961550 </i>
    <i name="XCdc">   -119.35585024 </i>
    <i name="pawpsdc">   2306.43656668 </i>
    <i name="pawaedc">  -2127.93409276 </i>
    <i name="eentropy">      0.00000000 </i>
    <i name="bandstr">    -45.08198068 </i>
    <i name="atom">    916.21663293 </i>
    <i name="e_fr_energy">    -31.14522103 </i>
    <i name="e_wo_entrp">    -31.14522103 </i>
    <i name="e_0_energy">    -31.14522103 </i>
   </energy>
  </scstep>
  <scstep>
   <time name="dav">    0.18    0.19</time>
   <time name="total">    0.21    0.22</time>
   <energy>
    <i name="e_fr_energy">    -30.89917115 </i>
    <i name="e_wo_entrp">    -30.89917115 </i>
    <i name="e_0_energy">    -30.89917115 </i>
   </energy>
  </scstep>
  <scstep>
   <time name="dav">    0.18    0.19</time>
   <time name="total">    0.20    0.22</time>
   <energy>
    <i name="e_fr_energy">    -30.80938068 </i>
    <i name="e_wo_entrp">    -30.80938068 </i>
    <i name="e_0_energy">    -30.80938068 </i>
   </energy>
  </scstep>
  <scstep>
   <time name="dav">    0.18    0.20</time>
   <time name="total">    0.21    0.22</time>
   <energy>
    <i name="e_fr_energy">    -30.80719619 </i>
    <i name="e_wo_entrp">    -30.80719619 </i>
    <i name="e_0_energy">    -30.80719619 </i>
   </energy>
  </scstep>
  <scstep>
   <time name="dav">    0.19    0.20</time>
   <time name="total">    0.21    0.23</time>
   <energy>
    <i name="e_fr_energy">    -30.80492979 </i>
    <i name="e_wo_entrp">    -30.80492979 </i>
    <i name="e_0_energy">    -30.80492979 </i>
   </energy>
  </scstep>
  <scstep>
   <time name="dav">    0.17    0.18</time>
   <time name="total">    0.19    0.20</time>
   <energy>
    <i name="alphaZ">     89.69226467 </i>
    <i name="ewald">   -969.84914612 </i>
    <i name="hartreedc">    -72.83554890 </i>
    <i name="XCdc">   -118.94109068 </i>
    <i name="pawpsdc">   2707.10945008 </i>
    <i name="pawaedc">  -2529.04385972 </i>
    <i name="eentropy">      0.00000000 </i>
    <i name="bandstr">    -53.15362691 </i>
    <i name="atom">    916.21663293 </i>
    <i name="e_fr_energy">    -30.80492465 </i>
    <i name="e_wo_entrp">    -30.80492465 </i>
    <i name="e_0_energy">    -30.80492465 </i>
   </energy>
  </scstep>
  <structure>
   <crystal>
    <varray name="basis" >
     <v>       5.34340137      -0.00000000      -0.00000000 </v>
     <v>      -0.00000000       5.34340137      -0.00000000 </v>
     <v>       0.00000000       0.00000000       5.34340137 </v>
    </varray>
    <i name="volume">    152.56446547 </i>
    <varray name="rec_basis" >
     <v>       0.18714671       0.00000000      -0.00000000 </v>
     <v>       0.00000000       0.18714671      -0.00000000 </v>
     <v>       0.00000000       0.00000000       0.18714671 </v>
    </varray>
   </crystal>
   <varray name="positions" >
    <v>       0.00000000       1.00000000       1.00000000 </v>
    <v>       0.50000000       0.50000000       0.00000000 </v>
    <v>       0.50000000       0.00000000       0.50000000 </v>
    <v>       1.00000000       0.50000000       0.50000000 </v>
    <v>       0.25000000       0.25000000       0.25000000 </v>
    <v>       0.75000000       0.25000000       0.75000000 </v>
    <v>       0.75000000       0.75000000       0.25000000 </v>
    <v>       0.25000000       0.75000000       0.75000000 </v>
   </varray>
  </structure>
  <varray name="forces" >
   <v>      -0.00000000      -0.00000000      -0.00000000 </v>
   <v>       0.00000000      -0.00000000      -0.00000000 </v>
   <v>      -0.00000000      -0.00000000      -0.00000000 </v>
   <v>       0.00000000      -0.00000000      -0.00000000 </v>
   <v>       0.00000000       0.00000000       0.00000000 </v>
   <v>       0.00000000       0.00000000       0.00000000 </v>
   <v>      -0.00000000       0.00000000       0.00000000 </v>
   <v>       0.00000000       0.00000000       0.00000000 </v>
  </varray>
  <varray name="stress" >
   <v>     238.70325765       0.00000000      -0.00000000 </v>
   <v>       0.00000000     238.70325765      -0.00000000 </v>
   <v>       0.00000000       0.00000000     238.70325765 </v>
  </varray>
  <energy>
   <i name="e_fr_energy">      2.52319822 </i>
   <i name="e_wo_entrp">      2.52319822 </i>
   <i name="e_0_energy">      2.52319822 </i>
  </energy>
  <time name="totalsc">    1.55    1.63</time>
 </calculation>
 <calculation>
  <scstep>
   <time name="dav">    0.19    0.20</time>
   <time name="total">    0.21    0.23</time>
   <energy>
    <i name="alphaZ">     94.71925255 </i>
    <i name="ewald">   -987.63986614 </i>
    <i name="hartreedc">    -74.16117580 </i>
    <i name="XCdc">   -118.52587178 </i>
    <i name="pawpsdc">   2697.20859242 </i>
    <i name="pawaedc">  -2519.15223535 </i>
    <i name="eentropy">      0.00000000 </i>
    <i name="bandstr">    -38.15963989 </i>
    <i name="atom">    916.21663293 </i>
    <i name="e_fr_energy">    -29.49431105 </i>
    <i name="e_wo_entrp">    -29.49431105 </i>
    <i name="e_0_energy">    -29.49431105 </i>
   </energy>
  </scstep>
  <scstep>
   <time name="dav">    0.18    0.19</time>
   <time name="total">    0.20    0.21</time>
   <energy>
    <i name="e_fr_energy">    -29.40206045 </i>
    <i name="e_wo_entrp">    -29.40206045 </i>
    <i name="e_0_energy">    -29.40206045 </i>
   </energy>
  </scstep>
  <scstep>
   <time name="dav">    0.19    0.20</time>
   <time name="total">    0.21    0.22</time>
   <energy>
    <i name="e_fr_energy">    -29.36804974 </i>
    <i name="e_wo_entrp">    -29.36804974 </i>
    <i name="e_0_energy">    -29.36804974 </i>
   </energy>
  </scstep>
  <scstep>
   <time name="dav">    0.18    0.19</time>
   <time name="total">    0.21    0.22</time>
   <energy>
    <i name="e_fr_energy">    -29.36732361 </i>
    <i name="e_wo_entrp">    -29.36732361 </i>
    <i name="e_0_energy">    -29.36732361 </i>
   </energy>
  </scstep>
  <scstep>
   <time name="dav">    0.19    0.20</time>
   <time name="total">    0.21    0.23</time>
   <energy>
    <i name="e_fr_energy">    -29.36652035 </i>
    <i name="e_wo_entrp">    -29.36652035 </i>
    <i name="e_0_energy">    -29.36652035 </i>
   </energy>
  </scstep>
  <scstep>
   <time name="dav">    0.14    0.14</time>
   <time name="total">    0.15    0.16</time>
   <energy>
    <i name="alphaZ">     94.71925255 </i>
    <i name="ewald">   -987.63986614 </i>
    <i name="hartreedc">    -69.17131273 </i>
    <i name="XCdc">   -118.27554949 </i>
    <i name="pawpsdc">   2981.99365460 </i>
    <i name="pawaedc">  -2804.24876578 </i>
    <i name="eentropy">      0.00000000 </i>
    <i name="bandstr">    -42.96056125 </i>
    <i name="atom">    916.21663293 </i>
    <i name="e_fr_energy">    -29.36651530 </i>
    <i name="e_wo_entrp">    -29.36651530 </i>
    <i name="e_0_energy">    -29.36651530 </i>
   </energy>
  </scstep>
  <structure>
   <crystal>
    <varray name="basis" >
     <v>       5.24714871      -0.00000000      -0.00000000 </v>
     <v>      -0.00000000       5.24714871      -0.00000000 </v>
     <v>       0.00000000       0.00000000       5.24714871 </v>
    </varray>
    <i name="volume">    144.46748731 </i>
    <varray name="rec_basis" >
     <v>       0.19057969       0.00000000      -0.00000000 </v>
     <v>       0.00000000       0.19057969      -0.00000000 </v>
     <v>       0.00000000       0.00000000       0.19057969 </v>
    </varray>
   </crystal>
   <varray name="positions" >
    <v>       0.00000000       0.00000000       0.00000000 </v>
    <v>       0.50000000       0.50000000       0.00000000 </v>
    <v>       0.50000000       0.00000000       0.50000000 </v>
    <v>       0.00000000       0.50000000       0.50000000 </v>
    <v>       0.25000000       0.25000000       0.25000000 </v>
    <v>       0.75000000       0.25000000       0.75000000 </v>
    <v>       0.75000000       0.75000000       0.25000000 </v>
    <v>       0.25000000       0.75000000       0.75000000 </v>
   </varray>
  </structure>
  <varray name="forces" >
   <v>       0.00000000       0.00000000       0.00000000 </v>
   <v>       0.00000000      -0.00000000       0.00000000 </v>
   <v>       0.00000000       0.00000000       0.00000000 </v>
   <v>       0.00000000      -0.00000000       0.00000000 </v>
   <v>      -0.00000000      -0.00000000      -0.00000000 </v>
   <v>      -0.00000000      -0.00000000      -0.00000000 </v>
   <v>      -0.00000000       0.00000000      -0.00000000 </v>
   <v>      -0.00000000      -0.00000000      -0.00000000 </v>
  </varray>
  <varray name="stress" >
   <v>     334.90920934      -0.00000000      -0.00000000 </v>
   <v>      -0.00000000     334.90920934      -0.00000000 </v>
   <v>      -0.00000000       0.00000000     334.90920934 </v>
  </varray>
  <energy>
   <i name="e_fr_energy">      2.19280064 </i>
   <i name="e_wo_entrp">      2.19280064 </i>
   <i name="e_0_energy">      2.19280064 </i>
  </energy>
  <time name="totalsc">    1.51    1.59</time>
 </calculation>
 <calculation>
  <scstep>
   <time name="dav">    0.19    0.20</time>
   <time name="total">    0.22    0.23</time>
   <energy>
    <i name="alphaZ">     95.49126884 </i>
    <i name="ewald">   -990.31588622 </i>
    <i name="hartreedc">    -69.35831467 </i>
    <i name="XCdc">   -118.21136935 </i>
    <i name="pawpsdc">   2976.00721511 </i>
    <i name="pawaedc">  -2798.26879710 </i>
    <i name="eentropy">      0.00000000 </i>
    <i name="bandstr">    -40.68020760 </i>
    <i name="atom">    916.21663293 </i>
    <i name="e_fr_energy">    -29.11945804 </i>
    <i name="e_wo_entrp">    -29.11945804 </i>
    <i name="e_0_energy">    -29.11945804 </i>
   </energy>
  </scstep>
  <scstep>
   <time name="dav">    0.18    0.19</time>
   <time name="total">    0.20    0.21</time>
   <energy>
    <i name="e_fr_energy">    -29.11744598 </i>
    <i name="e_wo_entrp">    -29.11744598 </i>
    <i name="e_0_energy">    -29.11744598 </i>
   </energy>
  </scstep>
  <scstep>
   <time name="dav">    0.19    0.20</time>
   <time name="total">    0.21    0.22</time>
   <energy>
    <i name="e_fr_energy">    -29.11674468 </i>
    <i name="e_wo_entrp">    -29.11674468 </i>
    <i name="e_0_energy">    -29.11674468 </i>
   </energy>
  </scstep>
  <scstep>
   <time name="dav">    0.13    0.14</time>
   <time name="total">    0.14    0.15</time>
   <energy>
    <i name="alphaZ">     95.49126884 </i>
    <i name="ewald">   -990.31588622 </i>
    <i name="hartreedc">    -68.65032819 </i>
    <i name="XCdc">   -118.18266893 </i>
    <i name="pawpsdc">   3019.33589300 </i>
    <i name="pawaedc">  -2841.63763083 </i>
    <i name="eentropy">      0.00000000 </i>
    <i name="bandstr">    -41.37401003 </i>
    <i name="atom">    916.21663293 </i>
    <i name="e_fr_energy">    -29.11672943 </i>
    <i name="e_wo_entrp">    -29.11672943 </i>
    <i name="e_0_energy">    -29.11672943 </i>
   </energy>
  </scstep>
  <structure>
   <crystal>
    <varray name="basis" >
     <v>       5.23296993      -0.00000000      -0.00000000 </v>
     <v>      -0.00000000       5.23296993      -0.00000000 </v>
     <v>       0.00000000       0.00000000       5.23296993 </v>
    </varray>
    <i name="volume">    143.29951399 </i>
    <varray name="rec_basis" >
     <v>       0.19109607       0.00000000      -0.00000000 </v>
     <v>       0.00000000       0.19109607      -0.00000000 </v>
     <v>       0.00000000       0.00000000       0.19109607 </v>
    </varray>
   </crystal>
   <varray name="positions" >
    <v>       0.00000000       1.00000000       1.00000000 </v>
    <v>       0.50000000       0.50000000       0.00000000 </v>
    <v>       0.50000000       0.00000000       0.50000000 </v>
    <v>       1.00000000       0.50000000       0.50000000 </v>
    <v>       0.25000000       0.25000000       0.25000000 </v>
    <v>       0.75000000       0.25000000       0.75000000 </v>
    <v>       0.75000000       0.75000000       0.25000000 </v>
    <v>       0.25000000       0.75000000       0.75000000 </v>
   </varray>
  </structure>
  <varray name="forces" >
   <v>      -0.00000000      -0.00000000      -0.00000000 </v>
   <v>      -0.00000000       0.00000000       0.00000000 </v>
   <v>      -0.00000000      -0.00000000       0.00000000 </v>
   <v>       0.00000000       0.00000000      -0.00000000 </v>
   <v>       0.00000000      -0.00000000      -0.00000000 </v>
   <v>      -0.00000000      -0.00000000      -0.00000000 </v>
   <v>      -0.00000000      -0.00000000      -0.00000000 </v>
   <v>       0.00000000      -0.00000000       0.00000000 </v>
  </varray>
  <varray name="stress" >
   <v>     350.74072348       0.00000000      -0.00000000 </v>
   <v>      -0.00000000     350.74072348       0.00000000 </v>
   <v>      -0.00000000       0.00000000     350.74072348 </v>
  </varray>
  <energy>
   <i name="e_fr_energy">      2.18743957 </i>
   <i name="e_wo_entrp">      2.18743957 </i>
   <i name="e_0_energy">      2.18743957 </i>
  </energy>
  <time name="totalsc">    1.09    1.16</time>
  <eigenvalues>
   <array>
    <dimension dim="1">band</dimension>
    <dimension dim="2">kpoint</dimension>
    <dimension dim="3">spin</dimension>
    <field>eigene</field>
    <field>occ</field>
    <set>
     <set comment="spin 1">
      <set comment="kpoint 1">
       <r>   -9.7027    1.0000 </r>
       <r>   -6.3076    1.0000 </r>
       <r>   -6.3076    1.0000 </r>
       <r>   -6.3076    1.0000 </r>
       <r>   -3.0887    1.0000 </r>
       <r>   -3.0887    1.0000 </r>
       <r>   -3.0887    1.0000 </r>
       <r>    1.3375    1.0000 </r>
       <r>    1.3375    1.0000 </r>
       <r>    1.3375    1.0000 </r>
       <r>    1.3375    1.0000 </r>
       <r>    1.3375    1.0000 </r>
       <r>    1.3375    1.0000 </r>
       <r>    4.9565    1.0000 </r>
       <r>    4.9565    1.0000 </r>
       <r>    4.9565    1.0000 </r>
       <r>    5.8722    0.0000 </r>
       <r>    5.8722    0.0000 </r>
       <r>    5.8722    0.0000 </r>
       <r>    6.3793    0.0000 </r>
       <r>    6.3793    0.0000 </r>
       <r>    6.3793    0.0000 </r>
       <r>    7.4096    0.0000 </r>
       <r>    8.7269    0.0000 </r>
      </set>
      <set comment="kpoint 2">
       <r>   -9.5141    1.0000 </r>
       <r>   -6.9838    1.0000 </r>
       <r>   -6.2727    1.0000 </r>
       <r>   -6.2727    1.0000 </r>
       <r>   -2.9873    1.0000 </r>
       <r>   -2.9873    1.0000 </r>
       <r>   -2.1616    1.0000 </r>
       <r>    0.8706    1.0000 </r>
       <r>    0.8706    1.0000 </r>
       <r>    0.9355    1.0000 </r>
       <r>    0.9355    1.0000 </r>
       <r>    1.5482    1.0000 </r>
       <r>    1.5482    1.0000 </r>
       <r>    3.6658    1.0000 </r>
       <r>    4.2790    1.0000 </r>
       <r>    4.2790    1.0000 </r>
       <r>    5.9419    0.0000 </r>
       <r>    6.8201    0.0000 </r>
       <r>    6.8201    0.0000 </r>
       <r>    6.8269    0.0000 </r>
       <r>    7.3352    0.0000 </r>
       <r>    7.3352    0.0000 </r>
       <r>    8.1162    0.0000 </r>
       <r>    8.6313    0.0000 </r>
      </set>
      <set comment="kpoint 3">
       <r>   -8.9572    1.0000 </r>
       <r>   -8.0696    1.0000 </r>
       <r>   -6.2140    1.0000 </r>
       <r>   -6.2140    1.0000 </r>
       <r>   -2.7919    1.0000 </r>
       <r>   -2.7919    1.0000 </r>
       <r>   -0.3519    1.0000 </r>
       <r>    0.2209    1.0000 </r>
       <r>    0.2209    1.0000 </r>
       <r>    0.4254    1.0000 </r>
       <r>    0.4254    1.0000 </r>
       <r>    1.6653    1.0000 </r>
       <r>    2.1651    1.0000 </r>
       <r>    2.1651    1.0000 </r>
       <r>    3.1321    1.0000 </r>
       <r>    3.1321    1.0000 </r>
       <r>    6.3456    0.0000 </r>
       <r>    7.1257    0.0000 </r>
       <r>    7.9367    0.0000 </r>
       <r>    8.9301    0.0000 </r>
       <r>    8.9301    0.0000 </r>
       <r>    9.2224    0.0000 </r>
       <r>    9.5257    0.0000 </r>
       <r>    9.5257    0.0000 </r>
      </set>
      <set comment="kpoint 4">
       <r>   -9.3285    1.0000 </r>
       <r>   -6.8880    1.0000 </r>
       <r>   -6.8880    1.0000 </r>
       <r>   -6.2972    1.0000 </r>
       <r>   -2.8943    1.0000 </r>
       <r>   -2.2166    1.0000 </r>
       <r>   -2.2166    1.0000 </r>
       <r>   -0.0315    1.0000 </r>
       <r>    0.9770    1.0000 </r>
       <r>    0.9770    1.0000 </r>
       <r>    1.3603    1.0000 </r>
       <r>    1.3603    1.0000 </r>
       <r>    1.6942    1.0000 </r>
       <r>    2.3837    1.0000 </r>
       <r>    3.5904    1.0000 </r>
       <r>    4.7312    1.0000 </r>
       <r>    6.4522    0.0000 </r>
       <r>    6.9409    0.0000 </r>
       <r>    6.9409    0.0000 </r>
       <r>    7.6955    0.0000 </r>
       <r>    7.6955    0.0000 </r>
       <r>    8.2889    0.0000 </r>
       <r>    8.9293    0.0000 </r>
       <r>    9.1380    0.0000 </r>
      </set>
      <set comment="kpoint 5">
       <r>   -8.7826    1.0000 </r>
       <r>   -7.9203    1.0000 </r>
       <r>   -6.6526    1.0000 </r>
       <r>   -6.4166    1.0000 </r>
       <r>   -2.6699    1.0000 </r>
       <r>   -2.4073    1.0000 </r>
       <r>   -0.7578    1.0000 </r>
       <r>   -0.3560    1.0000 </r>
       <r>    0.0865    1.0000 </r>
       <r>    0.7957    1.0000 </r>
       <r>    1.2845    1.0000 </r>
       <r>    1.5211    1.0000 </r>
       <r>    1.5934    1.0000 </r>
       <r>    2.3712    1.0000 </r>
       <r>    2.4502    1.0000 </r>
       <r>    3.7502    1.0000 </r>
       <r>    7.3869    0.0000 </r>
       <r>    7.7435    0.0000 </r>
       <r>    8.1586    0.0000 </r>
       <r>    8.6438    0.0000 </r>
       <r>    9.0622    0.0000 </r>
       <r>    9.1871    0.0000 </r>
       <r>    9.7678    0.0000 </r>
       <r>   10.4019    0.0000 </r>
      </set>
      <set comment="kpoint 6">
       <r>   -8.2759    1.0000 </r>
       <r>   -7.5032    1.0000 </r>
       <r>   -7.5032    1.0000 </r>
       <r>   -6.9288    1.0000 </r>
       <r>   -2.2593    1.0000 </r>
       <r>   -1.5565    1.0000 </r>
       <r>   -1.5565    1.0000 </r>
       <r>   -0.4580    1.0000 </r>
       <r>   -0.2410    1.0000 </r>
       <r>    0.4830    1.0000 </r>
       <r>    0.4830    1.0000 </r>
       <r>    1.3405    1.0000 </r>
       <r>    2.6658    1.0000 </r>
       <r>    2.7394    1.0000 </r>
       <r>    2.7394    1.0000 </r>
       <r>    3.8891    1.0000 </r>
       <r>    7.4610    0.0000 </r>
       <r>    8.5135    0.0000 </r>
       <r>    8.8845    0.0000 </r>
       <r>    8.8845    0.0000 </r>
       <r>    9.7147    0.0000 </r>
       <r>    9.7147    0.0000 </r>
       <r>   10.2328    0.0000 </r>
       <r>   10.4850    0.0000 </r>
      </set>
      <set comment="kpoint 7">
       <r>   -9.1469    1.0000 </r>
       <r>   -6.8302    1.0000 </r>
       <r>   -6.8302    1.0000 </r>
       <r>   -6.8302    1.0000 </r>
       <r>   -2.3716    1.0000 </r>
       <r>   -2.3716    1.0000 </r>
       <r>   -2.3716    1.0000 </r>
       <r>    0.4541    1.0000 </r>
       <r>    0.4541    1.0000 </r>
       <r>    0.4541    1.0000 </r>
       <r>    1.2538    1.0000 </r>
       <r>    1.8887    1.0000 </r>
       <r>    1.8887    1.0000 </r>
       <r>    1.8887    1.0000 </r>
       <r>    4.2465    1.0000 </r>
       <r>    4.2465    1.0000 </r>
       <r>    6.6897    0.0000 </r>
       <r>    6.6897    0.0000 </r>
       <r>    6.6897    0.0000 </r>
       <r>    7.4552    0.0000 </r>
       <r>    9.1578    0.0000 </r>
       <r>    9.1578    0.0000 </r>
       <r>    9.1578    0.0000 </r>
       <r>    9.6226    0.0000 </r>
      </set>
      <set comment="kpoint 8">
       <r>   -8.6153    1.0000 </r>
       <r>   -7.7872    1.0000 </r>
       <r>   -6.7288    1.0000 </r>
       <r>   -6.7288    1.0000 </r>
       <r>   -2.6552    1.0000 </r>
       <r>   -2.6552    1.0000 </r>
       <r>   -1.3642    1.0000 </r>
       <r>   -0.1581    1.0000 </r>
       <r>    0.2858    1.0000 </r>
       <r>    0.2858    1.0000 </r>
       <r>    1.7636    1.0000 </r>
       <r>    1.8922    1.0000 </r>
       <r>    1.8922    1.0000 </r>
       <r>    2.4517    1.0000 </r>
       <r>    3.3068    1.0000 </r>
       <r>    3.3889    1.0000 </r>
       <r>    7.3474    0.0000 </r>
       <r>    7.8927    0.0000 </r>
       <r>    7.9580    0.0000 </r>
       <r>    7.9580    0.0000 </r>
       <r>    9.2644    0.0000 </r>
       <r>    9.7554    0.0000 </r>
       <r>   10.3177    0.0000 </r>
       <r>   10.3177    0.0000 </r>
      </set>
      <set comment="kpoint 9">
       <r>   -8.1359    1.0000 </r>
       <r>   -7.4324    1.0000 </r>
       <r>   -7.4324    1.0000 </r>
       <r>   -7.0078    1.0000 </r>
       <r>   -2.7553    1.0000 </r>
       <r>   -2.2618    1.0000 </r>
       <r>   -2.2618    1.0000 </r>
       <r>   -1.3827    1.0000 </r>
       <r>    0.7804    1.0000 </r>
       <r>    1.4176    1.0000 </r>
       <r>    1.4176    1.0000 </r>
       <r>    2.4476    1.0000 </r>
       <r>    2.7896    1.0000 </r>
       <r>    2.8367    1.0000 </r>
       <r>    2.8367    1.0000 </r>
       <r>    3.7950    1.0000 </r>
       <r>    7.6293    0.0000 </r>
       <r>    7.7800    0.0000 </r>
       <r>    8.3628    0.0000 </r>
       <r>    8.3628    0.0000 </r>
       <r>    9.1551    0.0000 </r>
       <r>    9.1551    0.0000 </r>
       <r>    9.8195    0.0000 </r>
       <r>    9.8755    0.0000 </r>
      </set>
      <set comment="kpoint 10">
       <r>   -7.7603    1.0000 </r>
       <r>   -7.3055    1.0000 </r>
       <r>   -7.3055    1.0000 </r>
       <r>   -7.3055    1.0000 </r>
       <r>   -2.9904    1.0000 </r>
       <r>   -2.9904    1.0000 </r>
       <r>   -2.9904    1.0000 </r>
       <r>   -2.4638    1.0000 </r>
       <r>    2.5080    1.0000 </r>
       <r>    2.5080    1.0000 </r>
       <r>    2.5080    1.0000 </r>
       <r>    3.1162    1.0000 </r>
       <r>    3.1162    1.0000 </r>
       <r>    3.1162    1.0000 </r>
       <r>    3.5099    1.0000 </r>
       <r>    3.5099    1.0000 </r>
       <r>    6.8092    0.0000 </r>
       <r>    7.5257    0.0000 </r>
       <r>    7.5257    0.0000 </r>
       <r>    7.5257    0.0000 </r>
       <r>    9.3016    0.0000 </r>
       <r>    9.3016    0.0000 </r>
       <r>    9.3016    0.0000 </r>
       <r>    9.6942    0.0000 </r>
      </set>
     </set>
    </set>
   </array>
  </eigenvalues>
  <separator name="orbital magnetization" >
   <v name="MAGDIPOLOUT">      0.00000000      0.00000000      0.00000000</v>
  </separator>
  <dos>
   <i name="efermi">      4.98276701 </i>
   <total>
    <array>
     <dimension dim="1">gridpoints</dimension>
     <dimension dim="2">spin</dimension>
     <field>energy</field>
     <field>total</field>
     <field>integrated</field>
     <set>
      <set comment="spin 1">
       <r>   -10.7121     0.0000     0.0000 </r>
       <r>   -10.6381     0.0000     0.0000 </r>
       <r>   -10.5640     0.0000     0.0000 </r>
       <r>   -10.4900     0.0000     0.0000 </r>
       <r>   -10.4160     0.0000     0.0000 </r>
       <r>   -10.3420     0.0000     0.0000 </r>
       <r>   -10.2680     0.0000     0.0000 </r>
       <r>   -10.1939     0.0000     0.0000 </r>
       <r>   -10.1199     0.0000     0.0000 </r>
       <r>   -10.0459     0.0000     0.0000 </r>
       <r>    -9.9719     0.0000     0.0000 </r>
       <r>    -9.8979     0.0000     0.0000 </r>
       <r>    -9.8238     0.0000     0.0000 </r>
       <r>    -9.7498     0.0000     0.0000 </r>
       <r>    -9.6758     0.0070     0.0001 </r>
       <r>    -9.6018     0.0984     0.0033 </r>
       <r>    -9.5277     0.2956     0.0172 </r>
       <r>    -9.4537     0.5333     0.0484 </r>
       <r>    -9.3797     0.6685     0.0936 </r>
       <r>    -9.3057     0.7014     0.1448 </r>
       <r>    -9.2317     0.7355     0.1977 </r>
       <r>    -9.1576     0.8102     0.2547 </r>
       <r>    -9.0836     0.9126     0.3184 </r>
       <r>    -9.0096     1.0210     0.3899 </r>
       <r>    -8.9356     1.2667     0.4711 </r>
       <r>    -8.8616     1.7547     0.5837 </r>
       <r>    -8.7875     2.1186     0.7278 </r>
       <r>    -8.7135     1.8739     0.8775 </r>
       <r>    -8.6395     1.6134     1.0062 </r>
       <r>    -8.5655     1.5345     1.1210 </r>
       <r>    -8.4914     1.5165     1.2340 </r>
       <r>    -8.4174     1.4852     1.3452 </r>
       <r>    -8.3434     1.4407     1.4535 </r>
       <r>    -8.2694     2.0327     1.5624 </r>
       <r>    -8.1954     1.5810     1.6959 </r>
       <r>    -8.1213     0.8490     1.7926 </r>
       <r>    -8.0473     0.9079     1.8523 </r>
       <r>    -7.9733     1.5069     1.9410 </r>
       <r>    -7.8993     2.1332     2.0780 </r>
       <r>    -7.8253     2.2694     2.2415 </r>
       <r>    -7.7512     2.3555     2.4266 </r>
       <r>    -7.6772     2.3719     2.5938 </r>
       <r>    -7.6032     2.5689     2.7769 </r>
       <r>    -7.5292     2.7302     2.9732 </r>
       <r>    -7.4551     5.2214     3.3022 </r>
       <r>    -7.3811     4.6067     3.6730 </r>
       <r>    -7.3071     3.6445     3.9783 </r>
       <r>    -7.2331     3.2220     4.2132 </r>
       <r>    -7.1591     2.7465     4.4099 </r>
       <r>    -7.0850     2.9494     4.6205 </r>
       <r>    -7.0110     3.1822     4.8473 </r>
       <r>    -6.9370     5.9180     5.2048 </r>
       <r>    -6.8630     4.8257     5.5758 </r>
       <r>    -6.7890     5.3142     5.9496 </r>
       <r>    -6.7149     5.4405     6.3528 </r>
       <r>    -6.6409     3.8803     6.7237 </r>
       <r>    -6.5669     3.6400     7.0020 </r>
       <r>    -6.4929     3.4100     7.2629 </r>
       <r>    -6.4188     3.1903     7.5071 </r>
       <r>    -6.3448     2.9038     7.7375 </r>
       <r>    -6.2708     1.8313     7.9787 </r>
       <r>    -6.1968     0.0000     8.0000 </r>
       <r>    -6.1228     0.0000     8.0000 </r>
       <r>    -6.0487     0.0000     8.0000 </r>
       <r>    -5.9747     0.0000     8.0000 </r>
       <r>    -5.9007     0.0000     8.0000 </r>
       <r>    -5.8267     0.0000     8.0000 </r>
       <r>    -5.7527     0.0000     8.0000 </r>
       <r>    -5.6786     0.0000     8.0000 </r>
       <r>    -5.6046     0.0000     8.0000 </r>
       <r>    -5.5306     0.0000     8.0000 </r>
       <r>    -5.4566     0.0000     8.0000 </r>
       <r>    -5.3825     0.0000     8.0000 </r>
       <r>    -5.3085     0.0000     8.0000 </r>
       <r>    -5.2345     0.0000     8.0000 </r>
       <r>    -5.1605     0.0000     8.0000 </r>
       <r>    -5.0865     0.0000     8.0000 </r>
       <r>    -5.0124     0.0000     8.0000 </r>
       <r>    -4.9384     0.0000     8.0000 </r>
       <r>    -4.8644     0.0000     8.0000 </r>
       <r>    -4.7904     0.0000     8.0000 </r>
       <r>    -4.7164     0.0000     8.0000 </r>
       <r>    -4.6423     0.0000     8.0000 </r>
       <r>    -4.5683     0.0000     8.0000 </r>
       <r>    -4.4943     0.0000     8.0000 </r>
       <r>    -4.4203     0.0000     8.0000 </r>
       <r>    -4.3462     0.0000     8.0000 </r>
       <r>    -4.2722     0.0000     8.0000 </r>
       <r>    -4.1982     0.0000     8.0000 </r>
       <r>    -4.1242     0.0000     8.0000 </r>
       <r>    -4.0502     0.0000     8.0000 </r>
       <r>    -3.9761     0.0000     8.0000 </r>
       <r>    -3.9021     0.0000     8.0000 </r>
       <r>    -3.8281     0.0000     8.0000 </r>
       <r>    -3.7541     0.0000     8.0000 </r>
       <r>    -3.6801     0.0000     8.0000 </r>
       <r>    -3.6060     0.0000     8.0000 </r>
       <r>    -3.5320     0.0000     8.0000 </r>
       <r>    -3.4580     0.0000     8.0000 </r>
       <r>    -3.3840     0.0000     8.0000 </r>
       <r>    -3.3099     0.0000     8.0000 </r>
       <r>    -3.2359     0.0000     8.0000 </r>
       <r>    -3.1619     0.0000     8.0000 </r>
       <r>    -3.0879     0.0000     8.0000 </r>
       <r>    -3.0139     0.3770     8.0094 </r>
       <r>    -2.9398     2.7487     8.1575 </r>
       <r>    -2.8658     2.9146     8.3388 </r>
       <r>    -2.7918     4.4391     8.6080 </r>
       <r>    -2.7178     8.7866     9.0874 </r>
       <r>    -2.6438     6.7971     9.8095 </r>
       <r>    -2.5697     6.1135    10.2632 </r>
       <r>    -2.4957     6.0974    10.7151 </r>
       <r>    -2.4217     6.4119    11.1863 </r>
       <r>    -2.3477     4.6257    11.5790 </r>
       <r>    -2.2736     3.5910    11.8821 </r>
       <r>    -2.1996     3.1521    12.0971 </r>
       <r>    -2.1256     2.0810    12.2823 </r>
       <r>    -2.0516     2.0277    12.4344 </r>
       <r>    -1.9776     1.9772    12.5826 </r>
       <r>    -1.9035     1.9294    12.7272 </r>
       <r>    -1.8295     1.8844    12.8683 </r>
       <r>    -1.7555     1.8422    13.0062 </r>
       <r>    -1.6815     1.8027    13.1411 </r>
       <r>    -1.6075     1.7659    13.2731 </r>
       <r>    -1.5334     1.4656    13.3964 </r>
       <r>    -1.4594     1.4495    13.5043 </r>
       <r>    -1.3854     1.4306    13.6109 </r>
       <r>    -1.3114     1.4151    13.7165 </r>
       <r>    -1.2373     1.3888    13.8203 </r>
       <r>    -1.1633     1.3618    13.9221 </r>
       <r>    -1.0893     1.3339    14.0219 </r>
       <r>    -1.0153     1.3051    14.1195 </r>
       <r>    -0.9413     1.2756    14.2151 </r>
       <r>    -0.8672     1.2452    14.3084 </r>
       <r>    -0.7932     1.2140    14.3994 </r>
       <r>    -0.7192     1.2481    14.4908 </r>
       <r>    -0.6452     1.2012    14.5814 </r>
       <r>    -0.5712     1.1652    14.6689 </r>
       <r>    -0.4971     1.1400    14.7542 </r>
       <r>    -0.4231     1.1826    14.8369 </r>
       <r>    -0.3491     2.3345    14.9482 </r>
       <r>    -0.2751     2.1569    15.1152 </r>
       <r>    -0.2010     2.0308    15.2697 </r>
       <r>    -0.1270     1.9169    15.4135 </r>
       <r>    -0.0530     2.0170    15.5586 </r>
       <r>     0.0210     2.1273    15.7124 </r>
       <r>     0.0950     3.4266    15.8843 </r>
       <r>     0.1691     3.5201    16.1402 </r>
       <r>     0.2431     3.4314    16.4061 </r>
       <r>     0.3171     3.0036    16.6304 </r>
       <r>     0.3911     3.6405    16.8750 </r>
       <r>     0.4651     4.3258    17.1719 </r>
       <r>     0.5392     4.7248    17.5130 </r>
       <r>     0.6132     4.7911    17.8656 </r>
       <r>     0.6872     4.7963    18.2208 </r>
       <r>     0.7612     4.7405    18.5741 </r>
       <r>     0.8353     3.8589    18.8912 </r>
       <r>     0.9093     4.0830    19.1772 </r>
       <r>     0.9833     3.3379    19.4875 </r>
       <r>     1.0573     2.9020    19.7021 </r>
       <r>     1.1313     2.9619    19.9187 </r>
       <r>     1.2054     3.0853    20.1421 </r>
       <r>     1.2794     3.4448    20.3785 </r>
       <r>     1.3534     3.5015    20.6608 </r>
       <r>     1.4274     5.1803    20.9674 </r>
       <r>     1.5014     6.0653    21.3872 </r>
       <r>     1.5755     6.5063    21.8726 </r>
       <r>     1.6495     7.6106    22.4068 </r>
       <r>     1.7235     6.5074    22.9364 </r>
       <r>     1.7975     5.3313    23.3703 </r>
       <r>     1.8716     4.3495    23.7291 </r>
       <r>     1.9456     3.4042    24.0067 </r>
       <r>     2.0196     3.0467    24.2444 </r>
       <r>     2.0936     2.8644    24.4621 </r>
       <r>     2.1676     2.8749    24.6728 </r>
       <r>     2.2417     3.5126    24.9087 </r>
       <r>     2.3157     4.2299    25.1947 </r>
       <r>     2.3897     6.5698    25.5695 </r>
       <r>     2.4637     4.5750    25.9454 </r>
       <r>     2.5377     5.1205    26.3296 </r>
       <r>     2.6118     4.6087    26.6658 </r>
       <r>     2.6858     5.4403    27.0263 </r>
       <r>     2.7598     6.9969    27.4619 </r>
       <r>     2.8338     5.6176    27.9254 </r>
       <r>     2.9079     4.1125    28.2490 </r>
       <r>     2.9819     3.6780    28.5373 </r>
       <r>     3.0559     3.2468    28.7936 </r>
       <r>     3.1299     2.7421    29.0557 </r>
       <r>     3.2039     1.9506    29.2056 </r>
       <r>     3.2780     1.7741    29.3436 </r>
       <r>     3.3520     1.6688    29.4697 </r>
       <r>     3.4260     2.0189    29.5990 </r>
       <r>     3.5000     2.7879    29.7766 </r>
       <r>     3.5740     3.9992    30.0505 </r>
       <r>     3.6481     4.0435    30.3327 </r>
       <r>     3.7221     4.4203    30.6466 </r>
       <r>     3.7961     4.7685    30.9752 </r>
       <r>     3.8701     2.9364    31.2597 </r>
       <r>     3.9442     1.3443    31.3884 </r>
       <r>     4.0182     1.1908    31.4822 </r>
       <r>     4.0922     1.0437    31.5648 </r>
       <r>     4.1662     0.9030    31.6368 </r>
       <r>     4.2402     0.7688    31.6987 </r>
       <r>     4.3143     0.7451    31.7532 </r>
       <r>     4.3883     0.7595    31.8092 </r>
       <r>     4.4623     0.7189    31.8643 </r>
       <r>     4.5363     0.6233    31.9143 </r>
       <r>     4.6103     0.4728    31.9552 </r>
       <r>     4.6844     0.2672    31.9829 </r>
       <r>     4.7584     0.0842    31.9944 </r>
       <r>     4.8324     0.0330    31.9986 </r>
       <r>     4.9064     0.0054    31.9999 </r>
       <r>     4.9805     0.0000    32.0000 </r>
       <r>     5.0545     0.0000    32.0000 </r>
       <r>     5.1285     0.0000    32.0000 </r>
       <r>     5.2025     0.0000    32.0000 </r>
       <r>     5.2765     0.0000    32.0000 </r>
       <r>     5.3506     0.0000    32.0000 </r>
       <r>     5.4246     0.0000    32.0000 </r>
       <r>     5.4986     0.0000    32.0000 </r>
       <r>     5.5726     0.0000    32.0000 </r>
       <r>     5.6466     0.0000    32.0000 </r>
       <r>     5.7207     0.0000    32.0000 </r>
       <r>     5.7947     0.0000    32.0000 </r>
       <r>     5.8687     0.0000    32.0000 </r>
       <r>     5.9427     0.1822    32.0044 </r>
       <r>     6.0168     0.2288    32.0195 </r>
       <r>     6.0908     0.2863    32.0385 </r>
       <r>     6.1648     0.3549    32.0622 </r>
       <r>     6.2388     0.4344    32.0913 </r>
       <r>     6.3128     0.5248    32.1268 </r>
       <r>     6.3869     0.6286    32.1694 </r>
       <r>     6.4609     0.7022    32.2190 </r>
       <r>     6.5349     0.7575    32.2728 </r>
       <r>     6.6089     0.8487    32.3320 </r>
       <r>     6.6829     0.9759    32.3993 </r>
       <r>     6.7570     1.2973    32.4809 </r>
       <r>     6.8310     2.5938    32.6216 </r>
       <r>     6.9050     3.0237    32.8403 </r>
       <r>     6.9790     2.3428    33.0244 </r>
       <r>     7.0531     2.5412    33.2051 </r>
       <r>     7.1271     2.7541    33.4009 </r>
       <r>     7.2011     3.0188    33.6146 </r>
       <r>     7.2751     3.2784    33.8477 </r>
       <r>     7.3491     3.7803    34.1001 </r>
       <r>     7.4232     6.0532    34.5811 </r>
       <r>     7.4972     5.4706    35.0052 </r>
       <r>     7.5712     5.9482    35.4530 </r>
       <r>     7.6452     3.8668    35.8091 </r>
       <r>     7.7192     4.4797    36.1174 </r>
       <r>     7.7933     7.1145    36.5452 </r>
       <r>     7.8673     5.1699    37.0140 </r>
       <r>     7.9413     4.2342    37.3259 </r>
       <r>     8.0153     5.3406    37.6981 </r>
       <r>     8.0894     5.7033    38.1078 </r>
       <r>     8.1634     4.9798    38.5342 </r>
       <r>     8.2374     4.8012    38.8966 </r>
       <r>     8.3114     4.5584    39.2434 </r>
       <r>     8.3854     3.7274    39.5576 </r>
       <r>     8.4595     3.5336    39.8262 </r>
       <r>     8.5335     3.2450    40.0786 </r>
       <r>     8.6075     3.1561    40.3155 </r>
       <r>     8.6815     3.2039    40.5537 </r>
       <r>     8.7555     2.7764    40.7756 </r>
       <r>     8.8296     2.3786    40.9659 </r>
       <r>     8.9036     1.7636    41.1233 </r>
       <r>     8.9776     2.3313    41.2673 </r>
       <r>     9.0516     3.2422    41.4734 </r>
       <r>     9.1257     4.0946    41.7361 </r>
       <r>     9.1997    12.7437    42.3397 </r>
       <r>     9.2737     8.0498    43.1055 </r>
       <r>     9.3477     5.8714    43.6028 </r>
       <r>     9.4217     4.8499    43.9757 </r>
       <r>     9.4958     4.4586    44.3204 </r>
       <r>     9.5698     4.1808    44.6383 </r>
       <r>     9.6438     3.9654    44.9399 </r>
       <r>     9.7178     4.2305    45.2545 </r>
       <r>     9.7918     4.0264    45.5320 </r>
       <r>     9.8659     5.0059    45.8779 </r>
       <r>     9.9399     4.3918    46.2091 </r>
       <r>    10.0139     4.3267    46.5323 </r>
       <r>    10.0879     4.1752    46.8475 </r>
       <r>    10.1620     3.9373    47.1483 </r>
       <r>    10.2360     3.3509    47.4274 </r>
       <r>    10.3100     2.3410    47.6376 </r>
       <r>    10.3840     3.3346    47.8360 </r>
       <r>    10.4580     0.7594    47.9880 </r>
       <r>    10.5321     0.0000    48.0000 </r>
       <r>    10.6061     0.0000    48.0000 </r>
       <r>    10.6801     0.0000    48.0000 </r>
       <r>    10.7541     0.0000    48.0000 </r>
       <r>    10.8281     0.0000    48.0000 </r>
       <r>    10.9022     0.0000    48.0000 </r>
       <r>    10.9762     0.0000    48.0000 </r>
       <r>    11.0502     0.0000    48.0000 </r>
       <r>    11.1242     0.0000    48.0000 </r>
       <r>    11.1983     0.0000    48.0000 </r>
       <r>    11.2723     0.0000    48.0000 </r>
       <r>    11.3463     0.0000    48.0000 </r>
       <r>    11.4203     0.0000    48.0000 </r>
       <r>    11.4943     0.0000    48.0000 </r>
      </set>
     </set>
    </array>
   </total>
  </dos>
 </calculation>
 <structure name="finalpos" >
  <crystal>
   <varray name="basis" >
    <v>       5.23296993      -0.00000000      -0.00000000 </v>
    <v>      -0.00000000       5.23296993      -0.00000000 </v>
    <v>       0.00000000       0.00000000       5.23296993 </v>
   </varray>
   <i name="volume">    143.29951399 </i>
   <varray name="rec_basis" >
    <v>       0.19109607       0.00000000      -0.00000000 </v>
    <v>       0.00000000       0.19109607      -0.00000000 </v>
    <v>       0.00000000       0.00000000       0.19109607 </v>
   </varray>
  </crystal>
  <varray name="positions" >
   <v>       0.00000000       1.00000000       1.00000000 </v>
   <v>       0.50000000       0.50000000       0.00000000 </v>
   <v>       0.50000000       0.00000000       0.50000000 </v>
   <v>       1.00000000       0.50000000       0.50000000 </v>
   <v>       0.25000000       0.25000000       0.25000000 </v>
   <v>       0.75000000       0.25000000       0.75000000 </v>
   <v>       0.75000000       0.75000000       0.25000000 </v>
   <v>       0.25000000       0.75000000       0.75000000 </v>
  </varray>
 </structure>
</modeling>
