GaAs                                    
   4.50000000000000     
     1.229868    0.000000    0.000000
     0.000000    1.229868    0.000000
     0.000000    0.000000    1.229868
   As   Ga
     4     4
Direct
  0.000000  0.000000  0.000000
  0.500000  0.500000  0.000000
  0.500000  0.000000  0.500000
  0.000000  0.500000  0.500000
  0.250000  0.250000  0.250000
  0.750000  0.250000  0.750000
  0.750000  0.750000  0.250000
  0.250000  0.750000  0.750000
 
   60   60   60
 -64.009     -56.054     -33.958     -2.5028      31.897      62.951      85.994      98.761      101.35      95.606    
  84.395      70.875      57.916      46.802      37.496      29.868      23.745      18.912      15.128      12.173    
  9.8651      8.0665      6.6731      5.6026      4.7884      4.1764      3.7237      3.3994      3.1828      3.0596    
  3.0198      3.0596      3.1828      3.3994      3.7237      4.1764      4.7884      5.6026      6.6731      8.0665    
  9.8651      12.173      15.128      18.912      23.745      29.868      37.496      46.802      57.916      70.875    
  84.395      95.606      101.35      98.761      85.994      62.951      31.897     -2.5028     -33.958     -56.054    
 -56.054     -48.393     -27.124      3.1163      36.114      65.784      87.623      99.459      101.41      95.305    
  83.949      70.445      57.592      46.574      37.343      29.774      23.696      18.894      15.132      12.191    
  9.8921      8.0994      6.7098      5.6417      4.8288      4.2171      3.7644      3.4398      3.2229      3.0994    
  3.0596      3.0994      3.2229      3.4398      3.7644      4.2171      4.8288      5.6417      6.7098      8.0994    
  9.8921      12.191      15.132      18.894      23.696      29.774      37.343      46.574      57.592      70.445    
  83.949      95.305      101.41      99.459      87.623      65.784      36.114      3.1163     -27.124     -48.393    
 -33.958     -27.124     -8.1850      18.635      47.692      73.480      91.953      101.20      101.39      94.295    
  82.572      69.157      56.632      45.897      36.891      29.497      23.550      18.842      15.145      12.246    
  9.9750      8.2002      6.8223      5.7615      4.9525      4.3424      3.8897      3.5646      3.3469      3.2229    
  3.1828      3.2229      3.3469      3.5646      3.8897      4.3424      4.9525      5.7615      6.8223      8.2002    
  9.9750      12.246      15.145      18.842      23.550      29.497      36.891      45.897      56.632      69.157    
  82.572      94.295      101.39      101.20      91.953      73.480      47.692      18.635     -8.1850     -27.124    
 -2.5028      3.1163      18.635      40.446      63.750      83.895      97.499      103.02      100.74      92.311    
  80.183      67.036      55.069      44.794      36.154      29.046      23.315      18.762      15.171      12.343    
  10.119      8.3751      7.0175      5.9693      5.1674      4.5604      4.1085      3.7830      3.5646      3.4398    
  3.3994      3.4398      3.5646      3.7830      4.1085      4.5604      5.1674      5.9693      7.0175      8.3751    
  10.119      12.343      15.171      18.762      23.315      29.046      36.154      44.794      55.069      67.036    
  80.183      92.311      100.74      103.02      97.499      83.895      63.750      40.446      18.635      3.1163    
  31.897      36.114      47.692      63.750      80.476      94.205      102.32      103.72      98.785      89.054    
  76.726      64.163      52.959      43.303      35.160      28.440      23.002      18.661      15.217      12.489    
  10.332      8.6331      7.3054      6.2763      5.4853      4.8836      4.4336      4.1085      3.8897      3.7644    
  3.7237      3.7644      3.8897      4.1085      4.4336      4.8836      5.4853      6.2763      7.3054      8.6331    
  10.332      12.489      15.217      18.661      23.002      28.440      35.160      43.303      52.959      64.163    
  76.726      89.054      98.785      103.72      102.32      94.205      80.476      63.750      47.692      36.114    
  62.951      65.784      73.480      83.895      94.205      101.73      104.62      102.20      94.978      84.356    
  72.268      60.663      50.381      41.479      33.943      27.702      22.627      18.550      15.292      12.692    
  10.624      8.9861      7.6998      6.6974      5.9225      5.3294      4.8836      4.5604      4.3424      4.2171    
  4.1764      4.2171      4.3424      4.5604      4.8836      5.3294      5.9225      6.6974      7.6998      8.9861    
  10.624      12.692      15.292      18.550      22.627      27.702      33.943      41.479      50.381      60.663    
  72.268      84.356      94.978      102.20      104.62      101.73      94.205      83.895      73.480      65.784    
  85.994      87.623      91.953      97.499      102.32      104.62      103.23      97.864      89.126      78.307    
  67.058      56.676      47.432      39.389      32.552      26.863      22.210      18.442      15.406      12.964    
  11.007      9.4489      8.2178      7.2525      6.5012      5.9225      5.4853      5.1674      4.9525      4.8288    
  4.7884      4.8288      4.9525      5.1674      5.4853      5.9225      6.5012      7.2525      8.2178      9.4489    
  11.007      12.964      15.406      18.442      22.210      26.863      32.552      39.389      47.432      56.676    
  67.058      78.307      89.126      97.864      103.23      104.62      102.32      97.499      91.953      87.623    
  98.761      99.459      101.20      103.02      103.72      102.20      97.864      90.735      81.498      71.312    
  61.433      52.358      44.225      37.114      31.040      25.960      21.773      18.354      15.573      13.318    
  11.499      10.041      8.8829      7.9688      7.2525      6.6974      6.2763      5.9693      5.7615      5.6417    
  5.6026      5.6417      5.7615      5.9693      6.2763      6.6974      7.2525      7.9688      8.8829      10.041    
  11.499      13.318      15.573      18.354      21.773      25.960      31.040      37.114      44.225      52.358    
  61.433      71.312      81.498      90.735      97.864      102.20      103.72      103.02      101.20      99.459    
  101.35      101.41      101.39      100.74      98.785      94.978      89.126      81.498      72.804      64.001    
  55.624      47.870      40.881      34.740      29.469      25.031      21.344      18.305      15.811      13.773    
  12.120      10.789      9.7266      8.8829      8.2178      7.6998      7.3054      7.0175      6.8223      6.7098    
  6.6731      6.7098      6.8223      7.0175      7.3054      7.6998      8.2178      8.8829      9.7266      10.789    
  12.120      13.773      15.811      18.305      21.344      25.031      29.469      34.740      40.881      47.870    
  55.624      64.001      72.804      81.498      89.126      94.978      98.785      100.74      101.39      101.41    
  95.606      95.305      94.295      92.311      89.054      84.356      78.307      71.312      64.001      56.769    
  49.834      43.376      37.524      32.358      27.900      24.119      20.952      18.318      16.142      14.355    
  12.901      11.729      10.789      10.041      9.4489      8.9861      8.6331      8.3751      8.2002      8.0994    
  8.0665      8.0994      8.2002      8.3751      8.6331      8.9861      9.4489      10.041      10.789      11.729    
  12.901      14.355      16.142      18.318      20.952      24.119      27.900      32.358      37.524      43.376    
  49.834      56.769      64.001      71.312      78.307      84.356      89.054      92.311      94.295      95.305    
  84.395      83.949      82.572      80.183      76.726      72.268      67.058      61.433      55.624      49.834    
  44.249      39.022      34.266      30.049      26.389      23.264      20.628      18.422      16.595      15.096    
  13.879      12.901      12.120      11.499      11.007      10.624      10.332      10.119      9.9750      9.8921    
  9.8651      9.8921      9.9750      10.119      10.332      10.624      11.007      11.499      12.120      12.901    
  13.879      15.096      16.595      18.422      20.628      23.264      26.389      30.049      34.266      39.022    
  44.249      49.834      55.624      61.433      67.058      72.268      76.726      80.183      82.572      83.949    
  70.875      70.445      69.157      67.036      64.163      60.663      56.676      52.358      47.870      43.376    
  39.022      34.934      31.203      27.882      24.987      22.504      20.404      18.649      17.204      16.033    
  15.096      14.355      13.773      13.318      12.964      12.692      12.489      12.343      12.246      12.191    
  12.173      12.191      12.246      12.343      12.489      12.692      12.964      13.318      13.773      14.355    
  15.096      16.033      17.204      18.649      20.404      22.504      24.987      27.882      31.203      34.934    
  39.022      43.376      47.870      52.358      56.676      60.663      64.163      67.036      69.157      70.445    
  57.916      57.592      56.632      55.069      52.959      50.381      47.432      44.225      40.881      37.524    
  34.266      31.203      28.404      25.909      23.733      21.873      20.313      19.032      18.006      17.204    
  16.595      16.142      15.811      15.573      15.406      15.292      15.217      15.171      15.145      15.132    
  15.128      15.132      15.145      15.171      15.217      15.292      15.406      15.573      15.811      16.142    
  16.595      17.204      18.006      19.032      20.313      21.873      23.733      25.909      28.404      31.203    
  34.266      37.524      40.881      44.225      47.432      50.381      52.959      55.069      56.632      57.592    
  46.802      46.574      45.897      44.794      43.303      41.479      39.389      37.114      34.740      32.358    
  30.049      27.882      25.909      24.161      22.656      21.399      20.385      19.602      19.032      18.649    
  18.422      18.318      18.305      18.354      18.442      18.550      18.661      18.762      18.842      18.894    
  18.912      18.894      18.842      18.762      18.661      18.550      18.442      18.354      18.305      18.318    
  18.422      18.649      19.032      19.602      20.385      21.399      22.656      24.161      25.909      27.882    
  30.049      32.358      34.740      37.114      39.389      41.479      43.303      44.794      45.897      46.574    
  37.496      37.343      36.891      36.154      35.160      33.943      32.552      31.040      29.469      27.900    
  26.389      24.987      23.733      22.656      21.777      21.105      20.643      20.385      20.313      20.404    
  20.628      20.952      21.344      21.773      22.210      22.627      23.002      23.315      23.550      23.696    
  23.745      23.696      23.550      23.315      23.002      22.627      22.210      21.773      21.344      20.952    
  20.628      20.404      20.313      20.385      20.643      21.105      21.777      22.656      23.733      24.987    
  26.389      27.900      29.469      31.040      32.552      33.943      35.160      36.154      36.891      37.343    
  29.868      29.774      29.497      29.046      28.440      27.702      26.863      25.960      25.031      24.119    
  23.264      22.504      21.873      21.399      21.105      21.005      21.105      21.399      21.873      22.504    
  23.264      24.119      25.031      25.960      26.863      27.702      28.440      29.046      29.497      29.774    
  29.868      29.774      29.497      29.046      28.440      27.702      26.863      25.960      25.031      24.119    
  23.264      22.504      21.873      21.399      21.105      21.005      21.105      21.399      21.873      22.504    
  23.264      24.119      25.031      25.960      26.863      27.702      28.440      29.046      29.497      29.774    
  23.745      23.696      23.550      23.315      23.002      22.627      22.210      21.773      21.344      20.952    
  20.628      20.404      20.313      20.385      20.643      21.105      21.777      22.656      23.733      24.987    
  26.389      27.900      29.469      31.040      32.552      33.943      35.160      36.154      36.891      37.343    
  37.496      37.343      36.891      36.154      35.160      33.943      32.552      31.040      29.469      27.900    
  26.389      24.987      23.733      22.656      21.777      21.105      20.643      20.385      20.313      20.404    
  20.628      20.952      21.344      21.773      22.210      22.627      23.002      23.315      23.550      23.696    
  18.912      18.894      18.842      18.762      18.661      18.550      18.442      18.354      18.305      18.318    
  18.422      18.649      19.032      19.602      20.385      21.399      22.656      24.161      25.909      27.882    
  30.049      32.358      34.740      37.114      39.389      41.479      43.303      44.794      45.897      46.574    
  46.802      46.574      45.897      44.794      43.303      41.479      39.389      37.114      34.740      32.358    
  30.049      27.882      25.909      24.161      22.656      21.399      20.385      19.602      19.032      18.649    
  18.422      18.318      18.305      18.354      18.442      18.550      18.661      18.762      18.842      18.894    
  15.128      15.132      15.145      15.171      15.217      15.292      15.406      15.573      15.811      16.142    
  16.595      17.204      18.006      19.032      20.313      21.873      23.733      25.909      28.404      31.203    
  34.266      37.524      40.881      44.225      47.432      50.381      52.959      55.069      56.632      57.592    
  57.916      57.592      56.632      55.069      52.959      50.381      47.432      44.225      40.881      37.524    
  34.266      31.203      28.404      25.909      23.733      21.873      20.313      19.032      18.006      17.204    
  16.595      16.142      15.811      15.573      15.406      15.292      15.217      15.171      15.145      15.132    
  12.173      12.191      12.246      12.343      12.489      12.692      12.964      13.318      13.773      14.355    
  15.096      16.033      17.204      18.649      20.404      22.504      24.987      27.882      31.203      34.934    
  39.022      43.376      47.870      52.358      56.676      60.663      64.163      67.036      69.157      70.445    
  70.875      70.445      69.157      67.036      64.163      60.663      56.676      52.358      47.870      43.376    
  39.022      34.934      31.203      27.882      24.987      22.504      20.404      18.649      17.204      16.033    
  15.096      14.355      13.773      13.318      12.964      12.692      12.489      12.343      12.246      12.191    
  9.8651      9.8921      9.9750      10.119      10.332      10.624      11.007      11.499      12.120      12.901    
  13.879      15.096      16.595      18.422      20.628      23.264      26.389      30.049      34.266      39.022    
  44.249      49.834      55.624      61.433      67.058      72.268      76.726      80.183      82.572      83.949    
  84.395      83.949      82.572      80.183      76.726      72.268      67.058      61.433      55.624      49.834    
  44.249      39.022      34.266      30.049      26.389      23.264      20.628      18.422      16.595      15.096    
  13.879      12.901      12.120      11.499      11.007      10.624      10.332      10.119      9.9750      9.8921    
  8.0665      8.0994      8.2002      8.3751      8.6331      8.9861      9.4489      10.041      10.789      11.729    
  12.901      14.355      16.142      18.318      20.952      24.119      27.900      32.358      37.524      43.376    
  49.834      56.769      64.001      71.312      78.307      84.356      89.054      92.311      94.295      95.305    
  95.606      95.305      94.295      92.311      89.054      84.356      78.307      71.312      64.001      56.769    
  49.834      43.376      37.524      32.358      27.900      24.119      20.952      18.318      16.142      14.355    
  12.901      11.729      10.789      10.041      9.4489      8.9861      8.6331      8.3751      8.2002      8.0994    
  6.6731      6.7098      6.8223      7.0175      7.3054      7.6998      8.2178      8.8829      9.7266      10.789    
  12.120      13.773      15.811      18.305      21.344      25.031      29.469      34.740      40.881      47.870    
  55.624      64.001      72.804      81.498      89.126      94.978      98.785      100.74      101.39      101.41    
  101.35      101.41      101.39      100.74      98.785      94.978      89.126      81.498      72.804      64.001    
  55.624      47.870      40.881      34.740      29.469      25.031      21.344      18.305      15.811      13.773    
  12.120      10.789      9.7266      8.8829      8.2178      7.6998      7.3054      7.0175      6.8223      6.7098    
  5.6026      5.6417      5.7615      5.9693      6.2763      6.6974      7.2525      7.9688      8.8829      10.041    
  11.499      13.318      15.573      18.354      21.773      25.960      31.040      37.114      44.225      52.358    
  61.433      71.312      81.498      90.735      97.864      102.20      103.72      103.02      101.20      99.459    
  98.761      99.459      101.20      103.02      103.72      102.20      97.864      90.735      81.498      71.312    
  61.433      52.358      44.225      37.114      31.040      25.960      21.773      18.354      15.573      13.318    
  11.499      10.041      8.8829      7.9688      7.2525      6.6974      6.2763      5.9693      5.7615      5.6417    
  4.7884      4.8288      4.9525      5.1674      5.4853      5.9225      6.5012      7.2525      8.2178      9.4489    
  11.007      12.964      15.406      18.442      22.210      26.863      32.552      39.389      47.432      56.676    
  67.058      78.307      89.126      97.864      103.23      104.62      102.32      97.499      91.953      87.623    
  85.994      87.623      91.953      97.499      102.32      104.62      103.23      97.864      89.126      78.307    
  67.058      56.676      47.432      39.389      32.552      26.863      22.210      18.442      15.406      12.964    
  11.007      9.4489      8.2178      7.2525      6.5012      5.9225      5.4853      5.1674      4.9525      4.8288    
  4.1764      4.2171      4.3424      4.5604      4.8836      5.3294      5.9225      6.6974      7.6998      8.9861    
  10.624      12.692      15.292      18.550      22.627      27.702      33.943      41.479      50.381      60.663    
  72.268      84.356      94.978      102.20      104.62      101.73      94.205      83.895      73.480      65.784    
  62.951      65.784      73.480      83.895      94.205      101.73      104.62      102.20      94.978      84.356    
  72.268      60.663      50.381      41.479      33.943      27.702      22.627      18.550      15.292      12.692    
  10.624      8.9861      7.6998      6.6974      5.9225      5.3294      4.8836      4.5604      4.3424      4.2171    
  3.7237      3.7644      3.8897      4.1085      4.4336      4.8836      5.4853      6.2763      7.3054      8.6331    
  10.332      12.489      15.217      18.661      23.002      28.440      35.160      43.303      52.959      64.163    
  76.726      89.054      98.785      103.72      102.32      94.205      80.476      63.750      47.692      36.114    
  31.897      36.114      47.692      63.750      80.476      94.205      102.32      103.72      98.785      89.054    
  76.726      64.163      52.959      43.303      35.160      28.440      23.002      18.661      15.217      12.489    
  10.332      8.6331      7.3054      6.2763      5.4853      4.8836      4.4336      4.1085      3.8897      3.7644    
  3.3994      3.4398      3.5646      3.7830      4.1085      4.5604      5.1674      5.9693      7.0175      8.3751    
  10.119      12.343      15.171      18.762      23.315      29.046      36.154      44.794      55.069      67.036    
  80.183      92.311      100.74      103.02      97.499      83.895      63.750      40.446      18.635      3.1163    
 -2.5028      3.1163      18.635      40.446      63.750      83.895      97.499      103.02      100.74      92.311    
  80.183      67.036      55.069      44.794      36.154      29.046      23.315      18.762      15.171      12.343    
  10.119      8.3751      7.0175      5.9693      5.1674      4.5604      4.1085      3.7830      3.5646      3.4398    
  3.1828      3.2229      3.3469      3.5646      3.8897      4.3424      4.9525      5.7615      6.8223      8.2002    
  9.9750      12.246      15.145      18.842      23.550      29.497      36.891      45.897      56.632      69.157    
  82.572      94.295      101.39      101.20      91.953      73.480      47.692      18.635     -8.1850     -27.124    
 -33.958     -27.124     -8.1850      18.635      47.692      73.480      91.953      101.20      101.39      94.295    
  82.572      69.157      56.632      45.897      36.891      29.497      23.550      18.842      15.145      12.246    
  9.9750      8.2002      6.8223      5.7615      4.9525      4.3424      3.8897      3.5646      3.3469      3.2229    
  3.0596      3.0994      3.2229      3.4398      3.7644      4.2171      4.8288      5.6417      6.7098      8.0994    
  9.8921      12.191      15.132      18.894      23.696      29.774      37.343      46.574      57.592      70.445    
  83.949      95.305      101.41      99.459      87.623      65.784      36.114      3.1163     -27.124     -48.393    
 -56.054     -48.393     -27.124      3.1163      36.114      65.784      87.623      99.459      101.41      95.305    
  83.949      70.445      57.592      46.574      37.343      29.774      23.696      18.894      15.132      12.191    
  9.8921      8.0994      6.7098      5.6417      4.8288      4.2171      3.7644      3.4398      3.2229      3.0994    
  3.0198      3.0596      3.1828      3.3994      3.7237      4.1764      4.7884      5.6026      6.6731      8.0665    
  9.8651      12.173      15.128      18.912      23.745      29.868      37.496      46.802      57.916      70.875    
  84.395      95.606      101.35      98.761      85.994      62.951      31.897     -2.5028     -33.958     -56.054    
 -64.009     -56.054     -33.958     -2.5028      31.897      62.951      85.994      98.761      101.35      95.606    
  84.395      70.875      57.916      46.802      37.496      29.868      23.745      18.912      15.128      12.173    
  9.8651      8.0665      6.6731      5.6026      4.7884      4.1764      3.7237      3.3994      3.1828      3.0596    
  3.0596      3.0994      3.2229      3.4398      3.7644      4.2171      4.8288      5.6417      6.7098      8.0994    
  9.8921      12.191      15.132      18.894      23.696      29.774      37.343      46.574      57.592      70.445    
  83.949      95.305      101.41      99.459      87.623      65.784      36.114      3.1163     -27.124     -48.393    
 -56.054     -48.393     -27.124      3.1163      36.114      65.784      87.623      99.459      101.41      95.305    
  83.949      70.445      57.592      46.574      37.343      29.774      23.696      18.894      15.132      12.191    
  9.8921      8.0994      6.7098      5.6417      4.8288      4.2171      3.7644      3.4398      3.2229      3.0994    
  3.1828      3.2229      3.3469      3.5646      3.8897      4.3424      4.9525      5.7615      6.8223      8.2002    
  9.9750      12.246      15.145      18.842      23.550      29.497      36.891      45.897      56.632      69.157    
  82.572      94.295      101.39      101.20      91.953      73.480      47.692      18.635     -8.1850     -27.124    
 -33.958     -27.124     -8.1850      18.635      47.692      73.480      91.953      101.20      101.39      94.295    
  82.572      69.157      56.632      45.897      36.891      29.497      23.550      18.842      15.145      12.246    
  9.9750      8.2002      6.8223      5.7615      4.9525      4.3424      3.8897      3.5646      3.3469      3.2229    
  3.3994      3.4398      3.5646      3.7830      4.1085      4.5604      5.1674      5.9693      7.0175      8.3751    
  10.119      12.343      15.171      18.762      23.315      29.046      36.154      44.794      55.069      67.036    
  80.183      92.311      100.74      103.02      97.499      83.895      63.750      40.446      18.635      3.1163    
 -2.5028      3.1163      18.635      40.446      63.750      83.895      97.499      103.02      100.74      92.311    
  80.183      67.036      55.069      44.794      36.154      29.046      23.315      18.762      15.171      12.343    
  10.119      8.3751      7.0175      5.9693      5.1674      4.5604      4.1085      3.7830      3.5646      3.4398    
  3.7237      3.7644      3.8897      4.1085      4.4336      4.8836      5.4853      6.2763      7.3054      8.6331    
  10.332      12.489      15.217      18.661      23.002      28.440      35.160      43.303      52.959      64.163    
  76.726      89.054      98.785      103.72      102.32      94.205      80.476      63.750      47.692      36.114    
  31.897      36.114      47.692      63.750      80.476      94.205      102.32      103.72      98.785      89.054    
  76.726      64.163      52.959      43.303      35.160      28.440      23.002      18.661      15.217      12.489    
  10.332      8.6331      7.3054      6.2763      5.4853      4.8836      4.4336      4.1085      3.8897      3.7644    
  4.1764      4.2171      4.3424      4.5604      4.8836      5.3294      5.9225      6.6974      7.6998      8.9861    
  10.624      12.692      15.292      18.550      22.627      27.702      33.943      41.479      50.381      60.663    
  72.268      84.356      94.978      102.20      104.62      101.73      94.205      83.895      73.480      65.784    
  62.951      65.784      73.480      83.895      94.205      101.73      104.62      102.20      94.978      84.356    
  72.268      60.663      50.381      41.479      33.943      27.702      22.627      18.550      15.292      12.692    
  10.624      8.9861      7.6998      6.6974      5.9225      5.3294      4.8836      4.5604      4.3424      4.2171    
  4.7884      4.8288      4.9525      5.1674      5.4853      5.9225      6.5012      7.2525      8.2178      9.4489    
  11.007      12.964      15.406      18.442      22.210      26.863      32.552      39.389      47.432      56.676    
  67.058      78.307      89.126      97.864      103.23      104.62      102.32      97.499      91.953      87.623    
  85.994      87.623      91.953      97.499      102.32      104.62      103.23      97.864      89.126      78.307    
  67.058      56.676      47.432      39.389      32.552      26.863      22.210      18.442      15.406      12.964    
  11.007      9.4489      8.2178      7.2525      6.5012      5.9225      5.4853      5.1674      4.9525      4.8288    
  5.6026      5.6417      5.7615      5.9693      6.2763      6.6974      7.2525      7.9688      8.8829      10.041    
  11.499      13.318      15.573      18.354      21.773      25.960      31.040      37.114      44.225      52.358    
  61.433      71.312      81.498      90.735      97.864      102.20      103.72      103.02      101.20      99.459    
  98.761      99.459      101.20      103.02      103.72      102.20      97.864      90.735      81.498      71.312    
  61.433      52.358      44.225      37.114      31.040      25.960      21.773      18.354      15.573      13.318    
  11.499      10.041      8.8829      7.9688      7.2525      6.6974      6.2763      5.9693      5.7615      5.6417    
  6.6731      6.7098      6.8223      7.0175      7.3054      7.6998      8.2178      8.8829      9.7266      10.789    
  12.120      13.773      15.811      18.305      21.344      25.031      29.469      34.740      40.881      47.870    
  55.624      64.001      72.804      81.498      89.126      94.978      98.785      100.74      101.39      101.41    
  101.35      101.41      101.39      100.74      98.785      94.978      89.126      81.498      72.804      64.001    
  55.624      47.870      40.881      34.740      29.469      25.031      21.344      18.305      15.811      13.773    
  12.120      10.789      9.7266      8.8829      8.2178      7.6998      7.3054      7.0175      6.8223      6.7098    
  8.0665      8.0994      8.2002      8.3751      8.6331      8.9861      9.4489      10.041      10.789      11.729    
  12.901      14.355      16.142      18.318      20.952      24.119      27.900      32.358      37.524      43.376    
  49.834      56.769      64.001      71.312      78.307      84.356      89.054      92.311      94.295      95.305    
  95.606      95.305      94.295      92.311      89.054      84.356      78.307      71.312      64.001      56.769    
  49.834      43.376      37.524      32.358      27.900      24.119      20.952      18.318      16.142      14.355    
  12.901      11.729      10.789      10.041      9.4489      8.9861      8.6331      8.3751      8.2002      8.0994    
  9.8651      9.8921      9.9750      10.119      10.332      10.624      11.007      11.499      12.120      12.901    
  13.879      15.096      16.595      18.422      20.628      23.264      26.389      30.049      34.266      39.022    
  44.249      49.834      55.624      61.433      67.058      72.268      76.726      80.183      82.572      83.949    