GaAs                                    
   4.50000000000000     
     1.229868    0.000000    0.000000
     0.000000    1.229868    0.000000
     0.000000    0.000000    1.229868
   As   Ga
     4     4
Direct
  0.000000  0.000000  0.000000
  0.500000  0.500000  0.000000
  0.500000  0.000000  0.500000
  0.000000  0.500000  0.500000
  0.250000  0.250000  0.250000
  0.750000  0.250000  0.750000
  0.750000  0.750000  0.250000
  0.250000  0.750000  0.750000
 
   60   60   60
 -.64008514912E+02 -.56053960068E+02 -.33957953658E+02 -.25027638779E+01 0.31897383929E+02
 0.62951394721E+02 0.85993847260E+02 0.98760873250E+02 0.10134617504E+03 0.95606167570E+02
 0.84395159454E+02 0.70875347168E+02 0.57916467152E+02 0.46801829285E+02 0.37495515355E+02
 0.29867507231E+02 0.23745164701E+02 0.18911549650E+02 0.15128430857E+02 0.12173326334E+02
 0.98650884337E+01 0.80664654549E+01 0.66730836392E+01 0.56026099983E+01 0.47884441584E+01
 0.41763810096E+01 0.37236665440E+01 0.33993539872E+01 0.31827559167E+01 0.30595624921E+01
 0.30197908154E+01 0.30595624921E+01 0.31827559167E+01 0.33993539872E+01 0.37236665440E+01
 0.41763810096E+01 0.47884441584E+01 0.56026099983E+01 0.66730836392E+01 0.80664654549E+01
 0.98650884337E+01 0.12173326334E+02 0.15128430857E+02 0.18911549650E+02 0.23745164701E+02
 0.29867507231E+02 0.37495515355E+02 0.46801829285E+02 0.57916467152E+02 0.70875347168E+02
 0.84395159454E+02 0.95606167570E+02 0.10134617504E+03 0.98760873250E+02 0.85993847260E+02
 0.62951394721E+02 0.31897383929E+02 -.25027638779E+01 -.33957953658E+02 -.56053960068E+02
 -.56053960068E+02 -.48392668719E+02 -.27123631765E+02 0.31162549287E+01 0.36113884445E+02
 0.65783854380E+02 0.87622973597E+02 0.99459351320E+02 0.10140966455E+03 0.95304791706E+02
 0.83948779702E+02 0.70445068180E+02 0.57592491873E+02 0.46573593498E+02 0.37343010400E+02
 0.29773887512E+02 0.23695789717E+02 0.18893819582E+02 0.15132217366E+02 0.12191222452E+02
 0.98921049025E+01 0.80993833526E+01 0.67098051192E+01 0.56416734898E+01 0.48287523232E+01
 0.42171310772E+01 0.37643672084E+01 0.34397866051E+01 0.32228751350E+01 0.30994314425E+01
 0.30595624921E+01 0.30994314425E+01 0.32228751350E+01 0.34397866051E+01 0.37643672084E+01
 0.42171310772E+01 0.48287523232E+01 0.56416734898E+01 0.67098051192E+01 0.80993833526E+01
 0.98921049025E+01 0.12191222452E+02 0.15132217366E+02 0.18893819582E+02 0.23695789717E+02
 0.29773887512E+02 0.37343010400E+02 0.46573593498E+02 0.57592491873E+02 0.70445068180E+02
 0.83948779702E+02 0.95304791706E+02 0.10140966455E+03 0.99459351320E+02 0.87622973597E+02
 0.65783854380E+02 0.36113884445E+02 0.31162549287E+01 -.27123631765E+02 -.48392668719E+02
 -.33957953658E+02 -.27123631765E+02 -.81849558338E+01 0.18634584567E+02 0.47691509897E+02
 0.73480336407E+02 0.91953397148E+02 0.10119643934E+03 0.10139060438E+03 0.94295225972E+02
 0.82572289412E+02 0.69157307847E+02 0.56631870735E+02 0.45896554538E+02 0.36890709874E+02
 0.29496555724E+02 0.23550030653E+02 0.18842306928E+02 0.15145013606E+02 0.12246446349E+02
 0.99749623433E+01 0.82002488565E+01 0.68223443282E+01 0.57614543772E+01 0.49524672197E+01
 0.43423919779E+01 0.38897289837E+01 0.35645928710E+01 0.33469438415E+01 0.32228751350E+01
 0.31827559167E+01 0.32228751350E+01 0.33469438415E+01 0.35645928710E+01 0.38897289837E+01
 0.43423919779E+01 0.49524672197E+01 0.57614543772E+01 0.68223443282E+01 0.82002488565E+01
 0.99749623433E+01 0.12246446349E+02 0.15145013606E+02 0.18842306928E+02 0.23550030653E+02
 0.29496555724E+02 0.36890709874E+02 0.45896554538E+02 0.56631870735E+02 0.69157307847E+02
 0.82572289412E+02 0.94295225972E+02 0.10139060438E+03 0.10119643934E+03 0.91953397148E+02
 0.73480336407E+02 0.47691509897E+02 0.18634584567E+02 -.81849558338E+01 -.27123631765E+02
 -.25027638779E+01 0.31162549287E+01 0.18634584567E+02 0.40445604946E+02 0.63749985343E+02
 0.83895028532E+02 0.97498640090E+02 0.10302200883E+03 0.10074104180E+03 0.92310975339E+02
 0.80182648460E+02 0.67036368462E+02 0.55068548037E+02 0.44793723778E+02 0.36154241270E+02
 0.29046041350E+02 0.23314918838E+02 0.18761977890E+02 0.15171035527E+02 0.12343442636E+02
 0.10118841934E+02 0.83750857253E+01 0.70174514358E+01 0.59692663667E+01 0.51673699079E+01
 0.45604074505E+01 0.41084903005E+01 0.37829985430E+01 0.35645928710E+01 0.34397866051E+01
 0.33993539872E+01 0.34397866051E+01 0.35645928710E+01 0.37829985430E+01 0.41084903005E+01
 0.45604074505E+01 0.51673699079E+01 0.59692663667E+01 0.70174514358E+01 0.83750857253E+01
 0.10118841934E+02 0.12343442636E+02 0.15171035527E+02 0.18761977890E+02 0.23314918838E+02
 0.29046041350E+02 0.36154241270E+02 0.44793723778E+02 0.55068548037E+02 0.67036368462E+02
 0.80182648460E+02 0.92310975339E+02 0.10074104180E+03 0.10302200883E+03 0.97498640090E+02
 0.83895028532E+02 0.63749985343E+02 0.40445604946E+02 0.18634584567E+02 0.31162549287E+01
 0.31897383929E+02 0.36113884445E+02 0.47691509897E+02 0.63749985343E+02 0.80476150705E+02
 0.94205226438E+02 0.10232159149E+03 0.10371899230E+03 0.98784800440E+02 0.89054302371E+02
 0.76726103795E+02 0.64163112090E+02 0.52958954513E+02 0.43303464894E+02 0.35159649546E+02
 0.28439772026E+02 0.23001979052E+02 0.18660883587E+02 0.15216993887E+02 0.12489126094E+02
 0.10331689347E+02 0.86330958898E+01 0.73054455848E+01 0.62762918155E+01 0.54853144296E+01
 0.48836173568E+01 0.44336387613E+01 0.41084903005E+01 0.38897289837E+01 0.37643672084E+01
 0.37236665440E+01 0.37643672084E+01 0.38897289837E+01 0.41084903005E+01 0.44336387613E+01
 0.48836173568E+01 0.54853144296E+01 0.62762918155E+01 0.73054455848E+01 0.86330958898E+01
 0.10331689347E+02 0.12489126094E+02 0.15216993887E+02 0.18660883587E+02 0.23001979052E+02
 0.28439772026E+02 0.35159649546E+02 0.43303464894E+02 0.52958954513E+02 0.64163112090E+02
 0.76726103795E+02 0.89054302371E+02 0.98784800440E+02 0.10371899230E+03 0.10232159149E+03
 0.94205226438E+02 0.80476150705E+02 0.63749985343E+02 0.47691509897E+02 0.36113884445E+02
 0.62951394721E+02 0.65783854380E+02 0.73480336407E+02 0.83895028532E+02 0.94205226438E+02
 0.10173197817E+03 0.10462258606E+03 0.10220382734E+03 0.94977542362E+02 0.84356053481E+02
 0.72267973062E+02 0.60663439120E+02 0.50381097410E+02 0.41479353988E+02 0.33943397099E+02
 0.27701949023E+02 0.22626991775E+02 0.18549857866E+02 0.15291716237E+02 0.12692402073E+02
 0.10623655205E+02 0.89861014620E+01 0.76997840773E+01 0.66974257214E+01 0.59224803633E+01
 0.53293929907E+01 0.48836173568E+01 0.45604074505E+01 0.43423919779E+01 0.42171310772E+01
 0.41763810096E+01 0.42171310772E+01 0.43423919779E+01 0.45604074505E+01 0.48836173568E+01
 0.53293929907E+01 0.59224803633E+01 0.66974257214E+01 0.76997840773E+01 0.89861014620E+01
 0.10623655205E+02 0.12692402073E+02 0.15291716237E+02 0.18549857866E+02 0.22626991775E+02
 0.27701949023E+02 0.33943397099E+02 0.41479353988E+02 0.50381097410E+02 0.60663439120E+02
 0.72267973062E+02 0.84356053481E+02 0.94977542362E+02 0.10220382734E+03 0.10462258606E+03
 0.10173197817E+03 0.94205226438E+02 0.83895028532E+02 0.73480336407E+02 0.65783854380E+02
 0.85993847260E+02 0.87622973597E+02 0.91953397148E+02 0.97498640090E+02 0.10232159149E+03
 0.10462258606E+03 0.10323088309E+03 0.97863667050E+02 0.89125716237E+02 0.78306564537E+02
 0.67058259581E+02 0.56676403720E+02 0.47432300783E+02 0.39389387279E+02 0.32551972878E+02
 0.26863206390E+02 0.22209687910E+02 0.18442287468E+02 0.15406015705E+02 0.12964158475E+02
 0.11007252607E+02 0.94489455240E+01 0.82178283579E+01 0.72525390387E+01 0.65012191424E+01
 0.59224803633E+01 0.54853144296E+01 0.51673699079E+01 0.49524672197E+01 0.48287523232E+01
 0.47884441584E+01 0.48287523232E+01 0.49524672197E+01 0.51673699079E+01 0.54853144296E+01
 0.59224803633E+01 0.65012191424E+01 0.72525390387E+01 0.82178283579E+01 0.94489455240E+01
 0.11007252607E+02 0.12964158475E+02 0.15406015705E+02 0.18442287468E+02 0.22209687910E+02
 0.26863206390E+02 0.32551972878E+02 0.39389387279E+02 0.47432300783E+02 0.56676403720E+02
 0.67058259581E+02 0.78306564537E+02 0.89125716237E+02 0.97863667050E+02 0.10323088309E+03
 0.10462258606E+03 0.10232159149E+03 0.97498640090E+02 0.91953397148E+02 0.87622973597E+02
 0.98760873250E+02 0.99459351320E+02 0.10119643934E+03 0.10302200883E+03 0.10371899230E+03
 0.10220382734E+03 0.97863667050E+02 0.90735139083E+02 0.81497921632E+02 0.71311777512E+02
 0.61433127393E+02 0.52357630276E+02 0.44225158987E+02 0.37113717884E+02 0.31040407323E+02
 0.25959680473E+02 0.21773360227E+02 0.18354233625E+02 0.15573269782E+02 0.13318253119E+02
 0.11498713834E+02 0.10041201692E+02 0.88829016416E+01 0.79688269736E+01 0.72525390387E+01
 0.66974257214E+01 0.62762918155E+01 0.59692663667E+01 0.57614543772E+01 0.56416734898E+01
 0.56026099983E+01 0.56416734898E+01 0.57614543772E+01 0.59692663667E+01 0.62762918155E+01
 0.66974257214E+01 0.72525390387E+01 0.79688269736E+01 0.88829016416E+01 0.10041201692E+02
 0.11498713834E+02 0.13318253119E+02 0.15573269782E+02 0.18354233625E+02 0.21773360227E+02
 0.25959680473E+02 0.31040407323E+02 0.37113717884E+02 0.44225158987E+02 0.52357630276E+02
 0.61433127393E+02 0.71311777512E+02 0.81497921632E+02 0.90735139083E+02 0.97863667050E+02
 0.10220382734E+03 0.10371899230E+03 0.10302200883E+03 0.10119643934E+03 0.99459351320E+02
 0.10134617504E+03 0.10140966455E+03 0.10139060438E+03 0.10074104180E+03 0.98784800440E+02
 0.94977542362E+02 0.89125716237E+02 0.81497921632E+02 0.72803944747E+02 0.64001376140E+02
 0.55623591428E+02 0.47870340310E+02 0.40881418683E+02 0.34740213715E+02 0.29469165581E+02
 0.25031274207E+02 0.21344429944E+02 0.18305070239E+02 0.15810836342E+02 0.13773429903E+02
 0.12120181930E+02 0.10789476696E+02 0.97265659996E+01 0.88829016416E+01 0.82178283579E+01
 0.76997840773E+01 0.73054455848E+01 0.70174514358E+01 0.68223443282E+01 0.67098051192E+01
 0.66730836392E+01 0.67098051192E+01 0.68223443282E+01 0.70174514358E+01 0.73054455848E+01
 0.76997840773E+01 0.82178283579E+01 0.88829016416E+01 0.97265659996E+01 0.10789476696E+02
 0.12120181930E+02 0.13773429903E+02 0.15810836342E+02 0.18305070239E+02 0.21344429944E+02
 0.25031274207E+02 0.29469165581E+02 0.34740213715E+02 0.40881418683E+02 0.47870340310E+02
 0.55623591428E+02 0.64001376140E+02 0.72803944747E+02 0.81497921632E+02 0.89125716237E+02
 0.94977542362E+02 0.98784800440E+02 0.10074104180E+03 0.10139060438E+03 0.10140966455E+03
 0.95606167570E+02 0.95304791706E+02 0.94295225972E+02 0.92310975339E+02 0.89054302371E+02
 0.84356053481E+02 0.78306564537E+02 0.71311777512E+02 0.64001376140E+02 0.56768883342E+02
 0.49834433250E+02 0.43375525071E+02 0.37523737619E+02 0.32357841978E+02 0.27899622629E+02
 0.24119345074E+02 0.20952027741E+02 0.18318389240E+02 0.16141672704E+02 0.14355137994E+02
 0.12901376445E+02 0.11728717877E+02 0.10789476696E+02 0.10041201692E+02 0.94489455240E+01
 0.89861014620E+01 0.86330958898E+01 0.83750857253E+01 0.82002488565E+01 0.80993833526E+01
 0.80664654549E+01 0.80993833526E+01 0.82002488565E+01 0.83750857253E+01 0.86330958898E+01
 0.89861014620E+01 0.94489455240E+01 0.10041201692E+02 0.10789476696E+02 0.11728717877E+02
 0.12901376445E+02 0.14355137994E+02 0.16141672704E+02 0.18318389240E+02 0.20952027741E+02
 0.24119345074E+02 0.27899622629E+02 0.32357841978E+02 0.37523737619E+02 0.43375525071E+02
 0.49834433250E+02 0.56768883342E+02 0.64001376140E+02 0.71311777512E+02 0.78306564537E+02
 0.84356053481E+02 0.89054302371E+02 0.92310975339E+02 0.94295225972E+02 0.95304791706E+02
 0.84395159454E+02 0.83948779702E+02 0.82572289412E+02 0.80182648460E+02 0.76726103795E+02
 0.72267973062E+02 0.67058259581E+02 0.61433127393E+02 0.55623591428E+02 0.49834433250E+02
 0.44249214250E+02 0.39021608849E+02 0.34265873208E+02 0.30048947385E+02 0.26389155304E+02
 0.23264394578E+02 0.20627509398E+02 0.18422434967E+02 0.16594918271E+02 0.15095767694E+02
 0.13879282674E+02 0.12901376445E+02 0.12120181930E+02 0.11498713834E+02 0.11007252607E+02
 0.10623655205E+02 0.10331689347E+02 0.10118841934E+02 0.99749623433E+01 0.98921049025E+01
 0.98650884337E+01 0.98921049025E+01 0.99749623433E+01 0.10118841934E+02 0.10331689347E+02
 0.10623655205E+02 0.11007252607E+02 0.11498713834E+02 0.12120181930E+02 0.12901376445E+02
 0.13879282674E+02 0.15095767694E+02 0.16594918271E+02 0.18422434967E+02 0.20627509398E+02
 0.23264394578E+02 0.26389155304E+02 0.30048947385E+02 0.34265873208E+02 0.39021608849E+02
 0.44249214250E+02 0.49834433250E+02 0.55623591428E+02 0.61433127393E+02 0.67058259581E+02
 0.72267973062E+02 0.76726103795E+02 0.80182648460E+02 0.82572289412E+02 0.83948779702E+02
 0.70875347168E+02 0.70445068180E+02 0.69157307847E+02 0.67036368462E+02 0.64163112090E+02
 0.60663439120E+02 0.56676403720E+02 0.52357630276E+02 0.47870340310E+02 0.43375525071E+02
 0.39021608849E+02 0.34933531845E+02 0.31202876704E+02 0.27882315472E+02 0.24987208118E+02
 0.22504255313E+02 0.20403589064E+02 0.18649216887E+02 0.17204458309E+02 0.16032599703E+02
 0.15095767694E+02 0.14355137994E+02 0.13773429903E+02 0.13318253119E+02 0.12964158475E+02
 0.12692402073E+02 0.12489126094E+02 0.12343442636E+02 0.12246446349E+02 0.12191222452E+02
 0.12173326334E+02 0.12191222452E+02 0.12246446349E+02 0.12343442636E+02 0.12489126094E+02
 0.12692402073E+02 0.12964158475E+02 0.13318253119E+02 0.13773429903E+02 0.14355137994E+02
 0.15095767694E+02 0.16032599703E+02 0.17204458309E+02 0.18649216887E+02 0.20403589064E+02
 0.22504255313E+02 0.24987208118E+02 0.27882315472E+02 0.31202876704E+02 0.34933531845E+02
 0.39021608849E+02 0.43375525071E+02 0.47870340310E+02 0.52357630276E+02 0.56676403720E+02
 0.60663439120E+02 0.64163112090E+02 0.67036368462E+02 0.69157307847E+02 0.70445068180E+02
 0.57916467152E+02 0.57592491873E+02 0.56631870735E+02 0.55068548037E+02 0.52958954513E+02
 0.50381097410E+02 0.47432300783E+02 0.44225158987E+02 0.40881418683E+02 0.37523737619E+02
 0.34265873208E+02 0.31202876704E+02 0.28403756074E+02 0.25908932996E+02 0.23733236644E+02
 0.21872816999E+02 0.20312705846E+02 0.19032001999E+02 0.18005689247E+02 0.17204458309E+02
 0.16594918271E+02 0.16141672704E+02 0.15810836342E+02 0.15573269782E+02 0.15406015705E+02
 0.15291716237E+02 0.15216993887E+02 0.15171035527E+02 0.15145013606E+02 0.15132217366E+02
 0.15128430857E+02 0.15132217366E+02 0.15145013606E+02 0.15171035527E+02 0.15216993887E+02
 0.15291716237E+02 0.15406015705E+02 0.15573269782E+02 0.15810836342E+02 0.16141672704E+02
 0.16594918271E+02 0.17204458309E+02 0.18005689247E+02 0.19032001999E+02 0.20312705846E+02
 0.21872816999E+02 0.23733236644E+02 0.25908932996E+02 0.28403756074E+02 0.31202876704E+02
 0.34265873208E+02 0.37523737619E+02 0.40881418683E+02 0.44225158987E+02 0.47432300783E+02
 0.50381097410E+02 0.52958954513E+02 0.55068548037E+02 0.56631870735E+02 0.57592491873E+02
 0.46801829285E+02 0.46573593498E+02 0.45896554538E+02 0.44793723778E+02 0.43303464894E+02
 0.41479353988E+02 0.39389387279E+02 0.37113717884E+02 0.34740213715E+02 0.32357841978E+02
 0.30048947385E+02 0.27882315472E+02 0.25908932996E+02 0.24161406154E+02 0.22656486048E+02
 0.21398909104E+02 0.20384550289E+02 0.19601854851E+02 0.19032001999E+02 0.18649216887E+02
 0.18422434967E+02 0.18318389240E+02 0.18305070239E+02 0.18354233625E+02 0.18442287468E+02
 0.18549857866E+02 0.18660883587E+02 0.18761977890E+02 0.18842306928E+02 0.18893819582E+02
 0.18911549650E+02 0.18893819582E+02 0.18842306928E+02 0.18761977890E+02 0.18660883587E+02
 0.18549857866E+02 0.18442287468E+02 0.18354233625E+02 0.18305070239E+02 0.18318389240E+02
 0.18422434967E+02 0.18649216887E+02 0.19032001999E+02 0.19601854851E+02 0.20384550289E+02
 0.21398909104E+02 0.22656486048E+02 0.24161406154E+02 0.25908932996E+02 0.27882315472E+02
 0.30048947385E+02 0.32357841978E+02 0.34740213715E+02 0.37113717884E+02 0.39389387279E+02
 0.41479353988E+02 0.43303464894E+02 0.44793723778E+02 0.45896554538E+02 0.46573593498E+02
 0.37495515355E+02 0.37343010400E+02 0.36890709874E+02 0.36154241270E+02 0.35159649546E+02
 0.33943397099E+02 0.32551972878E+02 0.31040407323E+02 0.29469165581E+02 0.27899622629E+02
 0.26389155304E+02 0.24987208118E+02 0.23733236644E+02 0.22656486048E+02 0.21776734881E+02
 0.21104939724E+02 0.20643232721E+02 0.20384550289E+02 0.20312705846E+02 0.20403589064E+02
 0.20627509398E+02 0.20952027741E+02 0.21344429944E+02 0.21773360227E+02 0.22209687910E+02
 0.22626991775E+02 0.23001979052E+02 0.23314918838E+02 0.23550030653E+02 0.23695789717E+02
 0.23745164701E+02 0.23695789717E+02 0.23550030653E+02 0.23314918838E+02 0.23001979052E+02
 0.22626991775E+02 0.22209687910E+02 0.21773360227E+02 0.21344429944E+02 0.20952027741E+02
 0.20627509398E+02 0.20403589064E+02 0.20312705846E+02 0.20384550289E+02 0.20643232721E+02
 0.21104939724E+02 0.21776734881E+02 0.22656486048E+02 0.23733236644E+02 0.24987208118E+02
 0.26389155304E+02 0.27899622629E+02 0.29469165581E+02 0.31040407323E+02 0.32551972878E+02
 0.33943397099E+02 0.35159649546E+02 0.36154241270E+02 0.36890709874E+02 0.37343010400E+02
 0.29867507231E+02 0.29773887512E+02 0.29496555724E+02 0.29046041350E+02 0.28439772026E+02
 0.27701949023E+02 0.26863206390E+02 0.25959680473E+02 0.25031274207E+02 0.24119345074E+02
 0.23264394578E+02 0.22504255313E+02 0.21872816999E+02 0.21398909104E+02 0.21104939724E+02
 0.21005290827E+02 0.21104939724E+02 0.21398909104E+02 0.21872816999E+02 0.22504255313E+02
 0.23264394578E+02 0.24119345074E+02 0.25031274207E+02 0.25959680473E+02 0.26863206390E+02
 0.27701949023E+02 0.28439772026E+02 0.29046041350E+02 0.29496555724E+02 0.29773887512E+02
 0.29867507231E+02 0.29773887512E+02 0.29496555724E+02 0.29046041350E+02 0.28439772026E+02
 0.27701949023E+02 0.26863206390E+02 0.25959680473E+02 0.25031274207E+02 0.24119345074E+02
 0.23264394578E+02 0.22504255313E+02 0.21872816999E+02 0.21398909104E+02 0.21104939724E+02
 0.21005290827E+02 0.21104939724E+02 0.21398909104E+02 0.21872816999E+02 0.22504255313E+02
 0.23264394578E+02 0.24119345074E+02 0.25031274207E+02 0.25959680473E+02 0.26863206390E+02
 0.27701949023E+02 0.28439772026E+02 0.29046041350E+02 0.29496555724E+02 0.29773887512E+02
 0.23745164701E+02 0.23695789717E+02 0.23550030653E+02 0.23314918838E+02 0.23001979052E+02
 0.22626991775E+02 0.22209687910E+02 0.21773360227E+02 0.21344429944E+02 0.20952027741E+02
 0.20627509398E+02 0.20403589064E+02 0.20312705846E+02 0.20384550289E+02 0.20643232721E+02
 0.21104939724E+02 0.21776734881E+02 0.22656486048E+02 0.23733236644E+02 0.24987208118E+02
 0.26389155304E+02 0.27899622629E+02 0.29469165581E+02 0.31040407323E+02 0.32551972878E+02
 0.33943397099E+02 0.35159649546E+02 0.36154241270E+02 0.36890709874E+02 0.37343010400E+02
 0.37495515355E+02 0.37343010400E+02 0.36890709874E+02 0.36154241270E+02 0.35159649546E+02
 0.33943397099E+02 0.32551972878E+02 0.31040407323E+02 0.29469165581E+02 0.27899622629E+02
 0.26389155304E+02 0.24987208118E+02 0.23733236644E+02 0.22656486048E+02 0.21776734881E+02
 0.21104939724E+02 0.20643232721E+02 0.20384550289E+02 0.20312705846E+02 0.20403589064E+02
 0.20627509398E+02 0.20952027741E+02 0.21344429944E+02 0.21773360227E+02 0.22209687910E+02
 0.22626991775E+02 0.23001979052E+02 0.23314918838E+02 0.23550030653E+02 0.23695789717E+02
 0.18911549650E+02 0.18893819582E+02 0.18842306928E+02 0.18761977890E+02 0.18660883587E+02
 0.18549857866E+02 0.18442287468E+02 0.18354233625E+02 0.18305070239E+02 0.18318389240E+02
 0.18422434967E+02 0.18649216887E+02 0.19032001999E+02 0.19601854851E+02 0.20384550289E+02
 0.21398909104E+02 0.22656486048E+02 0.24161406154E+02 0.25908932996E+02 0.27882315472E+02
 0.30048947385E+02 0.32357841978E+02 0.34740213715E+02 0.37113717884E+02 0.39389387279E+02
 0.41479353988E+02 0.43303464894E+02 0.44793723778E+02 0.45896554538E+02 0.46573593498E+02
 0.46801829285E+02 0.46573593498E+02 0.45896554538E+02 0.44793723778E+02 0.43303464894E+02
 0.41479353988E+02 0.39389387279E+02 0.37113717884E+02 0.34740213715E+02 0.32357841978E+02
 0.30048947385E+02 0.27882315472E+02 0.25908932996E+02 0.24161406154E+02 0.22656486048E+02
 0.21398909104E+02 0.20384550289E+02 0.19601854851E+02 0.19032001999E+02 0.18649216887E+02
 0.18422434967E+02 0.18318389240E+02 0.18305070239E+02 0.18354233625E+02 0.18442287468E+02
 0.18549857866E+02 0.18660883587E+02 0.18761977890E+02 0.18842306928E+02 0.18893819582E+02
 0.15128430857E+02 0.15132217366E+02 0.15145013606E+02 0.15171035527E+02 0.15216993887E+02
 0.15291716237E+02 0.15406015705E+02 0.15573269782E+02 0.15810836342E+02 0.16141672704E+02
 0.16594918271E+02 0.17204458309E+02 0.18005689247E+02 0.19032001999E+02 0.20312705846E+02
 0.21872816999E+02 0.23733236644E+02 0.25908932996E+02 0.28403756074E+02 0.31202876704E+02
 0.34265873208E+02 0.37523737619E+02 0.40881418683E+02 0.44225158987E+02 0.47432300783E+02
 0.50381097410E+02 0.52958954513E+02 0.55068548037E+02 0.56631870735E+02 0.57592491873E+02
 0.57916467152E+02 0.57592491873E+02 0.56631870735E+02 0.55068548037E+02 0.52958954513E+02
 0.50381097410E+02 0.47432300783E+02 0.44225158987E+02 0.40881418683E+02 0.37523737619E+02
 0.34265873208E+02 0.31202876704E+02 0.28403756074E+02 0.25908932996E+02 0.23733236644E+02
 0.21872816999E+02 0.20312705846E+02 0.19032001999E+02 0.18005689247E+02 0.17204458309E+02
 0.16594918271E+02 0.16141672704E+02 0.15810836342E+02 0.15573269782E+02 0.15406015705E+02
 0.15291716237E+02 0.15216993887E+02 0.15171035527E+02 0.15145013606E+02 0.15132217366E+02
 0.12173326334E+02 0.12191222452E+02 0.12246446349E+02 0.12343442636E+02 0.12489126094E+02
 0.12692402073E+02 0.12964158475E+02 0.13318253119E+02 0.13773429903E+02 0.14355137994E+02
 0.15095767694E+02 0.16032599703E+02 0.17204458309E+02 0.18649216887E+02 0.20403589064E+02
 0.22504255313E+02 0.24987208118E+02 0.27882315472E+02 0.31202876704E+02 0.34933531845E+02
 0.39021608849E+02 0.43375525071E+02 0.47870340310E+02 0.52357630276E+02 0.56676403720E+02
 0.60663439120E+02 0.64163112090E+02 0.67036368462E+02 0.69157307847E+02 0.70445068180E+02
 0.70875347168E+02 0.70445068180E+02 0.69157307847E+02 0.67036368462E+02 0.64163112090E+02
 0.60663439120E+02 0.56676403720E+02 0.52357630276E+02 0.47870340310E+02 0.43375525071E+02
 0.39021608849E+02 0.34933531845E+02 0.31202876704E+02 0.27882315472E+02 0.24987208118E+02
 0.22504255313E+02 0.20403589064E+02 0.18649216887E+02 0.17204458309E+02 0.16032599703E+02
 0.15095767694E+02 0.14355137994E+02 0.13773429903E+02 0.13318253119E+02 0.12964158475E+02
 0.12692402073E+02 0.12489126094E+02 0.12343442636E+02 0.12246446349E+02 0.12191222452E+02
 0.98650884337E+01 0.98921049025E+01 0.99749623433E+01 0.10118841934E+02 0.10331689347E+02
 0.10623655205E+02 0.11007252607E+02 0.11498713834E+02 0.12120181930E+02 0.12901376445E+02
 0.13879282674E+02 0.15095767694E+02 0.16594918271E+02 0.18422434967E+02 0.20627509398E+02
 0.23264394578E+02 0.26389155304E+02 0.30048947385E+02 0.34265873208E+02 0.39021608849E+02
 0.44249214250E+02 0.49834433250E+02 0.55623591428E+02 0.61433127393E+02 0.67058259581E+02
 0.72267973062E+02 0.76726103795E+02 0.80182648460E+02 0.82572289412E+02 0.83948779702E+02
 0.84395159454E+02 0.83948779702E+02 0.82572289412E+02 0.80182648460E+02 0.76726103795E+02
 0.72267973062E+02 0.67058259581E+02 0.61433127393E+02 0.55623591428E+02 0.49834433250E+02
 0.44249214250E+02 0.39021608849E+02 0.34265873208E+02 0.30048947385E+02 0.26389155304E+02
 0.23264394578E+02 0.20627509398E+02 0.18422434967E+02 0.16594918271E+02 0.15095767694E+02
 0.13879282674E+02 0.12901376445E+02 0.12120181930E+02 0.11498713834E+02 0.11007252607E+02
 0.10623655205E+02 0.10331689347E+02 0.10118841934E+02 0.99749623433E+01 0.98921049025E+01
 0.80664654549E+01 0.80993833526E+01 0.82002488565E+01 0.83750857253E+01 0.86330958898E+01
 0.89861014620E+01 0.94489455240E+01 0.10041201692E+02 0.10789476696E+02 0.11728717877E+02
 0.12901376445E+02 0.14355137994E+02 0.16141672704E+02 0.18318389240E+02 0.20952027741E+02
 0.24119345074E+02 0.27899622629E+02 0.32357841978E+02 0.37523737619E+02 0.43375525071E+02
 0.49834433250E+02 0.56768883342E+02 0.64001376140E+02 0.71311777512E+02 0.78306564537E+02
 0.84356053481E+02 0.89054302371E+02 0.92310975339E+02 0.94295225972E+02 0.95304791706E+02
 0.95606167570E+02 0.95304791706E+02 0.94295225972E+02 0.92310975339E+02 0.89054302371E+02
 0.84356053481E+02 0.78306564537E+02 0.71311777512E+02 0.64001376140E+02 0.56768883342E+02
 0.49834433250E+02 0.43375525071E+02 0.37523737619E+02 0.32357841978E+02 0.27899622629E+02
 0.24119345074E+02 0.20952027741E+02 0.18318389240E+02 0.16141672704E+02 0.14355137994E+02
 0.12901376445E+02 0.11728717877E+02 0.10789476696E+02 0.10041201692E+02 0.94489455240E+01
 0.89861014620E+01 0.86330958898E+01 0.83750857253E+01 0.82002488565E+01 0.80993833526E+01
 0.66730836392E+01 0.67098051192E+01 0.68223443282E+01 0.70174514358E+01 0.73054455848E+01
 0.76997840773E+01 0.82178283579E+01 0.88829016416E+01 0.97265659996E+01 0.10789476696E+02
 0.12120181930E+02 0.13773429903E+02 0.15810836342E+02 0.18305070239E+02 0.21344429944E+02
 0.25031274207E+02 0.29469165581E+02 0.34740213715E+02 0.40881418683E+02 0.47870340310E+02
 0.55623591428E+02 0.64001376140E+02 0.72803944747E+02 0.81497921632E+02 0.89125716237E+02
 0.94977542362E+02 0.98784800440E+02 0.10074104180E+03 0.10139060438E+03 0.10140966455E+03
 0.10134617504E+03 0.10140966455E+03 0.10139060438E+03 0.10074104180E+03 0.98784800440E+02
 0.94977542362E+02 0.89125716237E+02 0.81497921632E+02 0.72803944747E+02 0.64001376140E+02
 0.55623591428E+02 0.47870340310E+02 0.40881418683E+02 0.34740213715E+02 0.29469165581E+02
 0.25031274207E+02 0.21344429944E+02 0.18305070239E+02 0.15810836342E+02 0.13773429903E+02
 0.12120181930E+02 0.10789476696E+02 0.97265659996E+01 0.88829016416E+01 0.82178283579E+01
 0.76997840773E+01 0.73054455848E+01 0.70174514358E+01 0.68223443282E+01 0.67098051192E+01
 0.56026099983E+01 0.56416734898E+01 0.57614543772E+01 0.59692663667E+01 0.62762918155E+01
 0.66974257214E+01 0.72525390387E+01 0.79688269736E+01 0.88829016416E+01 0.10041201692E+02
 0.11498713834E+02 0.13318253119E+02 0.15573269782E+02 0.18354233625E+02 0.21773360227E+02
 0.25959680473E+02 0.31040407323E+02 0.37113717884E+02 0.44225158987E+02 0.52357630276E+02
 0.61433127393E+02 0.71311777512E+02 0.81497921632E+02 0.90735139083E+02 0.97863667050E+02
 0.10220382734E+03 0.10371899230E+03 0.10302200883E+03 0.10119643934E+03 0.99459351320E+02
 0.98760873250E+02 0.99459351320E+02 0.10119643934E+03 0.10302200883E+03 0.10371899230E+03
 0.10220382734E+03 0.97863667050E+02 0.90735139083E+02 0.81497921632E+02 0.71311777512E+02
 0.61433127393E+02 0.52357630276E+02 0.44225158987E+02 0.37113717884E+02 0.31040407323E+02
 0.25959680473E+02 0.21773360227E+02 0.18354233625E+02 0.15573269782E+02 0.13318253119E+02
 0.11498713834E+02 0.10041201692E+02 0.88829016416E+01 0.79688269736E+01 0.72525390387E+01
 0.66974257214E+01 0.62762918155E+01 0.59692663667E+01 0.57614543772E+01 0.56416734898E+01
 0.47884441584E+01 0.48287523232E+01 0.49524672197E+01 0.51673699079E+01 0.54853144296E+01
 0.59224803633E+01 0.65012191424E+01 0.72525390387E+01 0.82178283579E+01 0.94489455240E+01
 0.11007252607E+02 0.12964158475E+02 0.15406015705E+02 0.18442287468E+02 0.22209687910E+02
 0.26863206390E+02 0.32551972878E+02 0.39389387279E+02 0.47432300783E+02 0.56676403720E+02
 0.67058259581E+02 0.78306564537E+02 0.89125716237E+02 0.97863667050E+02 0.10323088309E+03
 0.10462258606E+03 0.10232159149E+03 0.97498640090E+02 0.91953397148E+02 0.87622973597E+02
 0.85993847260E+02 0.87622973597E+02 0.91953397148E+02 0.97498640090E+02 0.10232159149E+03
 0.10462258606E+03 0.10323088309E+03 0.97863667050E+02 0.89125716237E+02 0.78306564537E+02
 0.67058259581E+02 0.56676403720E+02 0.47432300783E+02 0.39389387279E+02 0.32551972878E+02
 0.26863206390E+02 0.22209687910E+02 0.18442287468E+02 0.15406015705E+02 0.12964158475E+02
 0.11007252607E+02 0.94489455240E+01 0.82178283579E+01 0.72525390387E+01 0.65012191424E+01
 0.59224803633E+01 0.54853144296E+01 0.51673699079E+01 0.49524672197E+01 0.48287523232E+01
 0.41763810096E+01 0.42171310772E+01 0.43423919779E+01 0.45604074505E+01 0.48836173568E+01
 0.53293929907E+01 0.59224803633E+01 0.66974257214E+01 0.76997840773E+01 0.89861014620E+01
 0.10623655205E+02 0.12692402073E+02 0.15291716237E+02 0.18549857866E+02 0.22626991775E+02
 0.27701949023E+02 0.33943397099E+02 0.41479353988E+02 0.50381097410E+02 0.60663439120E+02
 0.72267973062E+02 0.84356053481E+02 0.94977542362E+02 0.10220382734E+03 0.10462258606E+03
 0.10173197817E+03 0.94205226438E+02 0.83895028532E+02 0.73480336407E+02 0.65783854380E+02
 0.62951394721E+02 0.65783854380E+02 0.73480336407E+02 0.83895028532E+02 0.94205226438E+02
 0.10173197817E+03 0.10462258606E+03 0.10220382734E+03 0.94977542362E+02 0.84356053481E+02
 0.72267973062E+02 0.60663439120E+02 0.50381097410E+02 0.41479353988E+02 0.33943397099E+02
 0.27701949023E+02 0.22626991775E+02 0.18549857866E+02 0.15291716237E+02 0.12692402073E+02
 0.10623655205E+02 0.89861014620E+01 0.76997840773E+01 0.66974257214E+01 0.59224803633E+01
 0.53293929907E+01 0.48836173568E+01 0.45604074505E+01 0.43423919779E+01 0.42171310772E+01
 0.37236665440E+01 0.37643672084E+01 0.38897289837E+01 0.41084903005E+01 0.44336387613E+01
 0.48836173568E+01 0.54853144296E+01 0.62762918155E+01 0.73054455848E+01 0.86330958898E+01
 0.10331689347E+02 0.12489126094E+02 0.15216993887E+02 0.18660883587E+02 0.23001979052E+02
 0.28439772026E+02 0.35159649546E+02 0.43303464894E+02 0.52958954513E+02 0.64163112090E+02
 0.76726103795E+02 0.89054302371E+02 0.98784800440E+02 0.10371899230E+03 0.10232159149E+03
 0.94205226438E+02 0.80476150705E+02 0.63749985343E+02 0.47691509897E+02 0.36113884445E+02
 0.31897383929E+02 0.36113884445E+02 0.47691509897E+02 0.63749985343E+02 0.80476150705E+02
 0.94205226438E+02 0.10232159149E+03 0.10371899230E+03 0.98784800440E+02 0.89054302371E+02
 0.76726103795E+02 0.64163112090E+02 0.52958954513E+02 0.43303464894E+02 0.35159649546E+02
 0.28439772026E+02 0.23001979052E+02 0.18660883587E+02 0.15216993887E+02 0.12489126094E+02
 0.10331689347E+02 0.86330958898E+01 0.73054455848E+01 0.62762918155E+01 0.54853144296E+01
 0.48836173568E+01 0.44336387613E+01 0.41084903005E+01 0.38897289837E+01 0.37643672084E+01