   8   8   0   0
  0.2118964E+02  0.5534408E-09  0.5534408E-09  0.5534408E-09  0.5000000E-15
  1.000000000000000E-004
  CAR 
 GaAs                                    
      9.51164254    -10.88667094  301      3.32627894      1.00000000
    -10.887  0.0000E+00  0.0000E+00
    -10.819  0.0000E+00  0.0000E+00
    -10.751  0.0000E+00  0.0000E+00
    -10.683  0.0000E+00  0.0000E+00
    -10.615  0.0000E+00  0.0000E+00
    -10.547  0.0000E+00  0.0000E+00
    -10.479  0.0000E+00  0.0000E+00
    -10.411  0.0000E+00  0.0000E+00
    -10.343  0.0000E+00  0.0000E+00
    -10.275  0.0000E+00  0.0000E+00
    -10.207  0.0000E+00  0.0000E+00
    -10.139  0.0000E+00  0.0000E+00
    -10.071  0.0000E+00  0.0000E+00
    -10.003  0.0000E+00  0.0000E+00
     -9.935  0.0000E+00  0.0000E+00
     -9.867  0.6810E-02  0.4521E-04
     -9.799  0.1327E+00  0.3888E-02
     -9.731  0.4173E+00  0.2169E-01
     -9.663  0.7136E+00  0.6105E-01
     -9.595  0.8478E+00  0.1151E+00
     -9.527  0.8764E+00  0.1736E+00
     -9.459  0.9598E+00  0.2356E+00
     -9.391  0.1098E+01  0.3054E+00
     -9.323  0.1250E+01  0.3852E+00
     -9.255  0.1591E+01  0.4774E+00
     -9.187  0.2274E+01  0.6099E+00
     -9.119  0.2607E+01  0.7813E+00
     -9.051  0.2195E+01  0.9441E+00
     -8.983  0.1948E+01  0.1082E+01
     -8.915  0.1933E+01  0.1215E+01
     -8.847  0.1894E+01  0.1345E+01
     -8.779  0.1832E+01  0.1472E+01
     -8.711  0.2469E+01  0.1610E+01
     -8.643  0.1797E+01  0.1755E+01
     -8.575  0.9896E+00  0.1839E+01
     -8.507  0.1641E+01  0.1921E+01
     -8.439  0.2776E+01  0.2069E+01
     -8.371  0.3016E+01  0.2267E+01
     -8.303  0.3253E+01  0.2481E+01
     -8.235  0.3407E+01  0.2700E+01
     -8.167  0.3720E+01  0.2943E+01
     -8.099  0.7900E+01  0.3355E+01
     -8.031  0.5930E+01  0.3845E+01
     -7.963  0.4149E+01  0.4149E+01
     -7.895  0.3712E+01  0.4392E+01
     -7.827  0.4034E+01  0.4655E+01
     -7.759  0.5829E+01  0.4977E+01
     -7.691  0.6825E+01  0.5416E+01
     -7.623  0.7130E+01  0.5877E+01
     -7.555  0.7556E+01  0.6395E+01
     -7.487  0.5404E+01  0.6841E+01
     -7.419  0.4961E+01  0.7193E+01
     -7.351  0.4745E+01  0.7517E+01
     -7.283  0.3877E+01  0.7808E+01
     -7.215  0.9742E+00  0.8000E+01
     -7.147  0.0000E+00  0.8000E+01
     -7.079  0.0000E+00  0.8000E+01
     -7.011  0.0000E+00  0.8000E+01
     -6.943  0.0000E+00  0.8000E+01
     -6.875  0.0000E+00  0.8000E+01
     -6.807  0.0000E+00  0.8000E+01
     -6.739  0.0000E+00  0.8000E+01
     -6.671  0.0000E+00  0.8000E+01
     -6.603  0.0000E+00  0.8000E+01
     -6.535  0.0000E+00  0.8000E+01
     -6.467  0.0000E+00  0.8000E+01
     -6.399  0.0000E+00  0.8000E+01
     -6.331  0.0000E+00  0.8000E+01
     -6.263  0.0000E+00  0.8000E+01
     -6.195  0.0000E+00  0.8000E+01
     -6.127  0.0000E+00  0.8000E+01
     -6.059  0.0000E+00  0.8000E+01
     -5.991  0.0000E+00  0.8000E+01
     -5.923  0.0000E+00  0.8000E+01
     -5.855  0.0000E+00  0.8000E+01
     -5.787  0.0000E+00  0.8000E+01
     -5.719  0.0000E+00  0.8000E+01
     -5.651  0.0000E+00  0.8000E+01
     -5.583  0.0000E+00  0.8000E+01
     -5.515  0.0000E+00  0.8000E+01
     -5.447  0.0000E+00  0.8000E+01
     -5.379  0.0000E+00  0.8000E+01
     -5.311  0.0000E+00  0.8000E+01
     -5.243  0.0000E+00  0.8000E+01
     -5.175  0.0000E+00  0.8000E+01
     -5.107  0.0000E+00  0.8000E+01
     -5.039  0.0000E+00  0.8000E+01
     -4.971  0.0000E+00  0.8000E+01
     -4.903  0.0000E+00  0.8000E+01
     -4.835  0.0000E+00  0.8000E+01
     -4.767  0.0000E+00  0.8000E+01
     -4.699  0.0000E+00  0.8000E+01
     -4.631  0.0000E+00  0.8000E+01
     -4.563  0.0000E+00  0.8000E+01
     -4.495  0.0000E+00  0.8000E+01
     -4.427  0.0000E+00  0.8000E+01
     -4.359  0.0000E+00  0.8000E+01
     -4.291  0.0000E+00  0.8000E+01
     -4.223  0.0000E+00  0.8000E+01
     -4.155  0.0000E+00  0.8000E+01
     -4.087  0.0000E+00  0.8000E+01
     -4.019  0.0000E+00  0.8000E+01
     -3.951  0.0000E+00  0.8000E+01
     -3.883  0.0000E+00  0.8000E+01
     -3.815  0.0000E+00  0.8000E+01
     -3.747  0.4256E+00  0.8007E+01
     -3.679  0.1546E+01  0.8080E+01
     -3.611  0.2132E+01  0.8198E+01
     -3.543  0.6178E+01  0.8462E+01
     -3.475  0.9716E+01  0.8966E+01
     -3.407  0.9676E+01  0.9832E+01
     -3.339  0.8846E+01  0.1042E+02
     -3.271  0.7455E+01  0.1101E+02
     -3.203  0.5589E+01  0.1145E+02
     -3.135  0.4648E+01  0.1180E+02
     -3.067  0.3447E+01  0.1205E+02
     -2.999  0.2649E+01  0.1225E+02
     -2.931  0.2583E+01  0.1243E+02
     -2.863  0.2521E+01  0.1260E+02
     -2.795  0.2463E+01  0.1277E+02
     -2.727  0.2409E+01  0.1293E+02
     -2.659  0.2359E+01  0.1310E+02
     -2.591  0.2314E+01  0.1326E+02
     -2.523  0.1860E+01  0.1339E+02
     -2.455  0.1824E+01  0.1351E+02
     -2.387  0.1783E+01  0.1364E+02
     -2.319  0.1714E+01  0.1375E+02
     -2.251  0.1655E+01  0.1387E+02
     -2.183  0.1578E+01  0.1398E+02
     -2.115  0.1494E+01  0.1408E+02
     -2.047  0.1403E+01  0.1418E+02
     -1.979  0.1305E+01  0.1427E+02
     -1.911  0.1255E+01  0.1436E+02
     -1.843  0.1126E+01  0.1444E+02
     -1.775  0.1015E+01  0.1452E+02
     -1.707  0.9224E+00  0.1458E+02
     -1.639  0.7627E+00  0.1464E+02
     -1.571  0.7941E+00  0.1470E+02
     -1.503  0.8266E+00  0.1475E+02
     -1.435  0.8599E+00  0.1481E+02
     -1.367  0.8942E+00  0.1487E+02
     -1.299  0.9294E+00  0.1493E+02
     -1.231  0.9771E+00  0.1500E+02
     -1.163  0.1040E+01  0.1506E+02
     -1.095  0.1117E+01  0.1514E+02
     -1.027  0.1209E+01  0.1522E+02
     -0.959  0.1316E+01  0.1530E+02
     -0.891  0.1225E+01  0.1539E+02
     -0.824  0.1521E+01  0.1548E+02
     -0.756  0.1824E+01  0.1560E+02
     -0.688  0.2217E+01  0.1573E+02
     -0.620  0.2584E+01  0.1590E+02
     -0.552  0.6974E+01  0.1626E+02
     -0.484  0.6716E+01  0.1679E+02
     -0.416  0.6163E+01  0.1722E+02
     -0.348  0.5432E+01  0.1762E+02
     -0.280  0.4934E+01  0.1796E+02
     -0.212  0.4597E+01  0.1829E+02
     -0.144  0.4031E+01  0.1859E+02
     -0.076  0.3932E+01  0.1886E+02
     -0.008  0.3892E+01  0.1913E+02
      0.060  0.4528E+01  0.1940E+02
      0.128  0.4315E+01  0.1972E+02
      0.196  0.4022E+01  0.1999E+02
      0.264  0.4207E+01  0.2027E+02
      0.332  0.4399E+01  0.2056E+02
      0.400  0.5657E+01  0.2089E+02
      0.468  0.6709E+01  0.2130E+02
      0.536  0.7287E+01  0.2179E+02
      0.604  0.6222E+01  0.2225E+02
      0.672  0.7436E+01  0.2272E+02
      0.740  0.6602E+01  0.2319E+02
      0.808  0.5728E+01  0.2361E+02
      0.876  0.5099E+01  0.2399E+02
      0.944  0.4701E+01  0.2432E+02
      1.012  0.4411E+01  0.2463E+02
      1.080  0.4228E+01  0.2493E+02
      1.148  0.4778E+01  0.2523E+02
      1.216  0.5239E+01  0.2557E+02
      1.284  0.5886E+01  0.2599E+02
      1.352  0.5049E+01  0.2632E+02
      1.420  0.5343E+01  0.2668E+02
      1.488  0.6547E+01  0.2706E+02
      1.556  0.8736E+01  0.2753E+02
      1.624  0.5506E+01  0.2805E+02
      1.692  0.4858E+01  0.2840E+02
      1.760  0.4222E+01  0.2871E+02
      1.828  0.3598E+01  0.2898E+02
      1.896  0.3110E+01  0.2920E+02
      1.964  0.2218E+01  0.2936E+02
      2.032  0.2441E+01  0.2951E+02
      2.100  0.3193E+01  0.2970E+02
      2.168  0.4648E+01  0.2998E+02
      2.236  0.4758E+01  0.3028E+02
      2.304  0.5232E+01  0.3062E+02
      2.372  0.5398E+01  0.3098E+02
      2.440  0.3351E+01  0.3128E+02
      2.508  0.1607E+01  0.3141E+02
      2.576  0.1409E+01  0.3151E+02
      2.644  0.1215E+01  0.3160E+02
      2.712  0.1026E+01  0.3168E+02
      2.780  0.8662E+00  0.3174E+02
      2.848  0.9413E+00  0.3180E+02
      2.916  0.9223E+00  0.3187E+02
      2.984  0.7778E+00  0.3193E+02
      3.052  0.5079E+00  0.3197E+02
      3.120  0.1448E+00  0.3199E+02
      3.188  0.5485E-01  0.3200E+02
      3.256  0.7720E-02  0.3200E+02
      3.324  0.0000E+00  0.3200E+02
      3.392  0.0000E+00  0.3200E+02
      3.460  0.0000E+00  0.3200E+02
      3.528  0.0000E+00  0.3200E+02
      3.596  0.0000E+00  0.3200E+02
      3.664  0.0000E+00  0.3200E+02
      3.732  0.0000E+00  0.3200E+02
      3.800  0.0000E+00  0.3200E+02
      3.868  0.0000E+00  0.3200E+02
      3.936  0.0000E+00  0.3200E+02
      4.004  0.0000E+00  0.3200E+02
      4.072  0.0000E+00  0.3200E+02
      4.140  0.0000E+00  0.3200E+02
      4.208  0.0000E+00  0.3200E+02
      4.276  0.0000E+00  0.3200E+02
      4.344  0.0000E+00  0.3200E+02
      4.412  0.3510E-02  0.3200E+02
      4.480  0.2930E-01  0.3200E+02
      4.548  0.8013E-01  0.3200E+02
      4.616  0.4969E+00  0.3203E+02
      4.684  0.3527E+00  0.3205E+02
      4.752  0.4566E+00  0.3208E+02
      4.820  0.5875E+00  0.3211E+02
      4.888  0.7453E+00  0.3216E+02
      4.956  0.9303E+00  0.3221E+02
      5.024  0.1128E+01  0.3229E+02
      5.092  0.1245E+01  0.3237E+02
      5.160  0.1407E+01  0.3246E+02
      5.228  0.1666E+01  0.3256E+02
      5.296  0.2021E+01  0.3268E+02
      5.364  0.4038E+01  0.3290E+02
      5.432  0.5293E+01  0.3319E+02
      5.500  0.4810E+01  0.3355E+02
      5.568  0.6253E+01  0.3393E+02
      5.636  0.7241E+01  0.3439E+02
      5.704  0.8111E+01  0.3491E+02
      5.772  0.9523E+01  0.3549E+02
      5.840  0.6360E+01  0.3618E+02
      5.908  0.5383E+01  0.3657E+02
      5.976  0.5339E+01  0.3693E+02
      6.044  0.5252E+01  0.3729E+02
      6.112  0.5162E+01  0.3765E+02
      6.180  0.4430E+01  0.3797E+02
      6.248  0.9342E+01  0.3837E+02
      6.316  0.7013E+01  0.3887E+02
      6.384  0.4017E+01  0.3930E+02
      6.452  0.3824E+01  0.3957E+02
      6.520  0.3648E+01  0.3982E+02
      6.588  0.3490E+01  0.4006E+02
      6.656  0.3410E+01  0.4030E+02
      6.724  0.3342E+01  0.4053E+02
      6.792  0.3285E+01  0.4075E+02
      6.860  0.2647E+01  0.4097E+02
      6.928  0.2112E+01  0.4112E+02
      6.996  0.2260E+01  0.4127E+02
      7.064  0.2413E+01  0.4143E+02
      7.132  0.2572E+01  0.4160E+02
      7.200  0.2792E+01  0.4178E+02
      7.268  0.3486E+01  0.4198E+02
      7.336  0.3895E+01  0.4227E+02
      7.404  0.4764E+01  0.4256E+02
      7.472  0.5844E+01  0.4292E+02
      7.540  0.9897E+01  0.4336E+02
      7.608  0.9470E+01  0.4403E+02
      7.676  0.6397E+01  0.4458E+02
      7.744  0.4506E+01  0.4494E+02
      7.812  0.3402E+01  0.4519E+02
      7.880  0.2731E+01  0.4540E+02
      7.948  0.3069E+01  0.4559E+02
      8.016  0.3455E+01  0.4581E+02
      8.084  0.5888E+01  0.4616E+02
      8.152  0.6655E+01  0.4660E+02
      8.220  0.5943E+01  0.4704E+02
      8.288  0.4490E+01  0.4739E+02
      8.356  0.3559E+01  0.4766E+02
      8.424  0.2430E+01  0.4787E+02
      8.492  0.9791E+00  0.4799E+02
      8.560  0.0000E+00  0.4800E+02
      8.628  0.0000E+00  0.4800E+02
      8.696  0.0000E+00  0.4800E+02
      8.764  0.0000E+00  0.4800E+02
      8.832  0.0000E+00  0.4800E+02
      8.900  0.0000E+00  0.4800E+02
      8.968  0.0000E+00  0.4800E+02
      9.036  0.0000E+00  0.4800E+02
      9.104  0.0000E+00  0.4800E+02
      9.172  0.0000E+00  0.4800E+02
      9.240  0.0000E+00  0.4800E+02
      9.308  0.0000E+00  0.4800E+02
      9.376  0.0000E+00  0.4800E+02
      9.444  0.0000E+00  0.4800E+02
      9.512  0.0000E+00  0.4800E+02
