       N       E                     dE             d eps       ncg     rms          rms(c)
DAV:   1    -0.325348090410E+02   -0.32535E+02   -0.87373E-06   312   0.162E-02    0.265E-03
DAV:   2    -0.325348086404E+02    0.40060E-06   -0.89214E-07   312   0.487E-03
   1 F= -.32534809E+02 E0= -.32534809E+02  d E =0.000000E+00
 imaginary and real dielectric function
