 vasp.6.4.3 19Mar24 (build Aug 29 2024 15:27:20) complex                        
  
 executed on             LinuxIFC date 2025.03.19  10:34:07
 running    8 mpi-ranks, on    1 nodes
 distrk:  each k-point on    8 cores,    1 groups
 distr:  one band on NCORE=   1 cores,    8 groups


--------------------------------------------------------------------------------------------------------


 INCAR:
   SYSTEM = GaAs
   PREC = Normal
   ENCUT = 500
   ISMEAR = -5
   SIGMA = 0.1
   IBRION = 2
   LOPTICS = .TRUE.

 POTCAR:    PAW_PBE As 22Sep2009                  
 POTCAR:    PAW_PBE Ga 08Apr2002                  
 -----------------------------------------------------------------------------
|                                                                             |
|           W    W    AA    RRRRR   N    N  II  N    N   GGGG   !!!           |
|           W    W   A  A   R    R  NN   N  II  NN   N  G    G  !!!           |
|           W    W  A    A  R    R  N N  N  II  N N  N  G       !!!           |
|           W WW W  AAAAAA  RRRRR   N  N N  II  N  N N  G  GGG   !            |
|           WW  WW  A    A  R   R   N   NN  II  N   NN  G    G                |
|           W    W  A    A  R    R  N    N  II  N    N   GGGG   !!!           |
|                                                                             |
|     For optimal performance we recommend to set                             |
|       NCORE = 2 up to number-of-cores-per-socket                            |
|     NCORE specifies how many cores store one orbital (NPAR=cpu/NCORE).      |
|     This setting can greatly improve the performance of VASP for DFT.       |
|     The default, NCORE=1 might be grossly inefficient on modern             |
|     multi-core architectures or massively parallel machines. Do your        |
|     own testing! More info at https://www.vasp.at/wiki/index.php/NCORE      |
|     Unfortunately you need to use the default for GW and RPA                |
|     calculations (for HF NCORE is supported but not extensively tested      |
|     yet).                                                                   |
|                                                                             |
 -----------------------------------------------------------------------------

 POTCAR:    PAW_PBE As 22Sep2009                  
   VRHFIN =As: s2p3                                                                                 
   LEXCH  = PE                                                                                      
   EATOM  =   170.1867 eV,   12.5084 Ry                                                             
                                                                                                    
   TITEL  = PAW_PBE As 22Sep2009                                                                    
   LULTRA =        F    use ultrasoft PP ?                                                          
   IUNSCR =        1    unscreen: 0-lin 1-nonlin 2-no                                               
   RPACOR =    1.900    partial core radius                                                         
   POMASS =   74.922; ZVAL   =    5.000    mass and valenz                                          
   RCORE  =    2.100    outmost cutoff radius                                                       
   RWIGS  =    2.300; RWIGS  =    1.217    wigner-seitz radius (au A)                               
   ENMAX  =  208.702; ENMIN  =  156.526 eV                                                          
   ICORE  =        3    local potential                                                             
   LCOR   =        T    correct aug charges                                                         
   LPAW   =        T    paw PP                                                                      
   EAUG   =  462.758                                                                                
   DEXC   =    0.000                                                                                
   RMAX   =    2.144    core radius for proj-oper                                                   
   RAUG   =    1.300    factor for augmentation sphere                                              
   RDEP   =    2.140    radius for radial grids                                                     
   RDEPT  =    1.956    core radius for aug-charge                                                  
                                                                                                    
   Atomic configuration                                                                             
   10 entries                                                                                       
     n  l   j            E        occ.                                                              
     1  0  0.50    -11718.0418   2.0000                                                             
     2  0  0.50     -1486.5454   2.0000                                                             
     2  1  1.50     -1303.3889   6.0000                                                             
     3  0  0.50      -190.2849   2.0000                                                             
     3  1  1.50      -133.6555   6.0000                                                             
     3  2  2.50       -40.6443  10.0000                                                             
     4  0  0.50       -14.4936   2.0000                                                             
     4  1  0.50        -5.1947   3.0000                                                             
     4  2  1.50        -5.4423   0.0000                                                             
     4  3  2.50        -5.4423   0.0000                                                             
   Description                                                                                      
     l       E           TYP  RCUT    TYP  RCUT                                                     
     0    -14.4935570     23  2.100                                                                 
     0    -11.9212055     23  2.100                                                                 
     1     -5.1947127     23  2.100                                                                 
     1     27.2116520     23  2.100                                                                 
     2     -5.4423304     23  2.100                                                                 
     3     -1.3605826      7  2.100                                                                 
  local pseudopotential read in
  partial core-charges read in
  partial kinetic energy density read in
  atomic valenz-charges read in
  non local Contribution for L=           0  read in
    real space projection operators read in
  non local Contribution for L=           0  read in
    real space projection operators read in
  non local Contribution for L=           1  read in
    real space projection operators read in
  non local Contribution for L=           1  read in
    real space projection operators read in
  non local Contribution for L=           2  read in
    real space projection operators read in
    PAW grid and wavefunctions read in
 
   number of l-projection  operators is LMAX  =           5
   number of lm-projection operators is LMMAX =          13
 
 POTCAR:    PAW_PBE Ga 08Apr2002                  
   VRHFIN =Ga: s2p1                                                                                 
   LEXCH  = PE                                                                                      
   EATOM  =    58.8688 eV,    4.3267 Ry                                                             
                                                                                                    
   TITEL  = PAW_PBE Ga 08Apr2002                                                                    
   LULTRA =        F    use ultrasoft PP ?                                                          
   IUNSCR =        1    unscreen: 0-lin 1-nonlin 2-no                                               
   RPACOR =    2.170    partial core radius                                                         
   POMASS =   69.723; ZVAL   =    3.000    mass and valenz                                          
   RCORE  =    2.600    outmost cutoff radius                                                       
   RWIGS  =    2.650; RWIGS  =    1.402    wigner-seitz radius (au A)                               
   ENMAX  =  134.678; ENMIN  =  101.009 eV                                                          
   ICORE  =        3    local potential                                                             
   LCOR   =        T    correct aug charges                                                         
   LPAW   =        T    paw PP                                                                      
   EAUG   =  320.264                                                                                
   DEXC   =    0.000                                                                                
   RMAX   =    2.658    core radius for proj-oper                                                   
   RAUG   =    1.300    factor for augmentation sphere                                              
   RDEP   =    2.684    radius for radial grids                                                     
   RDEPT  =    2.308    core radius for aug-charge                                                  
                                                                                                    
   Atomic configuration                                                                             
   10 entries                                                                                       
     n  l   j            E        occ.                                                              
     1  0  0.50    -10228.7830   2.0000                                                             
     2  0  0.50     -1262.1604   2.0000                                                             
     2  1  1.50     -1098.6333   6.0000                                                             
     3  0  0.50      -148.1110   2.0000                                                             
     3  1  1.50       -98.8436   6.0000                                                             
     3  2  2.50       -19.1549  10.0000                                                             
     4  0  0.50        -8.9483   2.0000                                                             
     4  1  0.50        -2.5791   1.0000                                                             
     4  2  1.50         5.4423   0.0000                                                             
     4  3  2.50        -2.7416   0.0000                                                             
   Description                                                                                      
     l       E           TYP  RCUT    TYP  RCUT                                                     
     0     -8.9483097     23  2.600                                                                 
     0     -5.8232215     23  2.600                                                                 
     1     -2.5790793     23  2.600                                                                 
     1      5.2230115     23  2.600                                                                 
     2      1.3605826     23  2.600                                                                 
     3     -1.3605826      7  2.600                                                                 
  local pseudopotential read in
  partial core-charges read in
  partial kinetic energy density read in
  atomic valenz-charges read in
  non local Contribution for L=           0  read in
    real space projection operators read in
  non local Contribution for L=           0  read in
    real space projection operators read in
  non local Contribution for L=           1  read in
    real space projection operators read in
  non local Contribution for L=           1  read in
    real space projection operators read in
  non local Contribution for L=           2  read in
    real space projection operators read in
    PAW grid and wavefunctions read in
 
   number of l-projection  operators is LMAX  =           5
   number of lm-projection operators is LMMAX =          13
 
  PAW_PBE As 22Sep2009                  :
 energy of atom  1       EATOM= -170.1867
 kinetic energy error for atom=    0.0005 (will be added to EATOM!!)
  PAW_PBE Ga 08Apr2002                  :
 energy of atom  2       EATOM=  -58.8688
 kinetic energy error for atom=    0.0000 (will be added to EATOM!!)
 
 
 POSCAR: cubic gallium arsenide
  positions in direct lattice
  velocities in cartesian coordinates


 exchange-correlation table for PE
   RHO(1)=    0.500       N(1)  =     2000
   RHO(2)=  100.500       N(2)  =     4000
 


--------------------------------------------------------------------------------------------------------


 ion  position               nearest neighbor table
   1  0.000  0.000  0.000-   5 2.40   6 2.40   7 2.40   8 2.40
   2  0.500  0.500  0.000-   5 2.40   6 2.40   7 2.40   8 2.40
   3  0.500  0.000  0.500-   5 2.40   6 2.40   7 2.40   8 2.40
   4  0.000  0.500  0.500-   5 2.40   6 2.40   7 2.40   8 2.40
   5  0.250  0.250  0.250-   1 2.40   2 2.40   3 2.40   4 2.40
   6  0.750  0.250  0.750-   1 2.40   2 2.40   3 2.40   4 2.40
   7  0.750  0.750  0.250-   1 2.40   2 2.40   3 2.40   4 2.40
   8  0.250  0.750  0.750-   1 2.40   2 2.40   3 2.40   4 2.40
 
  LATTYP: Found a simple cubic cell.
 ALAT       =     5.5344079774
  
  Lattice vectors:
  
 A1 = (   5.5344079774,   0.0000000000,   0.0000000000)
 A2 = (   0.0000000000,   5.5344079774,   0.0000000000)
 A3 = (   0.0000000000,   0.0000000000,   5.5344079774)


Analysis of symmetry for initial positions (statically):
=====================================================================
 Subroutine PRICEL returns following result:
 
  LATTYP: Found a face centered cubic cell.
 ALAT       =     5.5344079774
  
  Lattice vectors:
  
 A1 = (   2.7672039887,  -2.7672039887,   0.0000000000)
 A2 = (   2.7672039887,   0.0000000000,   2.7672039887)
 A3 = (   0.0000000000,  -2.7672039887,   2.7672039887)
 
   4 primitive cells build up your supercell.
 

 Routine SETGRP: Setting up the symmetry group for a 
 simple cubic supercell.


 Subroutine GETGRP returns: Found 24 space group operations
 (whereof 24 operations were pure point group operations)
 out of a pool of 48 trial point group operations.


The static configuration has the point symmetry T_d .


Analysis of symmetry for dynamics (positions and initial velocities):
=====================================================================
 Subroutine PRICEL returns following result:
 
  LATTYP: Found a face centered cubic cell.
 ALAT       =     5.5344079774
  
  Lattice vectors:
  
 A1 = (   2.7672039887,  -2.7672039887,   0.0000000000)
 A2 = (   2.7672039887,   0.0000000000,   2.7672039887)
 A3 = (   0.0000000000,  -2.7672039887,   2.7672039887)
 
   4 primitive cells build up your supercell.
 

 Routine SETGRP: Setting up the symmetry group for a 
 simple cubic supercell.


 Subroutine GETGRP returns: Found 24 space group operations
 (whereof 24 operations were pure point group operations)
 out of a pool of 48 trial point group operations.


The dynamic configuration has the point symmetry T_d .


 Subroutine INISYM returns: Found 24 space group operations
 (whereof 24 operations are pure point group operations),
 and found     4 'primitive' translations


----------------------------------------------------------------------------------------

                                     Primitive cell                                     

  volume of cell :      42.3793

  direct lattice vectors                    reciprocal lattice vectors
     2.767203989 -2.767203989  0.000000000     0.180687800 -0.180687800 -0.180687800
     2.767203989  0.000000000  2.767203989     0.180687800  0.180687800  0.180687800
     0.000000000 -2.767203989  2.767203989    -0.180687800 -0.180687800  0.180687800

  length of vectors
     3.913417411  3.913417411  3.913417411     0.312960449  0.312960449  0.312960449

  position of ions in fractional coordinates (direct lattice)
     0.000000000  0.000000000  0.000000000
     0.750000000  0.750000000  0.750000000

  ion indices of the primitive-cell ions
   primitive index   ion index
                 1           1
                 2           5

----------------------------------------------------------------------------------------

 
 
 KPOINTS: Automatic mesh                          

Automatic generation of k-mesh.
 Grid dimensions read from file:
 generate k-points for:    5    5    5

 Generating k-lattice:

  Cartesian coordinates                     Fractional coordinates (reciprocal lattice)
     0.036137560  0.000000000  0.000000000     0.200000000  0.000000000  0.000000000
     0.000000000  0.036137560  0.000000000     0.000000000  0.200000000  0.000000000
     0.000000000  0.000000000  0.036137560     0.000000000  0.000000000  0.200000000

  Length of vectors
     0.036137560  0.036137560  0.036137560

  Shift w.r.t. Gamma in fractional coordinates (k-lattice)
     0.000000000  0.000000000  0.000000000

 TETIRR: Found     57 inequivalent tetrahedra from      750
 
 Subroutine IBZKPT returns following result:
 ===========================================
 
 Found     10 irreducible k-points:
 
 Following reciprocal coordinates:
            Coordinates               Weight
  0.000000  0.000000  0.000000      1.000000
  0.200000  0.000000  0.000000      6.000000
  0.400000  0.000000  0.000000      6.000000
  0.200000  0.200000  0.000000     12.000000
  0.400000  0.200000  0.000000     24.000000
  0.400000  0.400000  0.000000     12.000000
  0.200000  0.200000  0.200000      8.000000
  0.400000  0.200000  0.200000     24.000000
  0.400000  0.400000  0.200000     24.000000
  0.400000  0.400000  0.400000      8.000000
 
 Following cartesian coordinates:
            Coordinates               Weight
  0.000000  0.000000  0.000000      1.000000
  0.162619  0.000000  0.000000      6.000000
  0.325238  0.000000  0.000000      6.000000
  0.162619  0.162619  0.000000     12.000000
  0.325238  0.162619  0.000000     24.000000
  0.325238  0.325238  0.000000     12.000000
  0.162619  0.162619  0.162619      8.000000
  0.325238  0.162619  0.162619     24.000000
  0.325238  0.325238  0.162619     24.000000
  0.325238  0.325238  0.325238      8.000000
 


--------------------------------------------------------------------------------------------------------




 Dimension of arrays:
   k-points           NKPTS =     10   k-points in BZ     NKDIM =     10   number of bands    NBANDS=     24
   number of dos      NEDOS =    301   number of ions     NIONS =      8
   non local maximal  LDIM  =      5   non local SUM 2l+1 LMDIM =     13
   total plane-waves  NPLWV =  27000
   max r-space proj   IRMAX =      1   max aug-charges    IRDMAX=  11646
   dimension x,y,z NGX =    30 NGY =   30 NGZ =   30
   dimension x,y,z NGXF=    60 NGYF=   60 NGZF=   60
   support grid    NGXF=    60 NGYF=   60 NGZF=   60
   ions per type =               4   4
   NGX,Y,Z   is equivalent  to a cutoff of   9.01,  9.01,  9.01 a.u.
   NGXF,Y,Z  is equivalent  to a cutoff of  18.02, 18.02, 18.02 a.u.

 SYSTEM =  GaAs                                    
 POSCAR =  cubic gallium arsenide                  

 Startparameter for this run:
   NWRITE =      2    write-flag & timer
   PREC   = normal    normal or accurate (medium, high low for compatibility)
   ISTART =      1    job   : 0-new  1-cont  2-samecut
   ICHARG =      0    charge: 1-file 2-atom 10-const
   ISPIN  =      1    spin polarized calculation?
   LNONCOLLINEAR =      F non collinear calculations
   LSORBIT =      F    spin-orbit coupling
   INIWAV =      1    electr: 0-lowe 1-rand  2-diag
   LASPH  =      F    aspherical Exc in radial PAW
 Electronic Relaxation 1
   ENCUT  =  500.0 eV  36.75 Ry    6.06 a.u.  10.09 10.09 10.09*2*pi/ulx,y,z
   ENINI  =  500.0     initial cutoff
   ENAUG  =  462.8 eV  augmentation charge cutoff
   NELM   =     60;   NELMIN=  2; NELMDL=  0     # of ELM steps 
   EDIFF  = 0.1E-03   stopping-criterion for ELM
   LREAL  =      F    real-space projection
   NLSPLINE    = F    spline interpolate recip. space projectors
   LCOMPAT=      F    compatible to vasp.4.4
   GGA_COMPAT  = T    GGA compatible to vasp.4.4-vasp.4.6
   LMAXPAW     = -100 max onsite density
   LMAXMIX     =    2 max onsite mixed and CHGCAR
   VOSKOWN=      0    Vosko Wilk Nusair interpolation
   ROPT   =    0.00000   0.00000
 Ionic relaxation
   EDIFFG = 0.1E-02   stopping-criterion for IOM
   NSW    =      0    number of steps for IOM
   NBLOCK =      1;   KBLOCK =      1    inner block; outer block 
   IBRION =     -1    ionic relax: 0-MD 1-quasi-New 2-CG
   NFREE  =      1    steps in history (QN), initial steepest desc. (CG)
   ISIF   =      2    stress and relaxation
   IWAVPR =     10    prediction:  0-non 1-charg 2-wave 3-comb
   ISYM   =      2    0-nonsym 1-usesym 2-fastsym
   LCORR  =      T    Harris-Foulkes like correction to forces

   POTIM  = 0.5000    time-step for ionic-motion
   TEIN   =    0.0    initial temperature
   TEBEG  =    0.0;   TEEND  =   0.0 temperature during run
   SMASS  =  -3.00    Nose mass-parameter (am)
   estimated Nose-frequenzy (Omega)   =  0.10E-29 period in steps = 0.13E+47 mass=  -0.700E-27a.u.
   SCALEE = 1.0000    scale energy and forces
   NPACO  =    256;   APACO  = 10.0  distance and # of slots for P.C.
   PSTRESS=    0.0 pullay stress

  Mass of Ions in am
   POMASS =  74.92 69.72
  Ionic Valenz
   ZVAL   =   5.00  3.00
  Atomic Wigner-Seitz radii
   RWIGS  =  -1.00 -1.00
  virtual crystal weights 
   VCA    =   1.00  1.00
   NELECT =      32.0000    total number of electrons
   NUPDOWN=      -1.0000    fix difference up-down

 DOS related values:
   EMIN   =  10.00;   EMAX   =-10.00  energy-range for DOS
   EFERMI =   0.00;   METHOD = LEGACY      
   ISMEAR =    -5;   SIGMA  =   0.10  broadening in eV -4-tet -1-fermi 0-gaus

 Electronic relaxation 2 (details)
   IALGO  =     38    algorithm
   LDIAG  =      T    sub-space diagonalisation (order eigenvalues)
   LSUBROT=      F    optimize rotation matrix (better conditioning)
   TURBO    =      0    0=normal 1=particle mesh
   IRESTART =      0    0=no restart 2=restart with 2 vectors
   NREBOOT  =      0    no. of reboots
   NMIN     =      0    reboot dimension
   EREF     =   0.00    reference energy to select bands
   IMIX   =      4    mixing-type and parameters
     AMIX     =   0.40;   BMIX     =  1.00
     AMIX_MAG =   1.60;   BMIX_MAG =  1.00
     AMIN     =   0.10
     WC   =   100.;   INIMIX=   1;  MIXPRE=   1;  MAXMIX= -45

 Intra band minimization:
   WEIMIN = 0.0000     energy-eigenvalue tresh-hold
   EBREAK =  0.10E-05  absolut break condition
   DEPER  =   0.30     relativ break condition  

   TIME   =   0.40     timestep for ELM

  volume/ion in A,a.u.               =      21.19       142.99
  Fermi-wavevector in a.u.,A,eV,Ry     =   0.939118  1.774676 11.999566  0.881943
  Thomas-Fermi vector in A             =   2.066398
 
 Write flags
   LWAVE        =      T    write WAVECAR
   LDOWNSAMPLE  =      F    k-point downsampling of WAVECAR
   LCHARG       =      T    write CHGCAR
   LVTOT        =      F    write LOCPOT, total local potential
   LVHAR        =      F    write LOCPOT, Hartree potential only
   WRT_POTENTIAL= false  ! write potential to hdf5 file
   LELF         =      F    write electronic localiz. function (ELF)
   LORBIT       =      0    0 simple, 1 ext, 2 COOP (PROOUT), +10 PAW based schemes


 Dipole corrections
   LMONO      =      F    monopole corrections only (constant potential shift)
   LDIPOL     =      F    correct potential (dipole corrections)
   IDIPOL     =      0    1-x, 2-y, 3-z, 4-all directions 
   EPSILON    =  1.0000000 bulk dielectric constant
   LVACPOTAV  =      F  vacuum potentials using an averaging scheme for the charge density
   VACPOTFLAT =  0.1000000 required flatness to determine vacuum potential
 Exchange correlation treatment:
   GGA     = PE    functional components
   XC_C    = 1    coefficients multiplying the functional components
   LIBXC   =     F    Libxc                    
   VOSKOWN =     0    Vosko Wilk Nusair interpolation
   LHFCALC =     F    Hartree Fock is set to
   LHFONE  =     F    Hartree Fock one center treatment
   AEXX    =    0.0000 exact exchange contribution

 Parameters of functionals:
   PE:
     No parameter
 
 Van der Waals corrections
   IVDW    =     0    specifies the selected vdW correction

 Linear response parameters
   LEPSILON=     F    determine dielectric tensor
   LRPA    =     F    only Hartree local field effects (RPA)
   LNABLA  =     F    use nabla operator in PAW spheres
   LVEL    =     F    velocity operator in full k-point grid
   CSHIFT  =0.1000    complex shift for real part using Kramers Kronig
   OMEGAMAX=  -1.0    maximum frequency
   DEG_THRESHOLD= 0.2000000E-02 threshold for treating states as degnerate
   RTIME   =   -0.100 relaxation time in fs
  (WPLASMAI=    0.000 imaginary part of plasma frequency in eV, 0.658/RTIME)
   DFIELD  = 0.0000000 0.0000000 0.0000000 field for delta impulse in time
 
  Optional k-point grid parameters
   LKPOINTS_OPT  =     F    use optional k-point grid
   KPOINTS_OPT_MODE=     1    mode for optional k-point grid
 
 Orbital magnetization related:
   ORBITALMAG=     F  switch on orbital magnetization
   LCHIMAG   =     F  perturbation theory with respect to B field
   DQ        =  0.001000  dq finite difference perturbation B field
   LLRAUG    =     F  two centre corrections for induced B field
   LBONE     =     F  B-component reconstruction in AE one-centre
   LVGVCALC  =     T  calculate vGv susceptibility
   LVGVAPPL  =     F  apply vGv susceptibility instead of pGv for G=0

 Random number generation:
   RANDOM_GENERATOR = DEFAULT
   PCG_SEED         = not used


--------------------------------------------------------------------------------------------------------


 Static calculation
 charge density and potential will be updated during run
 non-spin polarized calculation
 Variant of blocked Davidson
 Davidson routine will perform the subspace rotation
 perform sub-space diagonalisation
    after iterative eigenvector-optimisation
 modified Broyden-mixing scheme, WC =      100.0
 initial mixing is a Kerker type mixing with AMIX =  0.4000 and BMIX =      1.0000
 Hartree-type preconditioning will be used
 using additional bands            8
 reciprocal scheme for non local part
 use partial core corrections
 calculate Harris-corrections to forces 
   (improved forces if not selfconsistent)
 use gradient corrections 
 use of overlap-Matrix (Vanderbilt PP)
 Fermi weights with tetrahedron method with Bloechl corrections


--------------------------------------------------------------------------------------------------------


  energy-cutoff  :      500.00
  volume of cell :      169.52
      direct lattice vectors                 reciprocal lattice vectors
     5.534407977  0.000000000  0.000000000     0.180687800  0.000000000  0.000000000
     0.000000000  5.534407977  0.000000000     0.000000000  0.180687800  0.000000000
     0.000000000  0.000000000  5.534407977     0.000000000  0.000000000  0.180687800

  length of vectors
     5.534407977  5.534407977  5.534407977     0.180687800  0.180687800  0.180687800


 
 old parameters found on file WAVECAR:
  energy-cutoff  :      500.00
  volume of cell :      169.52
      direct lattice vectors                 reciprocal lattice vectors
     5.534407977  0.000000000  0.000000000     0.180687800  0.000000000  0.000000000
     0.000000000  5.534407977  0.000000000     0.000000000  0.180687800  0.000000000
     0.000000000  0.000000000  5.534407977     0.000000000  0.000000000  0.180687800

  length of vectors

 
 k-points in units of 2pi/SCALE and weight: Automatic mesh                          
   0.00000000  0.00000000  0.00000000       0.008
   0.16261902  0.00000000  0.00000000       0.048
   0.32523804  0.00000000  0.00000000       0.048
   0.16261902  0.16261902  0.00000000       0.096
   0.32523804  0.16261902  0.00000000       0.192
   0.32523804  0.32523804  0.00000000       0.096
   0.16261902  0.16261902  0.16261902       0.064
   0.32523804  0.16261902  0.16261902       0.192
   0.32523804  0.32523804  0.16261902       0.192
   0.32523804  0.32523804  0.32523804       0.064
 
 k-points in reciprocal lattice and weights: Automatic mesh                          
   0.00000000  0.00000000  0.00000000       0.008
   0.20000000  0.00000000  0.00000000       0.048
   0.40000000  0.00000000  0.00000000       0.048
   0.20000000  0.20000000  0.00000000       0.096
   0.40000000  0.20000000  0.00000000       0.192
   0.40000000  0.40000000  0.00000000       0.096
   0.20000000  0.20000000  0.20000000       0.064
   0.40000000  0.20000000  0.20000000       0.192
   0.40000000  0.40000000  0.20000000       0.192
   0.40000000  0.40000000  0.40000000       0.064
 
 position of ions in fractional coordinates (direct lattice) 
   0.00000000  0.00000000  0.00000000
   0.50000000  0.50000000  0.00000000
   0.50000000  0.00000000  0.50000000
   0.00000000  0.50000000  0.50000000
   0.25000000  0.25000000  0.25000000
   0.75000000  0.25000000  0.75000000
   0.75000000  0.75000000  0.25000000
   0.25000000  0.75000000  0.75000000
 
 position of ions in cartesian coordinates  (Angst):
   0.00000000  0.00000000  0.00000000
   2.76720399  2.76720399  0.00000000
   2.76720399  0.00000000  2.76720399
   0.00000000  2.76720399  2.76720399
   1.38360199  1.38360199  1.38360199
   4.15080598  1.38360199  4.15080598
   4.15080598  4.15080598  1.38360199
   1.38360199  4.15080598  4.15080598
 


--------------------------------------------------------------------------------------------------------


 k-point     1 :   0.0000 0.0000 0.0000  plane waves:    4337
 k-point     2 :   0.2000 0.0000 0.0000  plane waves:    4296
 k-point     3 :   0.4000 0.0000 0.0000  plane waves:    4284
 k-point     4 :   0.2000 0.2000 0.0000  plane waves:    4296
 k-point     5 :   0.4000 0.2000 0.0000  plane waves:    4300
 k-point     6 :   0.4000 0.4000 0.0000  plane waves:    4300
 k-point     7 :   0.2000 0.2000 0.2000  plane waves:    4287
 k-point     8 :   0.4000 0.2000 0.2000  plane waves:    4305
 k-point     9 :   0.4000 0.4000 0.2000  plane waves:    4303
 k-point    10 :   0.4000 0.4000 0.4000  plane waves:    4323

 maximum and minimum number of plane-waves per node :      4337     4284

 maximum number of plane-waves:      4337
 maximum index in each direction: 
   IXMAX=   10   IYMAX=   10   IZMAX=   10
   IXMIN=  -10   IYMIN=  -10   IZMIN=  -10


 serial   3D FFT for wavefunctions
 parallel 3D FFT for charge:
    minimum data exchange during FFTs selected (reduces bandwidth)


 total amount of memory used by VASP MPI-rank0    45631. kBytes
=======================================================================

   base      :      30000. kBytes
   nonl-proj :       9591. kBytes
   fftplans  :       1096. kBytes
   grid      :       2745. kBytes
   one-center:         64. kBytes
   wavefun   :       2135. kBytes
 
     INWAV:  cpu time      0.0309: real time      0.0428
 Broyden mixing: mesh for mixing (old mesh)
   NGX = 21   NGY = 21   NGZ = 21
  (NGX  = 60   NGY  = 60   NGZ  = 60)
  gives a total of   9261 points

 charge density for first step will be calculated from the start-wavefunctions


--------------------------------------------------------------------------------------------------------


 Maximum index for augmentation-charges         1384 (set IRDMAX)


--------------------------------------------------------------------------------------------------------


 initial charge from wavefunction
 First call to EWALD:  gamma=   0.320
 Maximum number of real-space cells 3x 3x 3
 Maximum number of reciprocal cells 3x 3x 3

    FEWALD:  cpu time      0.0009: real time      0.0009


--------------------------------------- Ionic step        1  -------------------------------------------




--------------------------------------- Iteration      1(   1)  ---------------------------------------


    POTLOK:  cpu time      0.0135: real time      0.0167
    SETDIJ:  cpu time      0.0019: real time      0.0019
     EDDAV:  cpu time      0.1969: real time      0.2069
 BZINTS: Fermi energy:    3.326350;   32.000000 electrons
         Band energy:-0.712998E+02;  BLOECHL correction:    0.000000
       DOS:  cpu time      0.0004: real time      0.0004
    CHARGE:  cpu time      0.0125: real time      0.0127
    MIXING:  cpu time      0.0004: real time      0.0004
    --------------------------------------------
      LOOP:  cpu time      0.2256: real time      0.2390

 eigenvalue-minimisations  :   312
 total energy-change (2. order) :-0.3253481E+02  (-0.8737280E-06)
 number of electron      32.0000002 magnetization 
 augmentation part       -5.1897183 magnetization 

 Broyden mixing:
  rms(total) = 0.26477E-03    rms(broyden)= 0.26477E-03
  rms(prec ) = 0.55588E-03
  weight for this iteration     100.00

 Free energy of the ion-electron system (eV)
  ---------------------------------------------------
  alpha Z        PSCENC =        80.72254942
  Ewald energy   TEWEN  =      -936.37716530
  -Hartree energ DENC   =       -80.13310073
  -exchange      EXHF   =         0.00000000
  -V(xc)+E(xc)   XCENC  =      -120.24549975
  PAW double counting   =      2237.65320647    -2059.07462457
  entropy T*S    EENTRO =         0.00000000
  eigenvalues    EBANDS =       -71.29980496
  atomic energy  EATOM  =       916.21963040
  Solvation  Ediel_sol  =         0.00000000
  ---------------------------------------------------
  free energy    TOTEN  =       -32.53480904 eV

  energy without entropy =      -32.53480904  energy(sigma->0) =      -32.53480904


--------------------------------------------------------------------------------------------------------




--------------------------------------- Iteration      1(   2)  ---------------------------------------


    POTLOK:  cpu time      0.0143: real time      0.0154
    SETDIJ:  cpu time      0.0017: real time      0.0017
     EDDAV:  cpu time      0.1908: real time      0.2002
 BZINTS: Fermi energy:    3.326279;   32.000000 electrons
         Band energy:-0.713038E+02;  BLOECHL correction:    0.000000
       DOS:  cpu time      0.0003: real time      0.0003
    --------------------------------------------
      LOOP:  cpu time      0.2072: real time      0.2177

 eigenvalue-minimisations  :   312
 total energy-change (2. order) : 0.4006026E-06  (-0.8921413E-07)
 number of electron      32.0000002 magnetization 
 augmentation part       -5.1897183 magnetization 

 Free energy of the ion-electron system (eV)
  ---------------------------------------------------
  alpha Z        PSCENC =        80.72254942
  Ewald energy   TEWEN  =      -936.37716530
  -Hartree energ DENC   =       -80.12888006
  -exchange      EXHF   =         0.00000000
  -V(xc)+E(xc)   XCENC  =      -120.24581354
  PAW double counting   =      2237.70045094    -2059.12177218
  entropy T*S    EENTRO =         0.00000000
  eigenvalues    EBANDS =       -71.30380831
  atomic energy  EATOM  =       916.21963040
  Solvation  Ediel_sol  =         0.00000000
  ---------------------------------------------------
  free energy    TOTEN  =       -32.53480864 eV

  energy without entropy =      -32.53480864  energy(sigma->0) =      -32.53480864


--------------------------------------------------------------------------------------------------------




 average (electrostatic) potential at core
  the test charge radii are     1.0621  1.2767
  (the norm of the test charge is              1.0000)
       1 -50.9900       2 -50.9900       3 -50.9900       4 -50.9900       5 -14.1224
       6 -14.1224       7 -14.1224       8 -14.1224
 
 
 
 E-fermi :   3.3263     XC(G=0):  -9.4498     alpha+bet : -9.1250

 val. band max:        3.2969863832   @ k =   0.0000   0.0000   0.0000
 cond. band min:       4.3760687129   @ k =   0.0000   0.0000   0.0000
 fundamental gap:      1.0790823297
 Fermi energy:         3.3262789424

 k-point     1 :       0.0000    0.0000    0.0000
  band No.  band energies     occupation 
      1      -9.8867      2.00000
      2      -7.2631      2.00000
      3      -7.2631      2.00000
      4      -7.2631      2.00000
      5      -3.7964      2.00000
      6      -3.7964      2.00000
      7      -3.7964      2.00000
      8       0.3984      2.00000
      9       0.3984      2.00000
     10       0.3984      2.00000
     11       0.3984      2.00000
     12       0.3984      2.00000
     13       0.3984      2.00000
     14       3.2970      2.00000
     15       3.2970      2.00000
     16       3.2970      2.00000
     17       4.3761      0.00000
     18       4.6363      0.00000
     19       4.6363      0.00000
     20       4.6363      0.00000
     21       4.9346      0.00000
     22       4.9346      0.00000
     23       4.9346      0.00000
     24       7.0791      0.00000

 k-point     2 :       0.2000    0.0000    0.0000
  band No.  band energies     occupation 
      1      -9.7307      2.00000
      2      -7.7290      2.00000
      3      -7.2440      2.00000
      4      -7.2440      2.00000
      5      -3.7237      2.00000
      6      -3.7237      2.00000
      7      -3.1200      2.00000
      8       0.0276      2.00000
      9       0.0276      2.00000
     10       0.1010      2.00000
     11       0.1010      2.00000
     12       0.5733      2.00000
     13       0.5733      2.00000
     14       1.8496      2.00000
     15       2.7897      2.00000
     16       2.7897      2.00000
     17       4.6372      0.00000
     18       5.3814      0.00000
     19       5.4258      0.00000
     20       5.4258      0.00000
     21       5.7358      0.00000
     22       5.7358      0.00000
     23       5.7405      0.00000
     24       6.5882      0.00000

 k-point     3 :       0.4000    0.0000    0.0000
  band No.  band energies     occupation 
      1      -9.2736      2.00000
      2      -8.5595      2.00000
      3      -7.2125      2.00000
      4      -7.2125      2.00000
      5      -3.5898      2.00000
      6      -3.5898      2.00000
      7      -1.6716      2.00000
      8      -0.4837      2.00000
      9      -0.4837      2.00000
     10      -0.2847      2.00000
     11      -0.2847      2.00000
     12       0.0410      2.00000
     13       1.0839      2.00000
     14       1.0839      2.00000
     15       1.8765      2.00000
     16       1.8765      2.00000
     17       4.9572      0.00000
     18       5.6218      0.00000
     19       6.3029      0.00000
     20       6.9189      0.00000
     21       7.2574      0.00000
     22       7.2574      0.00000
     23       7.5443      0.00000
     24       7.5443      0.00000

 k-point     4 :       0.2000    0.2000    0.0000
  band No.  band energies     occupation 
      1      -9.5783      2.00000
      2      -7.6655      2.00000
      3      -7.6655      2.00000
      4      -7.2669      2.00000
      5      -3.6528      2.00000
      6      -3.1603      2.00000
      7      -3.1603      2.00000
      8      -0.6774      2.00000
      9       0.1135      2.00000
     10       0.1135      2.00000
     11       0.4457      2.00000
     12       0.4457      2.00000
     13       0.6903      2.00000
     14       0.8145      2.00000
     15       2.2556      2.00000
     16       3.1137      2.00000
     17       5.0664      0.00000
     18       5.4838      0.00000
     19       5.4838      0.00000
     20       5.7470      0.00000
     21       6.0860      0.00000
     22       6.0860      0.00000
     23       7.1495      0.00000
     24       7.3046      0.00000

 k-point     5 :       0.4000    0.2000    0.0000
  band No.  band energies     occupation 
      1      -9.1337      2.00000
      2      -8.4463      2.00000
      3      -7.5112      2.00000
      4      -7.3549      2.00000
      5      -3.4819      2.00000
      6      -3.2922      2.00000
      7      -1.9681      2.00000
      8      -0.9450      2.00000
      9      -0.6049      2.00000
     10      -0.6008      2.00000
     11       0.3973      2.00000
     12       0.5603      2.00000
     13       0.6291      2.00000
     14       1.2454      2.00000
     15       1.3286      2.00000
     16       2.3253      2.00000
     17       5.8303      0.00000
     18       6.1283      0.00000
     19       6.3758      0.00000
     20       6.8107      0.00000
     21       6.8212      0.00000
     22       7.3091      0.00000
     23       7.7082      0.00000
     24       8.5116      0.00000

 k-point     6 :       0.4000    0.4000    0.0000
  band No.  band energies     occupation 
      1      -8.7317      2.00000
      2      -8.1347      2.00000
      3      -8.1347      2.00000
      4      -7.7172      2.00000
      5      -3.1397      2.00000
      6      -2.5802      2.00000
      7      -2.5802      2.00000
      8      -1.6406      2.00000
      9      -0.8774      2.00000
     10      -0.2956      2.00000
     11      -0.2956      2.00000
     12       0.4115      2.00000
     13       1.4780      2.00000
     14       1.5436      2.00000
     15       1.5436      2.00000
     16       2.4506      2.00000
     17       5.8329      0.00000
     18       6.3105      0.00000
     19       6.8304      0.00000
     20       6.8304      0.00000
     21       7.8541      0.00000
     22       7.8541      0.00000
     23       8.3764      0.00000
     24       8.4193      0.00000

 k-point     7 :       0.2000    0.2000    0.2000
  band No.  band energies     occupation 
      1      -9.4304      2.00000
      2      -7.6328      2.00000
      3      -7.6328      2.00000
      4      -7.6328      2.00000
      5      -3.2491      2.00000
      6      -3.2491      2.00000
      7      -3.2491      2.00000
      8      -0.3160      2.00000
      9      -0.3160      2.00000
     10      -0.3160      2.00000
     11      -0.0734      2.00000
     12       0.8506      2.00000
     13       0.8506      2.00000
     14       0.8506      2.00000
     15       2.7476      2.00000
     16       2.7476      2.00000
     17       5.1722      0.00000
     18       5.2587      0.00000
     19       5.2587      0.00000
     20       5.2587      0.00000
     21       7.3352      0.00000
     22       7.3352      0.00000
     23       7.3352      0.00000
     24       7.8244      0.00000

 k-point     8 :       0.4000    0.2000    0.2000
  band No.  band energies     occupation 
      1      -9.0014      2.00000
      2      -8.3486      2.00000
      3      -7.5773      2.00000
      4      -7.5773      2.00000
      5      -3.4077      2.00000
      6      -3.4077      2.00000
      7      -2.3745      2.00000
      8      -1.2967      2.00000
      9      -0.5070      2.00000
     10      -0.5070      2.00000
     11       0.6770      2.00000
     12       0.8758      2.00000
     13       0.8758      2.00000
     14       1.3128      2.00000
     15       1.9854      2.00000
     16       2.0065      2.00000
     17       5.7389      0.00000
     18       5.7475      0.00000
     19       6.2686      0.00000
     20       6.2686      0.00000
     21       7.3856      0.00000
     22       7.6481      0.00000
     23       8.2667      0.00000
     24       8.2667      0.00000

 k-point     9 :       0.4000    0.4000    0.2000
  band No.  band energies     occupation 
      1      -8.6271      2.00000
      2      -8.0922      2.00000
      3      -8.0922      2.00000
      4      -7.7884      2.00000
      5      -3.4204      2.00000
      6      -3.0349      2.00000
      7      -3.0349      2.00000
      8      -2.2932      2.00000
      9      -0.1452      2.00000
     10       0.3708      2.00000
     11       0.3708      2.00000
     12       1.2442      2.00000
     13       1.5765      2.00000
     14       1.6188      2.00000
     15       1.6188      2.00000
     16       2.3733      2.00000
     17       5.5331      0.00000
     18       5.8669      0.00000
     19       6.2252      0.00000
     20       6.2252      0.00000
     21       7.5357      0.00000
     22       7.5357      0.00000
     23       8.1062      0.00000
     24       8.1378      0.00000

 k-point    10 :       0.4000    0.4000    0.4000
  band No.  band energies     occupation 
      1      -8.3505      2.00000
      2      -8.0190      2.00000
      3      -8.0190      2.00000
      4      -8.0190      2.00000
      5      -3.5524      2.00000
      6      -3.5524      2.00000
      7      -3.5524      2.00000
      8      -3.1347      2.00000
      9       1.2533      2.00000
     10       1.2533      2.00000
     11       1.2533      2.00000
     12       1.8349      2.00000
     13       1.8349      2.00000
     14       1.8349      2.00000
     15       2.1454      2.00000
     16       2.1454      2.00000
     17       4.6112      0.00000
     18       5.3466      0.00000
     19       5.3466      0.00000
     20       5.3466      0.00000
     21       7.6946      0.00000
     22       7.6946      0.00000
     23       7.6946      0.00000
     24       8.0265      0.00000


--------------------------------------------------------------------------------------------------------


 soft charge-density along one line, spin component           1
         0         1         2         3         4         5         6         7         8         9
 total charge-density along one line
 
 pseudopotential strength for first ion, spin component:           1
 23.530  28.126  -0.000  -0.000   0.000   0.000   0.000  -0.000
 28.126  33.624  -0.000  -0.000   0.000   0.000   0.000  -0.000
 -0.000  -0.000   5.535   0.000   0.000 -10.960  -0.000  -0.000
 -0.000  -0.000   0.000   5.535   0.000  -0.000 -10.960  -0.000
  0.000   0.000   0.000   0.000   5.535  -0.000  -0.000 -10.960
  0.000   0.000 -10.960  -0.000  -0.000  22.270   0.000   0.000
  0.000   0.000  -0.000 -10.960  -0.000   0.000  22.270   0.000
 -0.000  -0.000  -0.000  -0.000 -10.960   0.000   0.000  22.270
  0.000   0.000   0.000   0.002  -0.000  -0.000  -0.003   0.000
  0.000   0.000  -0.000  -0.000   0.002   0.000   0.000  -0.003
  0.000   0.000   0.000  -0.000  -0.000  -0.000   0.000   0.000
  0.000   0.000   0.002   0.000  -0.000  -0.003  -0.000   0.000
 -0.000  -0.000   0.000  -0.000   0.000  -0.000   0.000  -0.000
 total augmentation occupancy for first ion, spin component:           1
  5.709  -2.532  -0.000  -0.000   0.000  -0.000  -0.000  -0.000  -0.000   0.000  -0.000  -0.000  -0.000
 -2.532   1.477   0.000   0.000   0.000   0.000  -0.000  -0.000  -0.000   0.000   0.000  -0.000   0.000
  0.000  -0.000   1.531   0.000   0.000   0.063   0.000   0.000  -0.000   0.000  -0.000   0.107   0.000
  0.000   0.000  -0.000   1.531   0.000   0.000   0.063  -0.000   0.107  -0.000   0.000   0.000  -0.000
  0.000   0.000  -0.000   0.000   1.531   0.000   0.000   0.063  -0.000   0.107  -0.000   0.000   0.000
  0.000   0.000   0.063   0.000   0.000   0.003   0.000   0.000  -0.000   0.000   0.000   0.005  -0.000
 -0.000   0.000   0.000   0.063  -0.000   0.000   0.003   0.000   0.005  -0.000   0.000  -0.000   0.000
 -0.000  -0.000   0.000   0.000   0.063  -0.000   0.000   0.003   0.000   0.005   0.000  -0.000  -0.000
  0.000   0.000  -0.000   0.107  -0.000  -0.000   0.005   0.000   0.015   0.000   0.000  -0.000   0.000
  0.000   0.000   0.000   0.000   0.107   0.000  -0.000   0.005   0.000   0.015  -0.000   0.000  -0.000
 -0.000   0.000  -0.000   0.000   0.000   0.000   0.000  -0.000   0.000   0.000   0.005  -0.000   0.000
 -0.000   0.000   0.107   0.000  -0.000   0.005  -0.000  -0.000   0.000  -0.000  -0.000   0.015   0.000
 -0.000  -0.000   0.000  -0.000   0.000  -0.000   0.000   0.000  -0.000  -0.000   0.000   0.000   0.005


------------------------ aborting loop because EDIFF is reached ----------------------------------------


    CHARGE:  cpu time      0.0126: real time      0.0129
    FORLOC:  cpu time      0.0010: real time      0.0010
    FORNL :  cpu time      0.0528: real time      0.0532
    STRESS:  cpu time      0.3080: real time      0.3100
    FORCOR:  cpu time      0.0136: real time      0.0139
    FORHAR:  cpu time      0.0034: real time      0.0035
    MIXING:  cpu time      0.0005: real time      0.0005
    OFIELD:  cpu time      0.0000: real time      0.0000

  FORCE on cell =-STRESS in cart. coord.  units (eV):
  Direction    XX          YY          ZZ          XY          YZ          ZX
  --------------------------------------------------------------------------------------
  Alpha Z    80.72255    80.72255    80.72255
  Ewald    -312.12621  -312.12621  -312.12621    -0.00000     0.00000     0.00000
  Hartree    26.70717    26.70717    26.70717    -0.00000    -0.00000    -0.00000
  E(xc)    -122.56692  -122.56692  -122.56692    -0.00000    -0.00000    -0.00000
  Local    -118.67521  -118.67521  -118.67521    -0.00000    -0.00000    -0.00000
  n-local   182.68504   184.72246   181.90964    -2.00360    -1.17513    -0.96094
  augment     7.95158     7.95158     7.95158     0.00000     0.00000     0.00000
  Kinetic   258.85565   270.04156   267.52687    -4.84614    -4.60431    -3.06554
  Fock        0.00000     0.00000     0.00000     0.00000     0.00000     0.00000
  -------------------------------------------------------------------------------------
  Total      10.59336    10.59336    10.59336     0.00000    -0.00000     0.00000
  in kB     100.12232   100.12232   100.12232     0.00000    -0.00000     0.00000
  external pressure =      100.12 kB  Pullay stress =        0.00 kB


 VOLUME and BASIS-vectors are now :
 -----------------------------------------------------------------------------
  energy-cutoff  :      500.00
  volume of cell :      169.52
      direct lattice vectors                 reciprocal lattice vectors
     5.534407977  0.000000000  0.000000000     0.180687800  0.000000000  0.000000000
     0.000000000  5.534407977  0.000000000     0.000000000  0.180687800  0.000000000
     0.000000000  0.000000000  5.534407977     0.000000000  0.000000000  0.180687800

  length of vectors
     5.534407977  5.534407977  5.534407977     0.180687800  0.180687800  0.180687800


 FORCES acting on ions
    electron-ion (+dipol)            ewald-force                    non-local-force                 convergence-correction
 -----------------------------------------------------------------------------------------------
   -.582E-15 -.207E-14 -.121E-14   -.355E-14 -.107E-13 -.355E-14   -.363E-16 0.897E-17 -.698E-16   -.121E-14 0.233E-14 -.293E-14
   0.106E-13 0.293E-12 -.243E-12   -.355E-14 -.142E-13 -.355E-14   -.394E-16 -.330E-16 -.115E-16   0.279E-15 -.146E-14 -.228E-14
   0.123E-13 -.132E-14 -.376E-13   -.355E-14 -.107E-13 -.355E-14   -.207E-16 0.506E-16 -.355E-16   0.244E-15 0.167E-14 0.323E-14
   -.340E-14 0.196E-13 0.111E-13   -.355E-14 -.142E-13 -.355E-14   -.800E-17 0.834E-17 -.250E-16   -.997E-15 -.160E-14 0.354E-14
   -.800E-14 -.448E-13 0.184E-13   0.387E-14 0.104E-13 0.679E-14   -.107E-17 -.148E-17 0.297E-17   -.151E-14 -.179E-14 0.111E-14
   0.172E-14 0.135E-12 0.169E-12   0.385E-14 0.105E-13 0.370E-14   0.603E-18 -.156E-17 -.807E-18   0.288E-14 -.189E-14 -.164E-14
   0.410E-14 0.167E-13 0.244E-12   0.363E-14 0.109E-13 0.690E-14   0.394E-18 0.256E-17 -.208E-17   0.253E-14 0.443E-14 0.116E-14
   -.629E-14 -.131E-13 0.167E-13   0.290E-14 0.109E-13 0.381E-14   0.126E-17 0.235E-17 -.116E-17   -.153E-14 0.441E-14 -.179E-14
 -----------------------------------------------------------------------------------------------
   0.104E-13 0.404E-12 0.177E-12   0.410E-16 -.711E-14 0.700E-14   -.103E-15 0.368E-16 -.143E-15   0.684E-15 0.609E-14 0.402E-15
 
 
 POSITION                                       TOTAL-FORCE (eV/Angst)
 -----------------------------------------------------------------------------------
      0.00000      0.00000      0.00000        -0.000000      0.000000      0.000000
      2.76720      2.76720      0.00000         0.000000     -0.000000      0.000000
      2.76720      0.00000      2.76720         0.000000     -0.000000      0.000000
      0.00000      2.76720      2.76720         0.000000      0.000000      0.000000
      1.38360      1.38360      1.38360         0.000000      0.000000     -0.000000
      4.15081      1.38360      4.15081        -0.000000      0.000000      0.000000
      4.15081      4.15081      1.38360        -0.000000      0.000000     -0.000000
      1.38360      4.15081      4.15081        -0.000000     -0.000000     -0.000000
 -----------------------------------------------------------------------------------
    total drift:                                0.000000      0.000000      0.000000


--------------------------------------------------------------------------------------------------------



  FREE ENERGIE OF THE ION-ELECTRON SYSTEM (eV)
  ---------------------------------------------------
  free  energy   TOTEN  =       -32.53480864 eV

  energy  without entropy=      -32.53480864  energy(sigma->0) =      -32.53480864
 


--------------------------------------------------------------------------------------------------------


    POTLOK:  cpu time      0.0153: real time      0.0157


--------------------------------------------------------------------------------------------------------


 writing wavefunctions
     LOOP+:  cpu time      1.0577: real time      1.1245


--------------------------------------------------------------------------------------------------------



 plasma frequency squared (from intraband transitions) (eV^2)
  --------------------------------------------------------------------------------------
       0.000       0.000       0.000
       0.000       0.000       0.000
       0.000       0.000       0.000

 electrical conductivity sigma (Mega S m-1) (frequency dependency in vasprun.xml)
  --------------------------------------------------------------------------------------
       0.000       0.000       0.000
       0.000       0.000       0.000
       0.000       0.000       0.000

 plasma frequency squared (from interband transitions, int dw w eps(2)(w)) (eV^2)
  --------------------------------------------------------------------------------------
     201.847       0.000       0.000       0.000      -0.000       0.000
       0.000       0.000     201.847       0.000       0.000       0.000
      -0.000       0.000       0.000       0.000     201.847       0.000
  --------------------------------------------------------------------------------------
 sumrule: sum of plasma frequencies squared should yield (valence only):     260.291

 Anomalous Hall contribution (eV) 2/pi Imag((f_n-f_m)<u_m| d/dk_a u_n> <u_m| d/dk_b u_n>^*) 
  --------------------------------------------------------------------------------------
       0.000       0.000       0.000
       0.000       0.000       0.000
       0.000       0.000       0.000

  frequency dependent IMAGINARY DIELECTRIC FUNCTION (independent particle, no local field effects) density-density
     E(ev)      X         Y         Z        XY        YZ        ZX
  --------------------------------------------------------------------------------------------------------------
    0.000000    0.000000    0.000000    0.000000    0.000000    0.000000    0.000000
    0.022100    0.004316    0.004316    0.004316    0.000000   -0.000000    0.000000
    0.044200    0.008636    0.008636    0.008636    0.000000   -0.000000    0.000000
    0.066300    0.012964    0.012964    0.012964    0.000000   -0.000000    0.000000
    0.088400    0.017305    0.017305    0.017305    0.000000   -0.000000    0.000000
    0.110500    0.021663    0.021663    0.021663    0.000000   -0.000000    0.000000
    0.132600    0.026042    0.026042    0.026042    0.000000   -0.000000    0.000000
    0.154701    0.030446    0.030446    0.030446    0.000000   -0.000000    0.000000
    0.176801    0.034880    0.034880    0.034880    0.000000   -0.000000    0.000000
    0.198901    0.039349    0.039349    0.039349    0.000000   -0.000000    0.000000
    0.221001    0.043857    0.043857    0.043857    0.000000   -0.000000    0.000000
    0.243101    0.048409    0.048409    0.048409    0.000000   -0.000000    0.000000
    0.265201    0.053011    0.053011    0.053011    0.000000   -0.000000    0.000000
    0.287301    0.057667    0.057667    0.057667    0.000000   -0.000000    0.000000
    0.309401    0.062384    0.062384    0.062384    0.000000   -0.000000    0.000000
    0.331501    0.067167    0.067167    0.067167    0.000000   -0.000000    0.000000
    0.353601    0.072023    0.072023    0.072023    0.000000   -0.000000    0.000000
    0.375701    0.076958    0.076958    0.076958    0.000000   -0.000000    0.000000
    0.397801    0.081978    0.081978    0.081978    0.000000   -0.000000    0.000000
    0.419901    0.087092    0.087092    0.087092    0.000000   -0.000000    0.000000
    0.442002    0.092307    0.092307    0.092307    0.000000   -0.000000    0.000000
    0.464102    0.097632    0.097632    0.097632    0.000000   -0.000000    0.000000
    0.486202    0.103077    0.103077    0.103077    0.000000   -0.000000    0.000000
    0.508302    0.108649    0.108649    0.108649    0.000000   -0.000000    0.000000
    0.530402    0.114362    0.114362    0.114362    0.000000   -0.000000    0.000000
    0.552502    0.120226    0.120226    0.120226    0.000000   -0.000000    0.000000
    0.574602    0.126253    0.126253    0.126253    0.000000   -0.000000    0.000000
    0.596702    0.132459    0.132459    0.132459    0.000000   -0.000000    0.000000
    0.618802    0.138858    0.138858    0.138858    0.000000   -0.000000    0.000000
    0.640902    0.145468    0.145468    0.145468    0.000000   -0.000000    0.000000
    0.663002    0.152307    0.152307    0.152307    0.000000   -0.000000    0.000000
    0.685102    0.159396    0.159396    0.159396    0.000000   -0.000000    0.000000
    0.707202    0.166760    0.166760    0.166760    0.000000   -0.000000    0.000000
    0.729303    0.174426    0.174426    0.174426    0.000000   -0.000000    0.000000
    0.751403    0.182422    0.182422    0.182422    0.000000   -0.000000    0.000000
    0.773503    0.190786    0.190786    0.190786    0.000000   -0.000000    0.000000
    0.795603    0.199556    0.199556    0.199556    0.000000   -0.000000    0.000000
    0.817703    0.208780    0.208780    0.208780    0.000000   -0.000000    0.000000
    0.839803    0.218511    0.218511    0.218511    0.000000   -0.000000    0.000000
    0.861903    0.228814    0.228814    0.228814    0.000000   -0.000000    0.000000
    0.884003    0.239765    0.239765    0.239765    0.000000   -0.000000    0.000000
    0.906103    0.251456    0.251456    0.251456    0.000000   -0.000000    0.000000
    0.928203    0.263999    0.263999    0.263999    0.000000   -0.000000    0.000000
    0.950303    0.277532    0.277532    0.277532    0.000000   -0.000000    0.000000
    0.972403    0.292226    0.292226    0.292226    0.000000   -0.000000    0.000000
    0.994503    0.308296    0.308296    0.308296    0.000000   -0.000000    0.000000
    1.016604    0.326012    0.326012    0.326012    0.000000   -0.000000    0.000000
    1.038704    0.345713    0.345713    0.345713    0.000000   -0.000000    0.000000
    1.060804    0.367813    0.367813    0.367813    0.000000   -0.000000    0.000000
    1.082904    0.392793    0.392793    0.392793    0.000000   -0.000000    0.000000
    1.105004    0.421168    0.421168    0.421168    0.000000   -0.000000    0.000000
    1.127104    0.453447    0.453447    0.453447    0.000000   -0.000000    0.000000
    1.149204    0.490079    0.490079    0.490079    0.000000   -0.000000    0.000000
    1.171304    0.531442    0.531442    0.531442    0.000000   -0.000000    0.000000
    1.193404    0.577834    0.577834    0.577834    0.000000   -0.000000    0.000000
    1.215504    0.629484    0.629484    0.629484    0.000000   -0.000000    0.000000
    1.237604    0.686565    0.686565    0.686565    0.000000   -0.000000    0.000000
    1.259704    0.749208    0.749208    0.749208    0.000000   -0.000000    0.000000
    1.281804    0.817504    0.817504    0.817504    0.000000   -0.000000    0.000000
    1.303905    0.891518    0.891518    0.891518    0.000000    0.000000    0.000000
    1.326005    0.971291    0.971291    0.971291    0.000000    0.000000    0.000000
    1.348105    1.056838    1.056838    1.056838    0.000000    0.000000    0.000000
    1.370205    1.148154    1.148154    1.148154    0.000000    0.000000    0.000000
    1.392305    1.245208    1.245208    1.245208    0.000000    0.000000    0.000000
    1.414405    1.347940    1.347940    1.347940    0.000000    0.000000    0.000000
    1.436505    1.456260    1.456260    1.456260    0.000000    0.000000    0.000000
    1.458605    1.570042    1.570042    1.570042    0.000000    0.000000    0.000000
    1.480705    1.689122    1.689122    1.689122    0.000000    0.000000    0.000000
    1.502805    1.813294    1.813294    1.813294    0.000000    0.000000    0.000000
    1.524905    1.942294    1.942294    1.942294    0.000000    0.000000    0.000000
    1.547005    2.075797    2.075797    2.075797    0.000000    0.000000    0.000000
    1.569105    2.213396    2.213396    2.213396    0.000000    0.000000    0.000000
    1.591206    2.354584    2.354584    2.354584    0.000000    0.000000    0.000000
    1.613306    2.498720    2.498720    2.498720    0.000000    0.000000    0.000000
    1.635406    2.644992    2.644992    2.644992    0.000000    0.000000    0.000000
    1.657506    2.792361    2.792361    2.792361    0.000000    0.000000    0.000000
    1.679606    2.939480    2.939480    2.939480    0.000000    0.000000    0.000000
    1.701706    3.084596    3.084596    3.084596    0.000000    0.000000    0.000000
    1.723806    3.225410    3.225410    3.225410    0.000000    0.000000    0.000000
    1.745906    3.358922    3.358922    3.358922    0.000000    0.000000    0.000000
    1.768006    3.481307    3.481307    3.481307    0.000000    0.000000    0.000000
    1.790106    3.587952    3.587952    3.587952    0.000000    0.000000    0.000000
    1.812206    3.673964    3.673964    3.673964    0.000000    0.000000    0.000000
    1.834306    3.735513    3.735513    3.735513    0.000000    0.000000    0.000000
    1.856406    3.771852    3.771852    3.771852    0.000000    0.000000    0.000000
    1.878507    3.786655    3.786655    3.786655    0.000000    0.000000    0.000000
    1.900607    3.786972    3.786972    3.786972    0.000000    0.000000    0.000000
    1.922707    3.780186    3.780186    3.780186    0.000000    0.000000    0.000000
    1.944807    3.771409    3.771409    3.771409    0.000000    0.000000    0.000000
    1.966907    3.763027    3.763027    3.763027    0.000000    0.000000    0.000000
    1.989007    3.755859    3.755859    3.755859    0.000000    0.000000    0.000000
    2.011107    3.750425    3.750425    3.750425    0.000000    0.000000    0.000000
    2.033207    3.747494    3.747494    3.747494    0.000000    0.000000    0.000000
    2.055307    3.748073    3.748073    3.748073    0.000000    0.000000    0.000000
    2.077407    3.753282    3.753282    3.753282    0.000000    0.000000    0.000000
    2.099507    3.764288    3.764288    3.764288    0.000000    0.000000    0.000000
    2.121607    3.782315    3.782315    3.782315    0.000000   -0.000000    0.000000
    2.143707    3.808689    3.808689    3.808689    0.000000   -0.000000    0.000000
    2.165808    3.844912    3.844912    3.844912    0.000000   -0.000000    0.000000
    2.187908    3.892759    3.892759    3.892759    0.000000   -0.000000    0.000000
    2.210008    3.954405    3.954405    3.954405    0.000000   -0.000000    0.000000
    2.232108    4.032597    4.032597    4.032597    0.000000   -0.000000    0.000000
    2.254208    4.130882    4.130882    4.130882    0.000000   -0.000000    0.000000
    2.276308    4.253923    4.253923    4.253923    0.000000   -0.000000    0.000000
    2.298408    4.407902    4.407902    4.407902    0.000000   -0.000000    0.000000
    2.320508    4.600992    4.600992    4.600992    0.000000   -0.000000    0.000000
    2.342608    4.843726    4.843726    4.843726    0.000000   -0.000000    0.000000
    2.364708    5.148778    5.148778    5.148778    0.000000   -0.000000    0.000000
    2.386808    5.528826    5.528826    5.528826    0.000000   -0.000000    0.000000
    2.408908    5.989936    5.989936    5.989936    0.000000   -0.000000    0.000000
    2.431008    6.517866    6.517866    6.517866    0.000000   -0.000000    0.000000
    2.453109    7.063050    7.063050    7.063050    0.000000   -0.000000    0.000000
    2.475209    7.550580    7.550580    7.550580    0.000000   -0.000000    0.000000
    2.497309    7.933967    7.933967    7.933967    0.000000   -0.000000    0.000000
    2.519409    8.236278    8.236278    8.236278    0.000000   -0.000000    0.000000
    2.541509    8.516846    8.516846    8.516846    0.000000   -0.000000    0.000000
    2.563609    8.814817    8.814817    8.814817    0.000000   -0.000000    0.000000
    2.585709    9.129682    9.129682    9.129682    0.000000   -0.000000    0.000000
    2.607809    9.429889    9.429889    9.429889    0.000000   -0.000000    0.000000
    2.629909    9.670392    9.670392    9.670392    0.000000   -0.000000    0.000000
    2.652009    9.817395    9.817395    9.817395    0.000000   -0.000000    0.000000
    2.674109    9.873943    9.873943    9.873943    0.000000   -0.000000    0.000000
    2.696209    9.880526    9.880526    9.880526    0.000000   -0.000000    0.000000
    2.718309    9.884543    9.884543    9.884543    0.000000   -0.000000    0.000000
    2.740410    9.914511    9.914511    9.914511    0.000000   -0.000000    0.000000
    2.762510    9.978679    9.978679    9.978679    0.000000   -0.000000    0.000000
    2.784610   10.074462   10.074462   10.074462    0.000000   -0.000000    0.000000
    2.806710   10.195944   10.195944   10.195944    0.000000   -0.000000    0.000000
    2.828810   10.337344   10.337344   10.337344   -0.000000   -0.000000    0.000000
    2.850910   10.494051   10.494051   10.494051   -0.000000   -0.000000    0.000000
    2.873010   10.662671   10.662671   10.662671   -0.000000   -0.000000    0.000000
    2.895110   10.840810   10.840810   10.840810   -0.000000   -0.000000    0.000000
    2.917210   11.026851   11.026851   11.026851   -0.000000   -0.000000    0.000000
    2.939310   11.219741   11.219741   11.219741   -0.000000   -0.000000    0.000000
    2.961410   11.418837   11.418837   11.418837   -0.000000   -0.000000    0.000000
    2.983510   11.623850   11.623850   11.623850   -0.000000   -0.000000    0.000000
    3.005610   11.834935   11.834935   11.834935   -0.000000    0.000000    0.000000
    3.027711   12.052836   12.052836   12.052836   -0.000000    0.000000    0.000000
    3.049811   12.278951   12.278951   12.278951   -0.000000    0.000000    0.000000
    3.071911   12.515185   12.515185   12.515185   -0.000000    0.000000    0.000000
    3.094011   12.763441   12.763441   12.763441    0.000000    0.000000    0.000000
    3.116111   13.024372   13.024372   13.024372    0.000000    0.000000    0.000000
    3.138211   13.295373   13.295373   13.295373    0.000000    0.000000    0.000000
    3.160311   13.569210   13.569210   13.569210    0.000000    0.000000    0.000000
    3.182411   13.835753   13.835753   13.835753    0.000000    0.000000    0.000000
    3.204511   14.086088   14.086088   14.086088    0.000000    0.000000    0.000000
    3.226611   14.314952   14.314952   14.314952    0.000000    0.000000   -0.000000
    3.248711   14.520279   14.520279   14.520279    0.000000    0.000000   -0.000000
    3.270811   14.701832   14.701832   14.701832   -0.000000    0.000000   -0.000000
    3.292911   14.860317   14.860317   14.860317   -0.000000    0.000000   -0.000000
    3.315012   14.997222   14.997222   14.997222   -0.000000    0.000000   -0.000000
    3.337112   15.115437   15.115437   15.115437    0.000000    0.000000   -0.000000
    3.359212   15.220896   15.220896   15.220896    0.000000    0.000000   -0.000000
    3.381312   15.325137   15.325137   15.325137    0.000000    0.000000   -0.000000
    3.403412   15.446989   15.446989   15.446989    0.000000    0.000000   -0.000000
    3.425512   15.609731   15.609731   15.609731    0.000000    0.000000   -0.000000
    3.447612   15.831815   15.831815   15.831815   -0.000000    0.000000   -0.000000
    3.469712   16.112608   16.112608   16.112608   -0.000000    0.000000   -0.000000
    3.491812   16.418775   16.418775   16.418775   -0.000000    0.000000   -0.000000
    3.513912   16.690872   16.690872   16.690872   -0.000000    0.000000   -0.000000
    3.536012   16.885991   16.885991   16.885991   -0.000000    0.000000   -0.000000
    3.558112   17.014223   17.014223   17.014223   -0.000000    0.000000   -0.000000
    3.580212   17.119143   17.119143   17.119143   -0.000000    0.000000   -0.000000
    3.602313   17.239070   17.239070   17.239070   -0.000000    0.000000   -0.000000
    3.624413   17.394574   17.394574   17.394574    0.000000    0.000000   -0.000000
    3.646513   17.594457   17.594457   17.594457    0.000000    0.000000    0.000000
    3.668613   17.841766   17.841766   17.841766    0.000000    0.000000    0.000000
    3.690713   18.132776   18.132776   18.132776    0.000000    0.000000    0.000000
    3.712813   18.447134   18.447134   18.447134    0.000000    0.000000    0.000000
    3.734913   18.732051   18.732051   18.732051    0.000000    0.000000    0.000000
    3.757013   18.897488   18.897488   18.897488    0.000000    0.000000    0.000000
    3.779113   18.847189   18.847189   18.847189    0.000000    0.000000    0.000000
    3.801213   18.535806   18.535806   18.535806    0.000000    0.000000    0.000000
    3.823313   18.003653   18.003653   18.003653    0.000000    0.000000    0.000000
    3.845413   17.361352   17.361352   17.361352    0.000000    0.000000    0.000000
    3.867513   16.739235   16.739235   16.739235    0.000000    0.000000    0.000000
    3.889614   16.238573   16.238573   16.238573    0.000000    0.000000    0.000000
    3.911714   15.911417   15.911417   15.911417    0.000000    0.000000    0.000000
    3.933814   15.768791   15.768791   15.768791    0.000000    0.000000    0.000000
    3.955914   15.799042   15.799042   15.799042   -0.000000    0.000000    0.000000
    3.978014   15.981422   15.981422   15.981422   -0.000000    0.000000    0.000000
    4.000114   16.292451   16.292451   16.292451   -0.000000    0.000000    0.000000
    4.022214   16.707278   16.707278   16.707278   -0.000000    0.000000    0.000000
    4.044314   17.197826   17.197826   17.197826   -0.000000    0.000000    0.000000
    4.066414   17.731211   17.731211   17.731211    0.000000    0.000000    0.000000
    4.088514   18.272923   18.272923   18.272923    0.000000    0.000000   -0.000000
    4.110614   18.794669   18.794669   18.794669    0.000000   -0.000000   -0.000000
    4.132714   19.281698   19.281698   19.281698    0.000000   -0.000000   -0.000000
    4.154814   19.733621   19.733621   19.733621    0.000000   -0.000000   -0.000000
    4.176915   20.157452   20.157452   20.157452    0.000000   -0.000000   -0.000000
    4.199015   20.560225   20.560225   20.560225    0.000000   -0.000000   -0.000000
    4.221115   20.946464   20.946464   20.946464    0.000000   -0.000000   -0.000000
    4.243215   21.318386   21.318386   21.318386    0.000000   -0.000000   -0.000000
    4.265315   21.675599   21.675599   21.675599    0.000000   -0.000000   -0.000000
    4.287415   22.013346   22.013346   22.013346    0.000000   -0.000000   -0.000000
    4.309515   22.321000   22.321000   22.321000    0.000000   -0.000000   -0.000000
    4.331615   22.584012   22.584012   22.584012    0.000000   -0.000000   -0.000000
    4.353715   22.789432   22.789432   22.789432    0.000000   -0.000000    0.000000
    4.375815   22.930196   22.930196   22.930196    0.000000   -0.000000    0.000000
    4.397915   23.003814   23.003814   23.003814    0.000000   -0.000000   -0.000000
    4.420015   23.008658   23.008658   23.008658    0.000000   -0.000000   -0.000000
    4.442116   22.944437   22.944437   22.944437    0.000000   -0.000000   -0.000000
    4.464216   22.815276   22.815276   22.815276    0.000000   -0.000000   -0.000000
    4.486316   22.629619   22.629619   22.629619    0.000000   -0.000000   -0.000000
    4.508416   22.397432   22.397432   22.397432    0.000000   -0.000000   -0.000000
    4.530516   22.129089   22.129089   22.129089    0.000000   -0.000000   -0.000000
    4.552616   21.837230   21.837230   21.837230    0.000000   -0.000000   -0.000000
    4.574716   21.539160   21.539160   21.539160   -0.000000    0.000000   -0.000000
    4.596816   21.256199   21.256199   21.256199   -0.000000    0.000000   -0.000000
    4.618916   21.007651   21.007651   21.007651   -0.000000    0.000000   -0.000000
    4.641016   20.803226   20.803226   20.803226   -0.000000    0.000000   -0.000000
    4.663116   20.641352   20.641352   20.641352   -0.000000    0.000000   -0.000000
    4.685216   20.513252   20.513252   20.513252   -0.000000    0.000000   -0.000000
    4.707316   20.407413   20.407413   20.407413   -0.000000    0.000000   -0.000000
    4.729417   20.311738   20.311738   20.311738   -0.000000    0.000000   -0.000000
    4.751517   20.213609   20.213609   20.213609   -0.000000    0.000000   -0.000000
    4.773617   20.099537   20.099537   20.099537   -0.000000    0.000000   -0.000000
    4.795717   19.957684   19.957684   19.957684   -0.000000    0.000000    0.000000
    4.817817   19.784415   19.784415   19.784415   -0.000000    0.000000    0.000000
    4.839917   19.587506   19.587506   19.587506   -0.000000    0.000000    0.000000
    4.862017   19.379666   19.379666   19.379666   -0.000000    0.000000    0.000000
    4.884117   19.170086   19.170086   19.170086    0.000000    0.000000    0.000000
    4.906217   18.962013   18.962013   18.962013    0.000000    0.000000    0.000000
    4.928317   18.754888   18.754888   18.754888    0.000000    0.000000    0.000000
    4.950417   18.547134   18.547134   18.547134    0.000000    0.000000    0.000000
    4.972517   18.337676   18.337676   18.337676    0.000000    0.000000    0.000000
    4.994617   18.126217   18.126217   18.126217    0.000000    0.000000   -0.000000
    5.016718   17.913014   17.913014   17.913014    0.000000    0.000000   -0.000000
    5.038818   17.698317   17.698317   17.698317    0.000000    0.000000   -0.000000
    5.060918   17.481100   17.481100   17.481100    0.000000    0.000000   -0.000000
    5.083018   17.257450   17.257450   17.257450    0.000000    0.000000   -0.000000
    5.105118   17.019971   17.019971   17.019971    0.000000    0.000000   -0.000000
    5.127218   16.759228   16.759228   16.759228    0.000000    0.000000   -0.000000
    5.149318   16.466778   16.466778   16.466778   -0.000000    0.000000   -0.000000
    5.171418   16.138507   16.138507   16.138507   -0.000000    0.000000   -0.000000
    5.193518   15.776466   15.776466   15.776466   -0.000000    0.000000   -0.000000
    5.215618   15.387789   15.387789   15.387789   -0.000000    0.000000   -0.000000
    5.237718   14.981849   14.981849   14.981849   -0.000000    0.000000   -0.000000
    5.259818   14.568600   14.568600   14.568600   -0.000000    0.000000   -0.000000
    5.281918   14.159117   14.159117   14.159117   -0.000000    0.000000   -0.000000
    5.304019   13.765486   13.765486   13.765486   -0.000000    0.000000   -0.000000
    5.326119   13.397661   13.397661   13.397661   -0.000000    0.000000   -0.000000
    5.348219   13.059476   13.059476   13.059476   -0.000000    0.000000   -0.000000
    5.370319   12.747446   12.747446   12.747446   -0.000000    0.000000   -0.000000
    5.392419   12.453158   12.453158   12.453158    0.000000    0.000000   -0.000000
    5.414519   12.167867   12.167867   12.167867    0.000000    0.000000   -0.000000
    5.436619   11.886584   11.886584   11.886584    0.000000    0.000000   -0.000000
    5.458719   11.609782   11.609782   11.609782    0.000000    0.000000   -0.000000
    5.480819   11.344401   11.344401   11.344401    0.000000    0.000000   -0.000000
    5.502919   11.104222   11.104222   11.104222    0.000000    0.000000   -0.000000
    5.525019   10.905869   10.905869   10.905869    0.000000   -0.000000   -0.000000
    5.547119   10.761068   10.761068   10.761068   -0.000000   -0.000000   -0.000000
    5.569219   10.671559   10.671559   10.671559   -0.000000   -0.000000   -0.000000
    5.591320   10.628813   10.628813   10.628813   -0.000000   -0.000000    0.000000
    5.613420   10.615881   10.615881   10.615881   -0.000000   -0.000000    0.000000
    5.635520   10.613261   10.613261   10.613261   -0.000000   -0.000000    0.000000
    5.657620   10.612371   10.612371   10.612371   -0.000000   -0.000000    0.000000
    5.679720   10.623813   10.623813   10.623813   -0.000000   -0.000000    0.000000
    5.701820   10.666748   10.666748   10.666748   -0.000000   -0.000000    0.000000
    5.723920   10.752946   10.752946   10.752946   -0.000000   -0.000000    0.000000
    5.746020   10.879553   10.879553   10.879553   -0.000000   -0.000000    0.000000
    5.768120   11.029521   11.029521   11.029521   -0.000000   -0.000000    0.000000
    5.790220   11.179008   11.179008   11.179008   -0.000000   -0.000000    0.000000
    5.812320   11.307423   11.307423   11.307423   -0.000000   -0.000000    0.000000
    5.834420   11.398289   11.398289   11.398289   -0.000000   -0.000000    0.000000
    5.856520   11.429406   11.429406   11.429406   -0.000000   -0.000000    0.000000
    5.878621   11.367683   11.367683   11.367683   -0.000000   -0.000000   -0.000000
    5.900721   11.185126   11.185126   11.185126   -0.000000   -0.000000   -0.000000
    5.922821   10.884806   10.884806   10.884806   -0.000000   -0.000000   -0.000000
    5.944921   10.503042   10.503042   10.503042   -0.000000   -0.000000   -0.000000
    5.967021   10.085022   10.085022   10.085022   -0.000000   -0.000000   -0.000000
    5.989121    9.663762    9.663762    9.663762   -0.000000   -0.000000   -0.000000
    6.011221    9.256068    9.256068    9.256068   -0.000000   -0.000000    0.000000
    6.033321    8.867500    8.867500    8.867500   -0.000000   -0.000000    0.000000
    6.055421    8.498037    8.498037    8.498037   -0.000000    0.000000    0.000000
    6.077521    8.145672    8.145672    8.145672   -0.000000    0.000000    0.000000
    6.099621    7.807968    7.807968    7.807968   -0.000000    0.000000    0.000000
    6.121721    7.482537    7.482537    7.482537   -0.000000    0.000000    0.000000
    6.143821    7.167285    7.167285    7.167285   -0.000000    0.000000    0.000000
    6.165922    6.860683    6.860683    6.860683   -0.000000    0.000000    0.000000
    6.188022    6.561984    6.561984    6.561984   -0.000000    0.000000    0.000000
    6.210122    6.271338    6.271338    6.271338   -0.000000    0.000000    0.000000
    6.232222    5.989780    5.989780    5.989780    0.000000    0.000000    0.000000
    6.254322    5.719153    5.719153    5.719153    0.000000    0.000000    0.000000
[...]
   17.282260    0.275508    0.275508    0.275508   -0.000000   -0.000000    0.000000
   17.304360    0.277834    0.277834    0.277834   -0.000000   -0.000000    0.000000
   17.326460    0.280199    0.280199    0.280199   -0.000000   -0.000000    0.000000
   17.348561    0.282589    0.282589    0.282589   -0.000000   -0.000000    0.000000
   17.370661    0.284993    0.284993    0.284993   -0.000000   -0.000000    0.000000
   17.392761    0.287406    0.287406    0.287406   -0.000000   -0.000000    0.000000
   17.414861    0.289823    0.289823    0.289823   -0.000000   -0.000000    0.000000
   17.436961    0.292242    0.292242    0.292242   -0.000000   -0.000000    0.000000
   17.459061    0.294661    0.294661    0.294661   -0.000000   -0.000000    0.000000
   17.481161    0.297078    0.297078    0.297078   -0.000000   -0.000000    0.000000
   17.503261    0.299492    0.299492    0.299492   -0.000000   -0.000000    0.000000
   17.525361    0.301901    0.301901    0.301901   -0.000000   -0.000000    0.000000
   17.547461    0.304303    0.304303    0.304303   -0.000000   -0.000000    0.000000
   17.569561    0.306698    0.306698    0.306698   -0.000000   -0.000000    0.000000
   17.591661    0.309082    0.309082    0.309082   -0.000000   -0.000000    0.000000
   17.613761    0.311453    0.311453    0.311453   -0.000000   -0.000000    0.000000
   17.635862    0.313808    0.313808    0.313808   -0.000000   -0.000000    0.000000
   17.657962    0.316142    0.316142    0.316142   -0.000000   -0.000000    0.000000
   17.680062    0.318453    0.318453    0.318453   -0.000000   -0.000000    0.000000
   17.702162    0.320737    0.320737    0.320737   -0.000000   -0.000000    0.000000
   17.724262    0.322995    0.322995    0.322995   -0.000000   -0.000000    0.000000
   17.746362    0.325225    0.325225    0.325225   -0.000000   -0.000000    0.000000
   17.768462    0.327428    0.327428    0.327428   -0.000000   -0.000000    0.000000
   17.790562    0.329605    0.329605    0.329605   -0.000000   -0.000000    0.000000
   17.812662    0.331758    0.331758    0.331758   -0.000000   -0.000000    0.000000
   17.834762    0.333888    0.333888    0.333888   -0.000000   -0.000000    0.000000
   17.856862    0.335996    0.335996    0.335996   -0.000000   -0.000000    0.000000
   17.878962    0.338083    0.338083    0.338083   -0.000000   -0.000000    0.000000
   17.901062    0.340150    0.340150    0.340150   -0.000000   -0.000000    0.000000
   17.923163    0.342198    0.342198    0.342198   -0.000000   -0.000000    0.000000
   17.945263    0.344228    0.344228    0.344228   -0.000000   -0.000000    0.000000
   17.967363    0.346240    0.346240    0.346240   -0.000000   -0.000000    0.000000
   17.989463    0.348236    0.348236    0.348236   -0.000000   -0.000000    0.000000
   18.011563    0.350215    0.350215    0.350215   -0.000000   -0.000000    0.000000
   18.033663    0.352179    0.352179    0.352179   -0.000000   -0.000000    0.000000
   18.055763    0.354128    0.354128    0.354128   -0.000000   -0.000000    0.000000
   18.077863    0.356062    0.356062    0.356062   -0.000000   -0.000000    0.000000
   18.099963    0.357982    0.357982    0.357982   -0.000000   -0.000000    0.000000
   18.122063    0.359889    0.359889    0.359889   -0.000000   -0.000000    0.000000
   18.144163    0.361782    0.361782    0.361782   -0.000000   -0.000000    0.000000
   18.166263    0.363662    0.363662    0.363662   -0.000000   -0.000000    0.000000
   18.188363    0.365529    0.365529    0.365529   -0.000000   -0.000000    0.000000
   18.210464    0.367384    0.367384    0.367384   -0.000000   -0.000000    0.000000
   18.232564    0.369227    0.369227    0.369227   -0.000000   -0.000000    0.000000
   18.254664    0.371059    0.371059    0.371059   -0.000000   -0.000000    0.000000
   18.276764    0.372878    0.372878    0.372878   -0.000000   -0.000000    0.000000
   18.298864    0.374687    0.374687    0.374687   -0.000000   -0.000000    0.000000
   18.320964    0.376484    0.376484    0.376484   -0.000000   -0.000000    0.000000
   18.343064    0.378271    0.378271    0.378271   -0.000000   -0.000000    0.000000
   18.365164    0.380047    0.380047    0.380047   -0.000000   -0.000000    0.000000
   18.387264    0.381812    0.381812    0.381812   -0.000000   -0.000000    0.000000
   18.409364    0.383567    0.383567    0.383567   -0.000000   -0.000000    0.000000
   18.431464    0.385313    0.385313    0.385313   -0.000000   -0.000000    0.000000
   18.453564    0.387048    0.387048    0.387048   -0.000000   -0.000000    0.000000
   18.475664    0.388773    0.388773    0.388773   -0.000000   -0.000000    0.000000
   18.497765    0.390489    0.390489    0.390489   -0.000000   -0.000000    0.000000
   18.519865    0.392196    0.392196    0.392196   -0.000000   -0.000000    0.000000
   18.541965    0.393893    0.393893    0.393893   -0.000000   -0.000000    0.000000
   18.564065    0.395581    0.395581    0.395581   -0.000000   -0.000000    0.000000
   18.586165    0.397260    0.397260    0.397260   -0.000000   -0.000000    0.000000
   18.608265    0.398930    0.398930    0.398930   -0.000000   -0.000000    0.000000
   18.630365    0.400591    0.400591    0.400591   -0.000000   -0.000000    0.000000
   18.652465    0.402244    0.402244    0.402244   -0.000000   -0.000000    0.000000
   18.674565    0.403888    0.403888    0.403888   -0.000000   -0.000000    0.000000
   18.696665    0.405523    0.405523    0.405523   -0.000000   -0.000000    0.000000
   18.718765    0.407150    0.407150    0.407150   -0.000000   -0.000000    0.000000
   18.740865    0.408769    0.408769    0.408769   -0.000000   -0.000000    0.000000
   18.762965    0.410380    0.410380    0.410380   -0.000000   -0.000000    0.000000
   18.785066    0.411983    0.411983    0.411983   -0.000000   -0.000000    0.000000
   18.807166    0.413578    0.413578    0.413578   -0.000000   -0.000000    0.000000
   18.829266    0.415165    0.415165    0.415165   -0.000000   -0.000000    0.000000
   18.851366    0.416744    0.416744    0.416744   -0.000000   -0.000000    0.000000
   18.873466    0.418315    0.418315    0.418315   -0.000000   -0.000000    0.000000
   18.895566    0.419879    0.419879    0.419879   -0.000000   -0.000000    0.000000
   18.917666    0.421435    0.421435    0.421435   -0.000000   -0.000000    0.000000
   18.939766    0.422984    0.422984    0.422984   -0.000000   -0.000000    0.000000
   18.961866    0.424525    0.424525    0.424525   -0.000000   -0.000000    0.000000
   18.983966    0.426059    0.426059    0.426059   -0.000000   -0.000000    0.000000
   19.006066    0.427586    0.427586    0.427586   -0.000000   -0.000000    0.000000
   19.028166    0.429106    0.429106    0.429106   -0.000000   -0.000000    0.000000
   19.050266    0.430618    0.430618    0.430618   -0.000000   -0.000000    0.000000
   19.072367    0.432124    0.432124    0.432124   -0.000000   -0.000000    0.000000
   19.094467    0.433622    0.433622    0.433622   -0.000000   -0.000000    0.000000
   19.116567    0.435114    0.435114    0.435114   -0.000000   -0.000000    0.000000
   19.138667    0.436599    0.436599    0.436599   -0.000000   -0.000000    0.000000
   19.160767    0.438077    0.438077    0.438077   -0.000000   -0.000000    0.000000
   19.182867    0.439548    0.439548    0.439548   -0.000000   -0.000000    0.000000
   19.204967    0.441013    0.441013    0.441013   -0.000000   -0.000000    0.000000
   19.227067    0.442471    0.442471    0.442471   -0.000000   -0.000000    0.000000
   19.249167    0.443922    0.443922    0.443922   -0.000000   -0.000000    0.000000
   19.271267    0.445367    0.445367    0.445367   -0.000000   -0.000000    0.000000
   19.293367    0.446806    0.446806    0.446806   -0.000000   -0.000000    0.000000
   19.315467    0.448238    0.448238    0.448238   -0.000000   -0.000000    0.000000
   19.337567    0.449664    0.449664    0.449664   -0.000000   -0.000000    0.000000
   19.359668    0.451084    0.451084    0.451084   -0.000000   -0.000000    0.000000
   19.381768    0.452497    0.452497    0.452497   -0.000000   -0.000000    0.000000
   19.403868    0.453904    0.453904    0.453904   -0.000000   -0.000000    0.000000
   19.425968    0.455305    0.455305    0.455305   -0.000000   -0.000000    0.000000
   19.448068    0.456700    0.456700    0.456700   -0.000000   -0.000000    0.000000
   19.470168    0.458089    0.458089    0.458089   -0.000000   -0.000000    0.000000
   19.492268    0.459472    0.459472    0.459472   -0.000000   -0.000000    0.000000
   19.514368    0.460849    0.460849    0.460849   -0.000000   -0.000000    0.000000
   19.536468    0.462220    0.462220    0.462220   -0.000000   -0.000000    0.000000
   19.558568    0.463585    0.463585    0.463585   -0.000000   -0.000000    0.000000
   19.580668    0.464945    0.464945    0.464945   -0.000000   -0.000000    0.000000
   19.602768    0.466299    0.466299    0.466299   -0.000000   -0.000000    0.000000
   19.624868    0.467647    0.467647    0.467647   -0.000000   -0.000000    0.000000
   19.646969    0.468989    0.468989    0.468989   -0.000000   -0.000000    0.000000
   19.669069    0.470326    0.470326    0.470326   -0.000000   -0.000000    0.000000
   19.691169    0.471657    0.471657    0.471657   -0.000000   -0.000000    0.000000
   19.713269    0.472982    0.472982    0.472982   -0.000000   -0.000000    0.000000
   19.735369    0.474302    0.474302    0.474302   -0.000000   -0.000000    0.000000
   19.757469    0.475617    0.475617    0.475617   -0.000000   -0.000000    0.000000
   19.779569    0.476926    0.476926    0.476926   -0.000000   -0.000000    0.000000
   19.801669    0.478229    0.478229    0.478229   -0.000000   -0.000000    0.000000
   19.823769    0.479528    0.479528    0.479528   -0.000000   -0.000000    0.000000
   19.845869    0.480821    0.480821    0.480821   -0.000000   -0.000000    0.000000
   19.867969    0.482108    0.482108    0.482108   -0.000000   -0.000000    0.000000
   19.890069    0.483391    0.483391    0.483391   -0.000000   -0.000000    0.000000
   19.912169    0.484668    0.484668    0.484668   -0.000000   -0.000000    0.000000
   19.934270    0.485940    0.485940    0.485940   -0.000000   -0.000000    0.000000
   19.956370    0.487207    0.487207    0.487207   -0.000000   -0.000000    0.000000
   19.978470    0.488469    0.488469    0.488469   -0.000000   -0.000000    0.000000
   20.000570    0.489725    0.489725    0.489725   -0.000000   -0.000000    0.000000
   20.022670    0.490977    0.490977    0.490977   -0.000000   -0.000000    0.000000
   20.044770    0.492224    0.492224    0.492224   -0.000000   -0.000000    0.000000
   20.066870    0.493465    0.493465    0.493465   -0.000000   -0.000000    0.000000
   20.088970    0.494702    0.494702    0.494702   -0.000000   -0.000000    0.000000
   20.111070    0.495934    0.495934    0.495934   -0.000000   -0.000000    0.000000
   20.133170    0.497161    0.497161    0.497161   -0.000000   -0.000000    0.000000
   20.155270    0.498383    0.498383    0.498383   -0.000000   -0.000000    0.000000
   20.177370    0.499600    0.499600    0.499600   -0.000000   -0.000000    0.000000
   20.199470    0.500812    0.500812    0.500812   -0.000000   -0.000000    0.000000
   20.221571    0.502020    0.502020    0.502020   -0.000000   -0.000000    0.000000
   20.243671    0.503223    0.503223    0.503223   -0.000000   -0.000000    0.000000
   20.265771    0.504421    0.504421    0.504421   -0.000000   -0.000000    0.000000
   20.287871    0.505614    0.505614    0.505614   -0.000000   -0.000000    0.000000
   20.309971    0.506803    0.506803    0.506803   -0.000000   -0.000000    0.000000
   20.332071    0.507987    0.507987    0.507987   -0.000000   -0.000000    0.000000
   20.354171    0.509167    0.509167    0.509167   -0.000000   -0.000000    0.000000
   20.376271    0.510342    0.510342    0.510342   -0.000000   -0.000000    0.000000
   20.398371    0.511512    0.511512    0.511512   -0.000000   -0.000000    0.000000
   20.420471    0.512678    0.512678    0.512678   -0.000000   -0.000000    0.000000
   20.442571    0.513840    0.513840    0.513840   -0.000000   -0.000000    0.000000
   20.464671    0.514997    0.514997    0.514997   -0.000000   -0.000000    0.000000
   20.486771    0.516150    0.516150    0.516150   -0.000000   -0.000000    0.000000
   20.508872    0.517298    0.517298    0.517298   -0.000000   -0.000000    0.000000
   20.530972    0.518442    0.518442    0.518442   -0.000000   -0.000000    0.000000
   20.553072    0.519581    0.519581    0.519581   -0.000000   -0.000000    0.000000
   20.575172    0.520716    0.520716    0.520716   -0.000000   -0.000000    0.000000
   20.597272    0.521847    0.521847    0.521847   -0.000000   -0.000000    0.000000
   20.619372    0.522974    0.522974    0.522974   -0.000000   -0.000000    0.000000
   20.641472    0.524096    0.524096    0.524096   -0.000000   -0.000000    0.000000
   20.663572    0.525214    0.525214    0.525214   -0.000000   -0.000000    0.000000
   20.685672    0.526328    0.526328    0.526328   -0.000000   -0.000000    0.000000
   20.707772    0.527438    0.527438    0.527438   -0.000000   -0.000000    0.000000
   20.729872    0.528543    0.528543    0.528543   -0.000000   -0.000000    0.000000
   20.751972    0.529645    0.529645    0.529645   -0.000000   -0.000000    0.000000
   20.774072    0.530742    0.530742    0.530742   -0.000000   -0.000000    0.000000
   20.796173    0.531835    0.531835    0.531835   -0.000000   -0.000000    0.000000
   20.818273    0.532924    0.532924    0.532924   -0.000000   -0.000000    0.000000
   20.840373    0.534009    0.534009    0.534009   -0.000000   -0.000000    0.000000
   20.862473    0.535090    0.535090    0.535090   -0.000000   -0.000000    0.000000
   20.884573    0.536168    0.536168    0.536168   -0.000000   -0.000000    0.000000
   20.906673    0.537241    0.537241    0.537241   -0.000000   -0.000000    0.000000
   20.928773    0.538310    0.538310    0.538310   -0.000000   -0.000000    0.000000
   20.950873    0.539375    0.539375    0.539375   -0.000000   -0.000000    0.000000
   20.972973    0.540436    0.540436    0.540436   -0.000000   -0.000000    0.000000
   20.995073    0.541494    0.541494    0.541494   -0.000000   -0.000000    0.000000
   21.017173    0.542547    0.542547    0.542547   -0.000000   -0.000000    0.000000
   21.039273    0.543597    0.543597    0.543597   -0.000000   -0.000000    0.000000
   21.061374    0.544643    0.544643    0.544643   -0.000000   -0.000000    0.000000
   21.083474    0.545685    0.545685    0.545685   -0.000000   -0.000000    0.000000
   21.105574    0.546723    0.546723    0.546723   -0.000000   -0.000000    0.000000
   21.127674    0.547758    0.547758    0.547758   -0.000000   -0.000000    0.000000
   21.149774    0.548789    0.548789    0.548789   -0.000000   -0.000000    0.000000
   21.171874    0.549816    0.549816    0.549816   -0.000000   -0.000000    0.000000
   21.193974    0.550839    0.550839    0.550839   -0.000000   -0.000000    0.000000
   21.216074    0.551859    0.551859    0.551859   -0.000000   -0.000000    0.000000
   21.238174    0.552875    0.552875    0.552875   -0.000000   -0.000000    0.000000
   21.260274    0.553887    0.553887    0.553887   -0.000000   -0.000000    0.000000
   21.282374    0.554896    0.554896    0.554896   -0.000000   -0.000000    0.000000
   21.304474    0.555901    0.555901    0.555901   -0.000000   -0.000000    0.000000
   21.326574    0.556903    0.556903    0.556903   -0.000000   -0.000000    0.000000
   21.348675    0.557901    0.557901    0.557901   -0.000000   -0.000000    0.000000
   21.370775    0.558895    0.558895    0.558895   -0.000000   -0.000000    0.000000
   21.392875    0.559886    0.559886    0.559886   -0.000000   -0.000000    0.000000
   21.414975    0.560874    0.560874    0.560874   -0.000000   -0.000000    0.000000
   21.437075    0.561858    0.561858    0.561858   -0.000000   -0.000000    0.000000
   21.459175    0.562838    0.562838    0.562838   -0.000000   -0.000000    0.000000
   21.481275    0.563815    0.563815    0.563815   -0.000000   -0.000000    0.000000
   21.503375    0.564789    0.564789    0.564789   -0.000000   -0.000000    0.000000
   21.525475    0.565759    0.565759    0.565759   -0.000000   -0.000000    0.000000
   21.547575    0.566726    0.566726    0.566726   -0.000000   -0.000000    0.000000
   21.569675    0.567689    0.567689    0.567689   -0.000000   -0.000000    0.000000
   21.591775    0.568649    0.568649    0.568649   -0.000000   -0.000000    0.000000
   21.613875    0.569605    0.569605    0.569605   -0.000000   -0.000000    0.000000
   21.635976    0.570559    0.570559    0.570559   -0.000000   -0.000000    0.000000
   21.658076    0.571509    0.571509    0.571509   -0.000000   -0.000000    0.000000
   21.680176    0.572455    0.572455    0.572455   -0.000000   -0.000000    0.000000
   21.702276    0.573399    0.573399    0.573399   -0.000000   -0.000000    0.000000
   21.724376    0.574339    0.574339    0.574339   -0.000000   -0.000000    0.000000
   21.746476    0.575276    0.575276    0.575276   -0.000000   -0.000000    0.000000
   21.768576    0.576209    0.576209    0.576209   -0.000000   -0.000000    0.000000
   21.790676    0.577140    0.577140    0.577140   -0.000000   -0.000000    0.000000
   21.812776    0.578067    0.578067    0.578067   -0.000000   -0.000000    0.000000
   21.834876    0.578991    0.578991    0.578991   -0.000000   -0.000000    0.000000
   21.856976    0.579912    0.579912    0.579912   -0.000000   -0.000000    0.000000
   21.879076    0.580829    0.580829    0.580829   -0.000000   -0.000000    0.000000
   21.901176    0.581744    0.581744    0.581744   -0.000000   -0.000000    0.000000
   21.923277    0.582655    0.582655    0.582655   -0.000000   -0.000000    0.000000
   21.945377    0.583563    0.583563    0.583563   -0.000000   -0.000000    0.000000
   21.967477    0.584469    0.584469    0.584469   -0.000000   -0.000000    0.000000
   21.989577    0.585371    0.585371    0.585371   -0.000000   -0.000000    0.000000
   22.011677    0.586270    0.586270    0.586270   -0.000000   -0.000000    0.000000
   22.033777    0.587166    0.587166    0.587166   -0.000000   -0.000000    0.000000
   22.055877    0.588059    0.588059    0.588059   -0.000000   -0.000000    0.000000
   22.077977    0.588948    0.588948    0.588948   -0.000000   -0.000000    0.000000
 
 The outermost node in the dielectric function lies at epsilon=  15.3


--------------------------------------------------------------------------------------------------------


    OPTICS:  cpu time      0.1842: real time      0.1976
    4ORBIT:  cpu time      0.0000: real time      0.0000
 BZINTS: Fermi energy:    3.326279;   32.000000 electrons
         Band energy:-0.713038E+02;  BLOECHL correction:    0.000000

 total amount of memory used by VASP MPI-rank0    45631. kBytes
=======================================================================

   base      :      30000. kBytes
   nonl-proj :       9591. kBytes
   fftplans  :       1096. kBytes
   grid      :       2745. kBytes
   one-center:         64. kBytes
   wavefun   :       2135. kBytes
 
  
  
 General timing and accounting informations for this job:
 ========================================================
  
                  Total CPU time used (sec):        3.105
                            User time (sec):        1.728
                          System time (sec):        1.377
                         Elapsed time (sec):        3.892
  
                   Maximum memory used (kb):      136772.
                   Average memory used (kb):          N/A
  
                          Minor page faults:        13604
                          Major page faults:           49
                 Voluntary context switches:         1845
