<?xml version="1.0" encoding="ISO-8859-1"?>
<modeling>
 <generator>
  <i name="program" type="string">vasp </i>
  <i name="version" type="string">6.4.3  </i>
  <i name="subversion" type="string">19Mar24 (build Aug 29 2024 15:27:20) complex                          parallel </i>
  <i name="platform" type="string">LinuxIFC </i>
  <i name="date" type="string">2025 03 19 </i>
  <i name="time" type="string">10:34:07 </i>
 </generator>
 <incar>
  <i type="string" name="SYSTEM">GaAs</i>
  <i type="string" name="PREC">Normal</i>
  <i type="int" name="IBRION">     2</i>
  <i name="ENCUT">    500.00000000</i>
  <i type="int" name="ISMEAR">    -5</i>
  <i name="SIGMA">      0.10000000</i>
  <i type="logical" name="LOPTICS"> T  </i>
 </incar>
 <primitive_cell>
  <structure name="primitive_cell" >
   <crystal>
    <varray name="basis" >
     <v>       2.76720399      -2.76720399       0.00000000 </v>
     <v>       2.76720399       0.00000000       2.76720399 </v>
     <v>       0.00000000      -2.76720399       2.76720399 </v>
    </varray>
    <i name="volume">     42.37927480 </i>
    <varray name="rec_basis" >
     <v>       0.18068780      -0.18068780      -0.18068780 </v>
     <v>       0.18068780       0.18068780       0.18068780 </v>
     <v>      -0.18068780      -0.18068780       0.18068780 </v>
    </varray>
   </crystal>
   <varray name="positions" >
    <v>       0.00000000       0.00000000       0.00000000 </v>
    <v>       0.75000000       0.75000000       0.75000000 </v>
   </varray>
  </structure>
  <varray name="primitive_index" >
   <v type="int" >        1 </v>
   <v type="int" >        5 </v>
  </varray>
 </primitive_cell>
 <kpoints>
  <generation param="Gamma">
   <v type="int" name="divisions">       5        5        5 </v>
   <v name="usershift">      0.00000000       0.00000000       0.00000000 </v>
   <v name="genvec1">      0.20000000       0.00000000       0.00000000 </v>
   <v name="genvec2">      0.00000000       0.20000000       0.00000000 </v>
   <v name="genvec3">      0.00000000       0.00000000       0.20000000 </v>
   <v name="shift">      0.00000000       0.00000000       0.00000000 </v>
  </generation>
  <varray name="kpointlist" >
   <v>       0.00000000       0.00000000       0.00000000 </v>
   <v>       0.20000000       0.00000000       0.00000000 </v>
   <v>       0.40000000       0.00000000       0.00000000 </v>
   <v>       0.20000000       0.20000000       0.00000000 </v>
   <v>       0.40000000       0.20000000       0.00000000 </v>
   <v>       0.40000000       0.40000000       0.00000000 </v>
   <v>       0.20000000       0.20000000       0.20000000 </v>
   <v>       0.40000000       0.20000000       0.20000000 </v>
   <v>       0.40000000       0.40000000       0.20000000 </v>
   <v>       0.40000000       0.40000000       0.40000000 </v>
  </varray>
  <varray name="weights" >
   <v>       0.00800000 </v>
   <v>       0.04800000 </v>
   <v>       0.04800000 </v>
   <v>       0.09600000 </v>
   <v>       0.19200000 </v>
   <v>       0.09600000 </v>
   <v>       0.06400000 </v>
   <v>       0.19200000 </v>
   <v>       0.19200000 </v>
   <v>       0.06400000 </v>
  </varray>
  <varray name="tetrahedronlist"  type="int" >
   <v type="int" >       12        7        8        8        9 </v>
   <v type="int" >       18        8        8        9        9 </v>
   <v type="int" >       24        8        9        9       10 </v>
   <v type="int" >       12        8        9        9        9 </v>
   <v type="int" >       24        9        9        9       10 </v>
   <v type="int" >       18        9        9       10       10 </v>
   <v type="int" >       24        4        5        7        8 </v>
   <v type="int" >       12        5        7        8        8 </v>
   <v type="int" >       24        5        8        8        9 </v>
   <v type="int" >       24        4        5        5        8 </v>
   <v type="int" >       24        5        5        6        8 </v>
   <v type="int" >       12        5        6        8        9 </v>
   <v type="int" >       12        9       10       10       10 </v>
   <v type="int" >       12        8        8        9       10 </v>
   <v type="int" >       12        8        9       10       10 </v>
   <v type="int" >       12        5        5        8        9 </v>
   <v type="int" >       12        5        8        9        9 </v>
   <v type="int" >       12        5        5        6        9 </v>
   <v type="int" >       12        5        6        6        9 </v>
   <v type="int" >       12        5        6        9        9 </v>
   <v type="int" >       12        5        6        8        8 </v>
   <v type="int" >       12        5        6        6        8 </v>
   <v type="int" >       12        6        8        8        9 </v>
   <v type="int" >       12        6        8        9        9 </v>
   <v type="int" >       12        6        6        8        9 </v>
   <v type="int" >       12        7        8        9       10 </v>
   <v type="int" >       12        4        5        8        9 </v>
   <v type="int" >       12        4        7        8        9 </v>
   <v type="int" >       12        4        5        6        9 </v>
   <v type="int" >       12        5        6        7        8 </v>
   <v type="int" >       12        4        5        6        7 </v>
   <v type="int" >       12        6        7        8        9 </v>
   <v type="int" >       12        2        4        7        8 </v>
   <v type="int" >       12        2        4        5        8 </v>
   <v type="int" >       12        2        3        5        8 </v>
   <v type="int" >       12        4        4        5        7 </v>
   <v type="int" >       12        2        4        4        5 </v>
   <v type="int" >       12        2        3        4        5 </v>
   <v type="int" >       12        3        4        5        5 </v>
   <v type="int" >       12        2        3        4        7 </v>
   <v type="int" >       12        3        4        5        7 </v>
   <v type="int" >       12        3        5        7        8 </v>
   <v type="int" >        6       10       10       10       10 </v>
   <v type="int" >       12        6        6        9        9 </v>
   <v type="int" >       12        6        9        9        9 </v>
   <v type="int" >       12        6        6        6        9 </v>
   <v type="int" >       12        3        5        8        8 </v>
   <v type="int" >       12        3        5        5        8 </v>
   <v type="int" >       12        3        3        5        8 </v>
   <v type="int" >       12        5        5        5        8 </v>
   <v type="int" >       12        3        5        5        5 </v>
   <v type="int" >        6        3        3        5        5 </v>
   <v type="int" >        6        5        5        8        8 </v>
   <v type="int" >       12        2        4        4        7 </v>
   <v type="int" >       12        2        2        4        4 </v>
   <v type="int" >       12        1        2        2        4 </v>
   <v type="int" >       12        1        2        4        7 </v>
  </varray>
  <i name="volumeweight">      0.00133333 </i>
 </kpoints>
 <parameters>
  <separator name="general" >
   <i type="string" name="SYSTEM">GaAs</i>
   <i type="logical" name="LCOMPAT"> F  </i>
  </separator>
  <separator name="electronic" >
   <i type="string" name="PREC">normal</i>
   <i name="ENMAX">    500.00000000</i>
   <i name="ENAUG">    462.75800000</i>
   <i name="EDIFF">      0.00010000</i>
   <i type="int" name="IALGO">    38</i>
   <i type="int" name="IWAVPR">    10</i>
   <i type="int" name="NBANDS">    24</i>
   <i type="int" name="NBANDSLOW">    -1</i>
   <i type="int" name="NBANDSHIGH">    -1</i>
   <i name="NELECT">     32.00000000</i>
   <i type="int" name="TURBO">     0</i>
   <i type="int" name="IRESTART">     0</i>
   <i type="int" name="NREBOOT">     0</i>
   <i type="int" name="NMIN">     0</i>
   <i name="EREF">      0.00000000</i>
   <separator name="electronic smearing" >
    <i type="int" name="ISMEAR">    -5</i>
    <i name="SIGMA">      0.10000000</i>
    <i name="KSPACING">      0.50000000</i>
    <i type="logical" name="KGAMMA"> T  </i>
    <i type="logical" name="KBLOWUP"> T  </i>
   </separator>
   <separator name="electronic projectors" >
    <i type="logical" name="LREAL"> F  </i>
    <v name="ROPT">      0.00000000      0.00000000</v>
    <i type="int" name="LMAXPAW">  -100</i>
    <i type="int" name="LMAXMIX">     2</i>
    <i type="logical" name="NLSPLINE"> F  </i>
   </separator>
   <separator name="electronic startup" >
    <i type="int" name="ISTART">     1</i>
    <i type="int" name="ICHARG">     0</i>
    <i type="int" name="INIWAV">     1</i>
   </separator>
   <separator name="electronic spin" >
    <i type="int" name="ISPIN">     1</i>
    <i type="logical" name="LNONCOLLINEAR"> F  </i>
    <v name="MAGMOM">      1.00000000      1.00000000      1.00000000      1.00000000      1.00000000      1.00000000      1.00000000      1.00000000</v>
    <i name="NUPDOWN">     -1.00000000</i>
    <i type="logical" name="LSORBIT"> F  </i>
    <v name="SAXIS">      0.00000000      0.00000000      1.00000000</v>
    <i type="logical" name="LSPIRAL"> F  </i>
    <v name="QSPIRAL">      0.00000000      0.00000000      0.00000000</v>
    <i type="logical" name="LZEROZ"> F  </i>
   </separator>
   <separator name="electronic exchange-correlation" >
    <i type="logical" name="LASPH"> F  </i>
   </separator>
   <separator name="electronic convergence" >
    <i type="int" name="NELM">    60</i>
    <i type="int" name="NELMDL">     0</i>
    <i type="int" name="NELMIN">     2</i>
    <i name="ENINI">    500.00000000</i>
    <separator name="electronic convergence detail" >
     <i type="logical" name="LDIAG"> T  </i>
     <i type="logical" name="LSUBROT"> F  </i>
     <i name="WEIMIN">      0.00000000</i>
     <i name="EBREAK">      0.00000104</i>
     <i name="DEPER">      0.30000000</i>
     <i type="int" name="NRMM">     4</i>
     <i name="TIME">      0.40000000</i>
    </separator>
   </separator>
   <separator name="electronic mixer" >
    <i name="AMIX">      0.40000000</i>
    <i name="BMIX">      1.00000000</i>
    <i name="AMIN">      0.10000000</i>
    <i name="AMIX_MAG">      1.60000000</i>
    <i name="BMIX_MAG">      1.00000000</i>
    <separator name="electronic mixer details" >
     <i type="int" name="IMIX">     4</i>
     <i type="logical" name="MIXFIRST"> F  </i>
     <i type="int" name="MAXMIX">   -45</i>
     <i name="WC">    100.00000000</i>
     <i type="int" name="INIMIX">     1</i>
     <i type="int" name="MIXPRE">     1</i>
     <i type="int" name="MREMOVE">     5</i>
    </separator>
   </separator>
   <separator name="electronic dipolcorrection" >
    <i type="logical" name="LDIPOL"> F  </i>
    <i type="logical" name="LMONO"> F  </i>
    <i type="int" name="IDIPOL">     0</i>
    <i name="EPSILON">      1.00000000</i>
    <v name="DIPOL">   -100.00000000   -100.00000000   -100.00000000</v>
    <i name="EFIELD">      0.00000000</i>
    <i type="logical" name="LVACPOTAV"> F  </i>
   </separator>
  </separator>
  <separator name="grids" >
   <i type="int" name="NGX">    30</i>
   <i type="int" name="NGY">    30</i>
   <i type="int" name="NGZ">    30</i>
   <i type="int" name="NGXF">    60</i>
   <i type="int" name="NGYF">    60</i>
   <i type="int" name="NGZF">    60</i>
   <i type="logical" name="ADDGRID"> F  </i>
  </separator>
  <separator name="ionic" >
   <i type="int" name="NSW">     0</i>
   <i type="int" name="IBRION">    -1</i>
   <i type="int" name="MDALGO">     0</i>
   <i type="int" name="ISIF">     2</i>
   <i name="PSTRESS">      0.00000000</i>
   <i name="EDIFFG">      0.00100000</i>
   <i type="int" name="NFREE">     1</i>
   <i name="POTIM">      0.50000000</i>
   <i name="SMASS">     -3.00000000</i>
   <i name="SCALEE">      1.00000000</i>
  </separator>
  <separator name="ionic md" >
   <i name="TEBEG">      0.00010000</i>
   <i name="TEEND">      0.00010000</i>
   <i type="int" name="NBLOCK">     1</i>
   <i type="int" name="KBLOCK">     1</i>
   <i type="int" name="NPACO">   256</i>
   <i name="APACO">     10.00000000</i>
  </separator>
  <separator name="symmetry" >
   <i type="int" name="ISYM">     2</i>
   <i name="SYMPREC">      0.00001000</i>
  </separator>
  <separator name="dos" >
   <i type="int" name="LORBIT">     0</i>
   <v name="RWIGS">     -1.00000000     -1.00000000</v>
   <i type="int" name="NEDOS">   301</i>
   <i name="EMIN">     10.00000000</i>
   <i name="EMAX">    -10.00000000</i>
   <i name="EFERMI">      0.00000000</i>
  </separator>
  <separator name="writing" >
   <i type="int" name="NWRITE">     2</i>
   <i type="logical" name="LWAVE"> T  </i>
   <i type="logical" name="LDOWNSAMPLE"> F  </i>
   <i type="logical" name="LCHARG"> T  </i>
   <i type="logical" name="LPARD"> F  </i>
   <i type="logical" name="LVTOT"> F  </i>
   <i type="logical" name="LVHAR"> F  </i>
   <i type="logical" name="LELF"> F  </i>
   <i type="logical" name="LOPTICS"> T  </i>
   <v name="STM">      0.00000000      0.00000000      0.00000000      0.00000000      0.00000000      0.00000000      0.00000000</v>
  </separator>
  <separator name="performance" >
   <i type="int" name="NPAR">     8</i>
   <i type="int" name="NSIM">     4</i>
   <i type="int" name="NBLK">    -1</i>
   <i type="logical" name="LPLANE"> T  </i>
   <i type="logical" name="LSCALAPACK"> T  </i>
   <i type="logical" name="LSCAAWARE"> F  </i>
   <i type="logical" name="LSCALU"> F  </i>
   <i type="logical" name="LASYNC"> F  </i>
   <i type="logical" name="LORBITALREAL"> F  </i>
  </separator>
  <separator name="miscellaneous" >
   <i type="int" name="IDIOT">     3</i>
   <i type="int" name="PHON_NSTRUCT">    -1</i>
   <i type="logical" name="LMUSIC"> F  </i>
   <v name="POMASS">     74.92200000     69.72300000</v>
   <v name="DARWINR">      0.00000000      0.00000000</v>
   <v name="DARWINV">      1.00000000      1.00000000</v>
   <i type="logical" name="LCORR"> T  </i>
  </separator>
  <i type="logical" name="GGA_COMPAT"> T  </i>
  <i type="logical" name="LBERRY"> F  </i>
  <i type="int" name="ICORELEVEL">     0</i>
  <i type="logical" name="LDAU"> F  </i>
  <i type="int" name="I_CONSTRAINED_M">     0</i>
  <separator name="electronic exchange-correlation" >
   <i type="string" name="GGA    ">PE</i>
   <i type="string" name="XC_C">1</i>
   <i type="int" name="VOSKOWN">     0</i>
   <i type="logical" name="LHFCALC"> F  </i>
   <i type="string" name="PRECFOCK"></i>
   <i type="logical" name="LSYMGRAD"> F  </i>
   <i type="logical" name="LHFONE"> F  </i>
   <i type="logical" name="LRHFCALC"> F  </i>
   <i type="logical" name="LTHOMAS"> F  </i>
   <i type="logical" name="LMODELHF"> F  </i>
   <i type="logical" name="LFOCKACE"> F  </i>
   <i name="ENCUT4O">     -1.00000000</i>
   <i type="int" name="EXXOEP">     0</i>
   <i type="int" name="FOURORBIT">     0</i>
   <i name="AEXX">      0.00000000</i>
   <i name="HFALPHA">      0.00000000</i>
   <i name="MCALPHA">      0.00000000</i>
   <i name="ALDAX">      1.00000000</i>
   <i name="AGGAX">      1.00000000</i>
   <i name="AMGGAX">      1.00000000</i>
   <i name="ALDAC">      1.00000000</i>
   <i name="AGGAC">      1.00000000</i>
   <i name="AMGGAC">      1.00000000</i>
   <i type="int" name="NKREDX">     1</i>
   <i type="int" name="NKREDY">     1</i>
   <i type="int" name="NKREDZ">     1</i>
   <i type="logical" name="SHIFTRED"> F  </i>
   <i type="logical" name="ODDONLY"> F  </i>
   <i type="logical" name="EVENONLY"> F  </i>
   <i type="int" name="LMAXFOCK">     0</i>
   <i type="int" name="NMAXFOCKAE">     0</i>
   <i type="logical" name="LFOCKAEDFT"> F  </i>
   <i name="HFSCREEN">      0.00000000</i>
   <i name="HFSCREENC">      0.00000000</i>
   <i type="int" name="NBANDSGWLOW">     0</i>
  </separator>
  <separator name="vdW DFT" >
   <i type="logical" name="LUSE_VDW"> F  </i>
   <i type="int" name="IVDW_NL">    -1</i>
   <i type="logical" name="LSPIN_VDW"> F  </i>
   <i name="ZAB_VDW">     -0.84910000</i>
   <i name="GAMMA_VDW">      1.39626340</i>
   <i name="ALPHA_VDW">      0.00000000</i>
   <i name="PARAM1">      0.12340000</i>
   <i name="PARAM2">      1.00000000</i>
   <i name="BPARAM">      6.30000000</i>
   <i name="CPARAM">      0.00930000</i>
  </separator>
  <separator name="model GW" >
   <i type="int" name="MODEL_GW">     0</i>
   <i name="MODEL_EPS0">     12.71378244</i>
   <i name="MODEL_ALPHA">      1.00000000</i>
  </separator>
  <separator name="linear response parameters" >
   <i type="logical" name="LEPSILON"> F  </i>
   <i type="logical" name="LRPA"> F  </i>
   <i type="logical" name="LNABLA"> F  </i>
   <i type="logical" name="LVEL"> F  </i>
   <i name="CSHIFT">      0.10000000</i>
   <i name="OMEGAMAX">     -1.00000000</i>
   <i name="DEG_THRESHOLD">      0.00200000</i>
   <i name="RTIME">     -0.10000000</i>
   <i name="WPLASMAI">      0.00000000</i>
   <v name="DFIELD">      0.00000000      0.00000000      0.00000000</v>
   <v name="WPLASMA">      0.00000000      0.00000000      0.00000000      0.00000000      0.00000000      0.00000000      0.00000000      0.00000000      0.00000000</v>
  </separator>
  <separator name="orbital magnetization" >
   <i type="logical" name="NUCIND"> F  </i>
   <v name="MAGPOS">      0.00000000      0.00000000      0.00000000</v>
   <i type="logical" name="LNICSALL"> T  </i>
   <i type="logical" name="ORBITALMAG"> F  </i>
   <i type="logical" name="LMAGBLOCH"> F  </i>
   <i type="logical" name="LCHIMAG"> F  </i>
   <i type="logical" name="LGAUGE"> T  </i>
   <i type="int" name="MAGATOM">     0</i>
   <v name="MAGDIPOL">      0.00000000      0.00000000      0.00000000</v>
   <v name="AVECCONST">      0.00000000      0.00000000      0.00000000</v>
  </separator>
  <separator name="response functions" >
   <i type="logical" name="LALL_IN_ONE"> F  </i>
   <i type="int" name="IALL_IN_ONE">    -1</i>
   <i type="int" name="NBANDS_WAVE">    -1</i>
   <i type="logical" name="LFINITE_TEMPERATURE"> F  </i>
   <i type="logical" name="LADDER"> F  </i>
   <i type="logical" name="LRPAFORCE"> F  </i>
   <i type="logical" name="LFXC"> F  </i>
   <i type="logical" name="LHARTREE"> T  </i>
   <i type="int" name="IBSE">     0</i>
   <v type="int" name="KPOINT">    -1     0     0     0</v>
   <i type="logical" name="LTCTC"> F  </i>
   <i type="logical" name="LTCTE"> F  </i>
   <i type="logical" name="LTETE"> F  </i>
   <i type="logical" name="LTRIPLET"> F  </i>
   <i type="logical" name="LFXCEPS"> F  </i>
   <i type="logical" name="LFXHEG"> F  </i>
   <i type="int" name="NATURALO">     2</i>
   <i type="logical" name="LHOLEGF"> F  </i>
   <i type="logical" name="L2ORDER"> F  </i>
   <i type="logical" name="LDMP1"> F  </i>
   <i type="logical" name="LMP2LT"> F  </i>
   <i type="logical" name="LSMP2LT"> F  </i>
   <i type="logical" name="LGWLF"> F  </i>
   <i name="ENCUTGW">     -1.60000002</i>
   <i name="ENCUTGWSOFT">     -1.60000002</i>
   <i name="ENCUTLF">     -1.00000000</i>
   <i type="logical" name="ESF_SPLINES"> F  </i>
   <i name="ESF_CONV">      0.01000000</i>
   <i type="int" name="ESF_NINTER">    15</i>
   <i type="int" name="LMAXMP2">    -1</i>
   <i name="SCISSOR">      0.00000000</i>
   <i type="int" name="NOMEGA">     0</i>
   <i type="int" name="NOMEGAR">     0</i>
   <i type="int" name="NBANDSGW">    -1</i>
   <i type="int" name="NBANDSO">    -1</i>
   <i type="int" name="NBANDSV">    -1</i>
   <i type="int" name="NELMGW">     1</i>
   <i type="int" name="NELMHF">     1</i>
   <i type="int" name="DIM">     3</i>
   <i type="int" name="IESPILON">     4</i>
   <i type="int" name="ANTIRES">     0</i>
   <i name="OMEGAMAX">    -30.00000000</i>
   <i name="OMEGAMIN">    -30.00000000</i>
   <i name="OMEGATL">   -200.00000000</i>
   <i type="int" name="OMEGAGRID">     0</i>
   <i name="CSHIFT">     -0.10000000</i>
   <i type="logical" name="LSELFENERGY"> F  </i>
   <i type="logical" name="LSPECTRAL"> F  </i>
   <i type="logical" name="LSPECTRALGW"> F  </i>
   <i type="logical" name="LSINGLES"> F  </i>
   <i type="logical" name="LFERMIGW"> F  </i>
   <i type="logical" name="ODDONLYGW"> F  </i>
   <i type="logical" name="EVENONLYGW"> F  </i>
   <i type="int" name="NKREDLFX">     1</i>
   <i type="int" name="NKREDLFY">     1</i>
   <i type="int" name="NKREDLFZ">     1</i>
   <i type="int" name="MAXMEM">  2800</i>
   <i type="int" name="TELESCOPE">     0</i>
   <i type="int" name="NTAUPAR">    -1</i>
   <i type="int" name="NOMEGAPAR">    -1</i>
   <i name="DAMP_NEWTON">      0.80000001</i>
   <i name="LAMBDA">      1.00000000</i>
  </separator>
  <separator name="External order field" >
   <i name="OFIELD_KAPPA">      0.00000000</i>
   <v name="OFIELD_K">      0.00000000      0.00000000      0.00000000</v>
   <i name="OFIELD_Q6_NEAR">      0.00000000</i>
   <i name="OFIELD_Q6_FAR">      0.00000000</i>
   <i name="OFIELD_A">      0.00000000</i>
  </separator>
  <separator name="optional k-points parameters" >
   <i type="int" name="KPOINTS_OPT_MODE">     1</i>
   <i type="logical" name="LKPOINTS_OPT"> F  </i>
  </separator>
 </parameters>
 <atominfo>
  <atoms>       8 </atoms>
  <types>       2 </types>
  <array name="atoms" >
   <dimension dim="1">ion</dimension>
   <field type="string">element</field>
   <field type="int">atomtype</field>
   <set>
    <rc><c>As</c><c>   1</c></rc>
    <rc><c>As</c><c>   1</c></rc>
    <rc><c>As</c><c>   1</c></rc>
    <rc><c>As</c><c>   1</c></rc>
    <rc><c>Ga</c><c>   2</c></rc>
    <rc><c>Ga</c><c>   2</c></rc>
    <rc><c>Ga</c><c>   2</c></rc>
    <rc><c>Ga</c><c>   2</c></rc>
   </set>
  </array>
  <array name="atomtypes" >
   <dimension dim="1">type</dimension>
   <field type="int">atomspertype</field>
   <field type="string">element</field>
   <field>mass</field>
   <field>valence</field>
   <field type="string">pseudopotential</field>
   <set>
    <rc><c>   4</c><c>As</c><c>     74.92200000</c><c>      5.00000000</c><c>  PAW_PBE As 22Sep2009                  </c></rc>
    <rc><c>   4</c><c>Ga</c><c>     69.72300000</c><c>      3.00000000</c><c>  PAW_PBE Ga 08Apr2002                  </c></rc>
   </set>
  </array>
 </atominfo>
 <structure name="initialpos" >
  <crystal>
   <varray name="basis" >
    <v>       5.53440798       0.00000000       0.00000000 </v>
    <v>       0.00000000       5.53440798       0.00000000 </v>
    <v>       0.00000000       0.00000000       5.53440798 </v>
   </varray>
   <i name="volume">    169.51709919 </i>
   <varray name="rec_basis" >
    <v>       0.18068780       0.00000000       0.00000000 </v>
    <v>       0.00000000       0.18068780       0.00000000 </v>
    <v>       0.00000000       0.00000000       0.18068780 </v>
   </varray>
  </crystal>
  <varray name="positions" >
   <v>       0.00000000       0.00000000       0.00000000 </v>
   <v>       0.50000000       0.50000000       0.00000000 </v>
   <v>       0.50000000       0.00000000       0.50000000 </v>
   <v>       0.00000000       0.50000000       0.50000000 </v>
   <v>       0.25000000       0.25000000       0.25000000 </v>
   <v>       0.75000000       0.25000000       0.75000000 </v>
   <v>       0.75000000       0.75000000       0.25000000 </v>
   <v>       0.25000000       0.75000000       0.75000000 </v>
  </varray>
 </structure>
 <calculation>
  <scstep>
   <time name="dav">    0.20    0.21</time>
   <time name="total">    0.23    0.24</time>
   <energy>
    <i name="alphaZ">     80.72254942 </i>
    <i name="ewald">   -936.37716530 </i>
    <i name="hartreedc">    -80.13310073 </i>
    <i name="XCdc">   -120.24549975 </i>
    <i name="pawpsdc">   2237.65320647 </i>
    <i name="pawaedc">  -2059.07462457 </i>
    <i name="eentropy">      0.00000000 </i>
    <i name="bandstr">    -71.29980496 </i>
    <i name="atom">    916.21963040 </i>
    <i name="e_fr_energy">    -32.53480904 </i>
    <i name="e_wo_entrp">    -32.53480904 </i>
    <i name="e_0_energy">    -32.53480904 </i>
   </energy>
  </scstep>
  <scstep>
   <time name="dav">    0.19    0.20</time>
   <time name="total">    0.21    0.22</time>
   <energy>
    <i name="alphaZ">     80.72254942 </i>
    <i name="ewald">   -936.37716530 </i>
    <i name="hartreedc">    -80.12888006 </i>
    <i name="XCdc">   -120.24581354 </i>
    <i name="pawpsdc">   2237.70045094 </i>
    <i name="pawaedc">  -2059.12177218 </i>
    <i name="eentropy">      0.00000000 </i>
    <i name="bandstr">    -71.30380831 </i>
    <i name="atom">    916.21963040 </i>
    <i name="e_fr_energy">    -32.53480864 </i>
    <i name="e_wo_entrp">    -32.53480864 </i>
    <i name="e_0_energy">    -32.53480864 </i>
   </energy>
  </scstep>
  <structure>
   <crystal>
    <varray name="basis" >
     <v>       5.53440798       0.00000000       0.00000000 </v>
     <v>       0.00000000       5.53440798       0.00000000 </v>
     <v>       0.00000000       0.00000000       5.53440798 </v>
    </varray>
    <i name="volume">    169.51709919 </i>
    <varray name="rec_basis" >
     <v>       0.18068780       0.00000000       0.00000000 </v>
     <v>       0.00000000       0.18068780       0.00000000 </v>
     <v>       0.00000000       0.00000000       0.18068780 </v>
    </varray>
   </crystal>
   <varray name="positions" >
    <v>       0.00000000       0.00000000       0.00000000 </v>
    <v>       0.50000000       0.50000000       0.00000000 </v>
    <v>       0.50000000       0.00000000       0.50000000 </v>
    <v>       0.00000000       0.50000000       0.50000000 </v>
    <v>       0.25000000       0.25000000       0.25000000 </v>
    <v>       0.75000000       0.25000000       0.75000000 </v>
    <v>       0.75000000       0.75000000       0.25000000 </v>
    <v>       0.25000000       0.75000000       0.75000000 </v>
   </varray>
  </structure>
  <varray name="forces" >
   <v>      -0.00000000       0.00000000       0.00000000 </v>
   <v>       0.00000000      -0.00000000       0.00000000 </v>
   <v>       0.00000000      -0.00000000       0.00000000 </v>
   <v>       0.00000000       0.00000000       0.00000000 </v>
   <v>       0.00000000       0.00000000      -0.00000000 </v>
   <v>      -0.00000000       0.00000000       0.00000000 </v>
   <v>      -0.00000000       0.00000000      -0.00000000 </v>
   <v>      -0.00000000      -0.00000000      -0.00000000 </v>
  </varray>
  <varray name="stress" >
   <v>     100.12231594       0.00000000       0.00000000 </v>
   <v>       0.00000000     100.12231594       0.00000000 </v>
   <v>      -0.00000000      -0.00000000     100.12231594 </v>
  </varray>
  <energy>
   <i name="e_fr_energy">    -32.53480864 </i>
   <i name="e_wo_entrp">    -32.53480864 </i>
   <i name="e_0_energy">    -32.53480864 </i>
  </energy>
  <time name="totalsc">    1.06    1.12</time>
  <eigenvalues>
   <array>
    <dimension dim="1">band</dimension>
    <dimension dim="2">kpoint</dimension>
    <dimension dim="3">spin</dimension>
    <field>eigene</field>
    <field>occ</field>
    <set>
     <set comment="spin 1">
      <set comment="kpoint 1">
       <r>   -9.8867    1.0000 </r>
       <r>   -7.2631    1.0000 </r>
       <r>   -7.2631    1.0000 </r>
       <r>   -7.2631    1.0000 </r>
       <r>   -3.7964    1.0000 </r>
       <r>   -3.7964    1.0000 </r>
       <r>   -3.7964    1.0000 </r>
       <r>    0.3984    1.0000 </r>
       <r>    0.3984    1.0000 </r>
       <r>    0.3984    1.0000 </r>
       <r>    0.3984    1.0000 </r>
       <r>    0.3984    1.0000 </r>
       <r>    0.3984    1.0000 </r>
       <r>    3.2970    1.0000 </r>
       <r>    3.2970    1.0000 </r>
       <r>    3.2970    1.0000 </r>
       <r>    4.3761    0.0000 </r>
       <r>    4.6363    0.0000 </r>
       <r>    4.6363    0.0000 </r>
       <r>    4.6363    0.0000 </r>
       <r>    4.9346    0.0000 </r>
       <r>    4.9346    0.0000 </r>
       <r>    4.9346    0.0000 </r>
       <r>    7.0791    0.0000 </r>
      </set>
      <set comment="kpoint 2">
       <r>   -9.7307    1.0000 </r>
       <r>   -7.7290    1.0000 </r>
       <r>   -7.2440    1.0000 </r>
       <r>   -7.2440    1.0000 </r>
       <r>   -3.7237    1.0000 </r>
       <r>   -3.7237    1.0000 </r>
       <r>   -3.1200    1.0000 </r>
       <r>    0.0276    1.0000 </r>
       <r>    0.0276    1.0000 </r>
       <r>    0.1010    1.0000 </r>
       <r>    0.1010    1.0000 </r>
       <r>    0.5733    1.0000 </r>
       <r>    0.5733    1.0000 </r>
       <r>    1.8496    1.0000 </r>
       <r>    2.7897    1.0000 </r>
       <r>    2.7897    1.0000 </r>
       <r>    4.6372    0.0000 </r>
       <r>    5.3814    0.0000 </r>
       <r>    5.4258    0.0000 </r>
       <r>    5.4258    0.0000 </r>
       <r>    5.7358    0.0000 </r>
       <r>    5.7358    0.0000 </r>
       <r>    5.7405    0.0000 </r>
       <r>    6.5882    0.0000 </r>
      </set>
      <set comment="kpoint 3">
       <r>   -9.2736    1.0000 </r>
       <r>   -8.5595    1.0000 </r>
       <r>   -7.2125    1.0000 </r>
       <r>   -7.2125    1.0000 </r>
       <r>   -3.5898    1.0000 </r>
       <r>   -3.5898    1.0000 </r>
       <r>   -1.6716    1.0000 </r>
       <r>   -0.4837    1.0000 </r>
       <r>   -0.4837    1.0000 </r>
       <r>   -0.2847    1.0000 </r>
       <r>   -0.2847    1.0000 </r>
       <r>    0.0410    1.0000 </r>
       <r>    1.0839    1.0000 </r>
       <r>    1.0839    1.0000 </r>
       <r>    1.8765    1.0000 </r>
       <r>    1.8765    1.0000 </r>
       <r>    4.9572    0.0000 </r>
       <r>    5.6218    0.0000 </r>
       <r>    6.3029    0.0000 </r>
       <r>    6.9189    0.0000 </r>
       <r>    7.2574    0.0000 </r>
       <r>    7.2574    0.0000 </r>
       <r>    7.5443    0.0000 </r>
       <r>    7.5443    0.0000 </r>
      </set>
      <set comment="kpoint 4">
       <r>   -9.5783    1.0000 </r>
       <r>   -7.6655    1.0000 </r>
       <r>   -7.6655    1.0000 </r>
       <r>   -7.2669    1.0000 </r>
       <r>   -3.6528    1.0000 </r>
       <r>   -3.1603    1.0000 </r>
       <r>   -3.1603    1.0000 </r>
       <r>   -0.6774    1.0000 </r>
       <r>    0.1135    1.0000 </r>
       <r>    0.1135    1.0000 </r>
       <r>    0.4457    1.0000 </r>
       <r>    0.4457    1.0000 </r>
       <r>    0.6903    1.0000 </r>
       <r>    0.8145    1.0000 </r>
       <r>    2.2556    1.0000 </r>
       <r>    3.1137    1.0000 </r>
       <r>    5.0664    0.0000 </r>
       <r>    5.4838    0.0000 </r>
       <r>    5.4838    0.0000 </r>
       <r>    5.7470    0.0000 </r>
       <r>    6.0860    0.0000 </r>
       <r>    6.0860    0.0000 </r>
       <r>    7.1495    0.0000 </r>
       <r>    7.3046    0.0000 </r>
      </set>
      <set comment="kpoint 5">
       <r>   -9.1337    1.0000 </r>
       <r>   -8.4463    1.0000 </r>
       <r>   -7.5112    1.0000 </r>
       <r>   -7.3549    1.0000 </r>
       <r>   -3.4819    1.0000 </r>
       <r>   -3.2922    1.0000 </r>
       <r>   -1.9681    1.0000 </r>
       <r>   -0.9450    1.0000 </r>
       <r>   -0.6049    1.0000 </r>
       <r>   -0.6008    1.0000 </r>
       <r>    0.3973    1.0000 </r>
       <r>    0.5603    1.0000 </r>
       <r>    0.6291    1.0000 </r>
       <r>    1.2454    1.0000 </r>
       <r>    1.3286    1.0000 </r>
       <r>    2.3253    1.0000 </r>
       <r>    5.8303    0.0000 </r>
       <r>    6.1283    0.0000 </r>
       <r>    6.3758    0.0000 </r>
       <r>    6.8107    0.0000 </r>
       <r>    6.8212    0.0000 </r>
       <r>    7.3091    0.0000 </r>
       <r>    7.7082    0.0000 </r>
       <r>    8.5116    0.0000 </r>
      </set>
      <set comment="kpoint 6">
       <r>   -8.7317    1.0000 </r>
       <r>   -8.1347    1.0000 </r>
       <r>   -8.1347    1.0000 </r>
       <r>   -7.7172    1.0000 </r>
       <r>   -3.1397    1.0000 </r>
       <r>   -2.5802    1.0000 </r>
       <r>   -2.5802    1.0000 </r>
       <r>   -1.6406    1.0000 </r>
       <r>   -0.8774    1.0000 </r>
       <r>   -0.2956    1.0000 </r>
       <r>   -0.2956    1.0000 </r>
       <r>    0.4115    1.0000 </r>
       <r>    1.4780    1.0000 </r>
       <r>    1.5436    1.0000 </r>
       <r>    1.5436    1.0000 </r>
       <r>    2.4506    1.0000 </r>
       <r>    5.8329    0.0000 </r>
       <r>    6.3105    0.0000 </r>
       <r>    6.8304    0.0000 </r>
       <r>    6.8304    0.0000 </r>
       <r>    7.8541    0.0000 </r>
       <r>    7.8541    0.0000 </r>
       <r>    8.3764    0.0000 </r>
       <r>    8.4193    0.0000 </r>
      </set>
      <set comment="kpoint 7">
       <r>   -9.4304    1.0000 </r>
       <r>   -7.6328    1.0000 </r>
       <r>   -7.6328    1.0000 </r>
       <r>   -7.6328    1.0000 </r>
       <r>   -3.2491    1.0000 </r>
       <r>   -3.2491    1.0000 </r>
       <r>   -3.2491    1.0000 </r>
       <r>   -0.3160    1.0000 </r>
       <r>   -0.3160    1.0000 </r>
       <r>   -0.3160    1.0000 </r>
       <r>   -0.0734    1.0000 </r>
       <r>    0.8506    1.0000 </r>
       <r>    0.8506    1.0000 </r>
       <r>    0.8506    1.0000 </r>
       <r>    2.7476    1.0000 </r>
       <r>    2.7476    1.0000 </r>
       <r>    5.1722    0.0000 </r>
       <r>    5.2587    0.0000 </r>
       <r>    5.2587    0.0000 </r>
       <r>    5.2587    0.0000 </r>
       <r>    7.3352    0.0000 </r>
       <r>    7.3352    0.0000 </r>
       <r>    7.3352    0.0000 </r>
       <r>    7.8244    0.0000 </r>
      </set>
      <set comment="kpoint 8">
       <r>   -9.0014    1.0000 </r>
       <r>   -8.3486    1.0000 </r>
       <r>   -7.5773    1.0000 </r>
       <r>   -7.5773    1.0000 </r>
       <r>   -3.4077    1.0000 </r>
       <r>   -3.4077    1.0000 </r>
       <r>   -2.3745    1.0000 </r>
       <r>   -1.2967    1.0000 </r>
       <r>   -0.5070    1.0000 </r>
       <r>   -0.5070    1.0000 </r>
       <r>    0.6770    1.0000 </r>
       <r>    0.8758    1.0000 </r>
       <r>    0.8758    1.0000 </r>
       <r>    1.3128    1.0000 </r>
       <r>    1.9854    1.0000 </r>
       <r>    2.0065    1.0000 </r>
       <r>    5.7389    0.0000 </r>
       <r>    5.7475    0.0000 </r>
       <r>    6.2686    0.0000 </r>
       <r>    6.2686    0.0000 </r>
       <r>    7.3856    0.0000 </r>
       <r>    7.6481    0.0000 </r>
       <r>    8.2667    0.0000 </r>
       <r>    8.2667    0.0000 </r>
      </set>
      <set comment="kpoint 9">
       <r>   -8.6271    1.0000 </r>
       <r>   -8.0922    1.0000 </r>
       <r>   -8.0922    1.0000 </r>
       <r>   -7.7884    1.0000 </r>
       <r>   -3.4204    1.0000 </r>
       <r>   -3.0349    1.0000 </r>
       <r>   -3.0349    1.0000 </r>
       <r>   -2.2932    1.0000 </r>
       <r>   -0.1452    1.0000 </r>
       <r>    0.3708    1.0000 </r>
       <r>    0.3708    1.0000 </r>
       <r>    1.2442    1.0000 </r>
       <r>    1.5765    1.0000 </r>
       <r>    1.6188    1.0000 </r>
       <r>    1.6188    1.0000 </r>
       <r>    2.3733    1.0000 </r>
       <r>    5.5331    0.0000 </r>
       <r>    5.8669    0.0000 </r>
       <r>    6.2252    0.0000 </r>
       <r>    6.2252    0.0000 </r>
       <r>    7.5357    0.0000 </r>
       <r>    7.5357    0.0000 </r>
       <r>    8.1062    0.0000 </r>
       <r>    8.1378    0.0000 </r>
      </set>
      <set comment="kpoint 10">
       <r>   -8.3505    1.0000 </r>
       <r>   -8.0190    1.0000 </r>
       <r>   -8.0190    1.0000 </r>
       <r>   -8.0190    1.0000 </r>
       <r>   -3.5524    1.0000 </r>
       <r>   -3.5524    1.0000 </r>
       <r>   -3.5524    1.0000 </r>
       <r>   -3.1347    1.0000 </r>
       <r>    1.2533    1.0000 </r>
       <r>    1.2533    1.0000 </r>
       <r>    1.2533    1.0000 </r>
       <r>    1.8349    1.0000 </r>
       <r>    1.8349    1.0000 </r>
       <r>    1.8349    1.0000 </r>
       <r>    2.1454    1.0000 </r>
       <r>    2.1454    1.0000 </r>
       <r>    4.6112    0.0000 </r>
       <r>    5.3466    0.0000 </r>
       <r>    5.3466    0.0000 </r>
       <r>    5.3466    0.0000 </r>
       <r>    7.6946    0.0000 </r>
       <r>    7.6946    0.0000 </r>
       <r>    7.6946    0.0000 </r>
       <r>    8.0265    0.0000 </r>
      </set>
     </set>
    </set>
   </array>
  </eigenvalues>
  <separator name="orbital magnetization" >
   <v name="MAGDIPOLOUT">      0.00000000      0.00000000      0.00000000</v>
  </separator>
  <dielectricfunction comment="density-density">
   <imag>
    <array>
     <dimension dim="1">gridpoints</dimension>
     <field>energy</field>
     <field>xx</field>
     <field>yy</field>
     <field>zz</field>
     <field>xy</field>
     <field>yz</field>
     <field>zx</field>
     <set>
      <r>     0.0000     0.0000     0.0000     0.0000     0.0000     0.0000     0.0000 </r>
      <r>     0.0221     0.0043     0.0043     0.0043     0.0000    -0.0000     0.0000 </r>
      <r>     0.0442     0.0086     0.0086     0.0086     0.0000    -0.0000     0.0000 </r>
      <r>     0.0663     0.0130     0.0130     0.0130     0.0000    -0.0000     0.0000 </r>
      <r>     0.0884     0.0173     0.0173     0.0173     0.0000    -0.0000     0.0000 </r>
      <r>     0.1105     0.0217     0.0217     0.0217     0.0000    -0.0000     0.0000 </r>
      <r>     0.1326     0.0260     0.0260     0.0260     0.0000    -0.0000     0.0000 </r>
      <r>     0.1547     0.0304     0.0304     0.0304     0.0000    -0.0000     0.0000 </r>
      <r>     0.1768     0.0349     0.0349     0.0349     0.0000    -0.0000     0.0000 </r>
      <r>     0.1989     0.0393     0.0393     0.0393     0.0000    -0.0000     0.0000 </r>
      <r>     0.2210     0.0439     0.0439     0.0439     0.0000    -0.0000     0.0000 </r>
      <r>     0.2431     0.0484     0.0484     0.0484     0.0000    -0.0000     0.0000 </r>
      <r>     0.2652     0.0530     0.0530     0.0530     0.0000    -0.0000     0.0000 </r>
      <r>     0.2873     0.0577     0.0577     0.0577     0.0000    -0.0000     0.0000 </r>
      <r>     0.3094     0.0624     0.0624     0.0624     0.0000    -0.0000     0.0000 </r>
      <r>     0.3315     0.0672     0.0672     0.0672     0.0000    -0.0000     0.0000 </r>
      <r>     0.3536     0.0720     0.0720     0.0720     0.0000    -0.0000     0.0000 </r>
      <r>     0.3757     0.0770     0.0770     0.0770     0.0000    -0.0000     0.0000 </r>
      <r>     0.3978     0.0820     0.0820     0.0820     0.0000    -0.0000     0.0000 </r>
      <r>     0.4199     0.0871     0.0871     0.0871     0.0000    -0.0000     0.0000 </r>
      <r>     0.4420     0.0923     0.0923     0.0923     0.0000    -0.0000     0.0000 </r>
      <r>     0.4641     0.0976     0.0976     0.0976     0.0000    -0.0000     0.0000 </r>
      <r>     0.4862     0.1031     0.1031     0.1031     0.0000    -0.0000     0.0000 </r>
      <r>     0.5083     0.1086     0.1086     0.1086     0.0000    -0.0000     0.0000 </r>
      <r>     0.5304     0.1144     0.1144     0.1144     0.0000    -0.0000     0.0000 </r>
      <r>     0.5525     0.1202     0.1202     0.1202     0.0000    -0.0000     0.0000 </r>
      <r>     0.5746     0.1263     0.1263     0.1263     0.0000    -0.0000     0.0000 </r>
      <r>     0.5967     0.1325     0.1325     0.1325     0.0000    -0.0000     0.0000 </r>
      <r>     0.6188     0.1389     0.1389     0.1389     0.0000    -0.0000     0.0000 </r>
      <r>     0.6409     0.1455     0.1455     0.1455     0.0000    -0.0000     0.0000 </r>
      <r>     0.6630     0.1523     0.1523     0.1523     0.0000    -0.0000     0.0000 </r>
      <r>     0.6851     0.1594     0.1594     0.1594     0.0000    -0.0000     0.0000 </r>
      <r>     0.7072     0.1668     0.1668     0.1668     0.0000    -0.0000     0.0000 </r>
      <r>     0.7293     0.1744     0.1744     0.1744     0.0000    -0.0000     0.0000 </r>
      <r>     0.7514     0.1824     0.1824     0.1824     0.0000    -0.0000     0.0000 </r>
      <r>     0.7735     0.1908     0.1908     0.1908     0.0000    -0.0000     0.0000 </r>
      <r>     0.7956     0.1996     0.1996     0.1996     0.0000    -0.0000     0.0000 </r>
      <r>     0.8177     0.2088     0.2088     0.2088     0.0000    -0.0000     0.0000 </r>
      <r>     0.8398     0.2185     0.2185     0.2185     0.0000    -0.0000     0.0000 </r>
      <r>     0.8619     0.2288     0.2288     0.2288     0.0000    -0.0000     0.0000 </r>
      <r>     0.8840     0.2398     0.2398     0.2398     0.0000    -0.0000     0.0000 </r>
      <r>     0.9061     0.2515     0.2515     0.2515     0.0000    -0.0000     0.0000 </r>
      <r>     0.9282     0.2640     0.2640     0.2640     0.0000    -0.0000     0.0000 </r>
      <r>     0.9503     0.2775     0.2775     0.2775     0.0000    -0.0000     0.0000 </r>
      <r>     0.9724     0.2922     0.2922     0.2922     0.0000    -0.0000     0.0000 </r>
      <r>     0.9945     0.3083     0.3083     0.3083     0.0000    -0.0000     0.0000 </r>
      <r>     1.0166     0.3260     0.3260     0.3260     0.0000    -0.0000     0.0000 </r>
      <r>     1.0387     0.3457     0.3457     0.3457     0.0000    -0.0000     0.0000 </r>
      <r>     1.0608     0.3678     0.3678     0.3678     0.0000    -0.0000     0.0000 </r>
      <r>     1.0829     0.3928     0.3928     0.3928     0.0000    -0.0000     0.0000 </r>
      <r>     1.1050     0.4212     0.4212     0.4212     0.0000    -0.0000     0.0000 </r>
      <r>     1.1271     0.4534     0.4534     0.4534     0.0000    -0.0000     0.0000 </r>
      <r>     1.1492     0.4901     0.4901     0.4901     0.0000    -0.0000     0.0000 </r>
      <r>     1.1713     0.5314     0.5314     0.5314     0.0000    -0.0000     0.0000 </r>
      <r>     1.1934     0.5778     0.5778     0.5778     0.0000    -0.0000     0.0000 </r>
      <r>     1.2155     0.6295     0.6295     0.6295     0.0000    -0.0000     0.0000 </r>
      <r>     1.2376     0.6866     0.6866     0.6866     0.0000    -0.0000     0.0000 </r>
      <r>     1.2597     0.7492     0.7492     0.7492     0.0000    -0.0000     0.0000 </r>
      <r>     1.2818     0.8175     0.8175     0.8175     0.0000    -0.0000     0.0000 </r>
      <r>     1.3039     0.8915     0.8915     0.8915     0.0000     0.0000     0.0000 </r>
      <r>     1.3260     0.9713     0.9713     0.9713     0.0000     0.0000     0.0000 </r>
      <r>     1.3481     1.0568     1.0568     1.0568     0.0000     0.0000     0.0000 </r>
      <r>     1.3702     1.1482     1.1482     1.1482     0.0000     0.0000     0.0000 </r>
      <r>     1.3923     1.2452     1.2452     1.2452     0.0000     0.0000     0.0000 </r>
      <r>     1.4144     1.3479     1.3479     1.3479     0.0000     0.0000     0.0000 </r>
      <r>     1.4365     1.4563     1.4563     1.4563     0.0000     0.0000     0.0000 </r>
      <r>     1.4586     1.5700     1.5700     1.5700     0.0000     0.0000     0.0000 </r>
      <r>     1.4807     1.6891     1.6891     1.6891     0.0000     0.0000     0.0000 </r>
      <r>     1.5028     1.8133     1.8133     1.8133     0.0000     0.0000     0.0000 </r>
      <r>     1.5249     1.9423     1.9423     1.9423     0.0000     0.0000     0.0000 </r>
      <r>     1.5470     2.0758     2.0758     2.0758     0.0000     0.0000     0.0000 </r>
      <r>     1.5691     2.2134     2.2134     2.2134     0.0000     0.0000     0.0000 </r>
      <r>     1.5912     2.3546     2.3546     2.3546     0.0000     0.0000     0.0000 </r>
      <r>     1.6133     2.4987     2.4987     2.4987     0.0000     0.0000     0.0000 </r>
      <r>     1.6354     2.6450     2.6450     2.6450     0.0000     0.0000     0.0000 </r>
      <r>     1.6575     2.7924     2.7924     2.7924     0.0000     0.0000     0.0000 </r>
      <r>     1.6796     2.9395     2.9395     2.9395     0.0000     0.0000     0.0000 </r>
      <r>     1.7017     3.0846     3.0846     3.0846     0.0000     0.0000     0.0000 </r>
      <r>     1.7238     3.2254     3.2254     3.2254     0.0000     0.0000     0.0000 </r>
      <r>     1.7459     3.3589     3.3589     3.3589     0.0000     0.0000     0.0000 </r>
      <r>     1.7680     3.4813     3.4813     3.4813     0.0000     0.0000     0.0000 </r>
      <r>     1.7901     3.5880     3.5880     3.5880     0.0000     0.0000     0.0000 </r>
      <r>     1.8122     3.6740     3.6740     3.6740     0.0000     0.0000     0.0000 </r>
      <r>     1.8343     3.7355     3.7355     3.7355     0.0000     0.0000     0.0000 </r>
      <r>     1.8564     3.7719     3.7719     3.7719     0.0000     0.0000     0.0000 </r>
      <r>     1.8785     3.7867     3.7867     3.7867     0.0000     0.0000     0.0000 </r>
      <r>     1.9006     3.7870     3.7870     3.7870     0.0000     0.0000     0.0000 </r>
      <r>     1.9227     3.7802     3.7802     3.7802     0.0000     0.0000     0.0000 </r>
      <r>     1.9448     3.7714     3.7714     3.7714     0.0000     0.0000     0.0000 </r>
      <r>     1.9669     3.7630     3.7630     3.7630     0.0000     0.0000     0.0000 </r>
      <r>     1.9890     3.7559     3.7559     3.7559     0.0000     0.0000     0.0000 </r>
      <r>     2.0111     3.7504     3.7504     3.7504     0.0000     0.0000     0.0000 </r>
      <r>     2.0332     3.7475     3.7475     3.7475     0.0000     0.0000     0.0000 </r>
      <r>     2.0553     3.7481     3.7481     3.7481     0.0000     0.0000     0.0000 </r>
      <r>     2.0774     3.7533     3.7533     3.7533     0.0000     0.0000     0.0000 </r>
      <r>     2.0995     3.7643     3.7643     3.7643     0.0000     0.0000     0.0000 </r>
      <r>     2.1216     3.7823     3.7823     3.7823     0.0000    -0.0000     0.0000 </r>
      <r>     2.1437     3.8087     3.8087     3.8087     0.0000    -0.0000     0.0000 </r>
      <r>     2.1658     3.8449     3.8449     3.8449     0.0000    -0.0000     0.0000 </r>
      <r>     2.1879     3.8928     3.8928     3.8928     0.0000    -0.0000     0.0000 </r>
      <r>     2.2100     3.9544     3.9544     3.9544     0.0000    -0.0000     0.0000 </r>
      <r>     2.2321     4.0326     4.0326     4.0326     0.0000    -0.0000     0.0000 </r>
      <r>     2.2542     4.1309     4.1309     4.1309     0.0000    -0.0000     0.0000 </r>
      <r>     2.2763     4.2539     4.2539     4.2539     0.0000    -0.0000     0.0000 </r>
      <r>     2.2984     4.4079     4.4079     4.4079     0.0000    -0.0000     0.0000 </r>
      <r>     2.3205     4.6010     4.6010     4.6010     0.0000    -0.0000     0.0000 </r>
      <r>     2.3426     4.8437     4.8437     4.8437     0.0000    -0.0000     0.0000 </r>
      <r>     2.3647     5.1488     5.1488     5.1488     0.0000    -0.0000     0.0000 </r>
      <r>     2.3868     5.5288     5.5288     5.5288     0.0000    -0.0000     0.0000 </r>
      <r>     2.4089     5.9899     5.9899     5.9899     0.0000    -0.0000     0.0000 </r>
      <r>     2.4310     6.5179     6.5179     6.5179     0.0000    -0.0000     0.0000 </r>
      <r>     2.4531     7.0630     7.0630     7.0630     0.0000    -0.0000     0.0000 </r>
      <r>     2.4752     7.5506     7.5506     7.5506     0.0000    -0.0000     0.0000 </r>
      <r>     2.4973     7.9340     7.9340     7.9340     0.0000    -0.0000     0.0000 </r>
      <r>     2.5194     8.2363     8.2363     8.2363     0.0000    -0.0000     0.0000 </r>
      <r>     2.5415     8.5168     8.5168     8.5168     0.0000    -0.0000     0.0000 </r>
      <r>     2.5636     8.8148     8.8148     8.8148     0.0000    -0.0000     0.0000 </r>
      <r>     2.5857     9.1297     9.1297     9.1297     0.0000    -0.0000     0.0000 </r>
      <r>     2.6078     9.4299     9.4299     9.4299     0.0000    -0.0000     0.0000 </r>
      <r>     2.6299     9.6704     9.6704     9.6704     0.0000    -0.0000     0.0000 </r>
      <r>     2.6520     9.8174     9.8174     9.8174     0.0000    -0.0000     0.0000 </r>
      <r>     2.6741     9.8739     9.8739     9.8739     0.0000    -0.0000     0.0000 </r>
      <r>     2.6962     9.8805     9.8805     9.8805     0.0000    -0.0000     0.0000 </r>
      <r>     2.7183     9.8845     9.8845     9.8845     0.0000    -0.0000     0.0000 </r>
      <r>     2.7404     9.9145     9.9145     9.9145     0.0000    -0.0000     0.0000 </r>
      <r>     2.7625     9.9787     9.9787     9.9787     0.0000    -0.0000     0.0000 </r>
      <r>     2.7846    10.0745    10.0745    10.0745     0.0000    -0.0000     0.0000 </r>
      <r>     2.8067    10.1959    10.1959    10.1959     0.0000    -0.0000     0.0000 </r>
      <r>     2.8288    10.3373    10.3373    10.3373    -0.0000    -0.0000     0.0000 </r>
      <r>     2.8509    10.4941    10.4941    10.4941    -0.0000    -0.0000     0.0000 </r>
      <r>     2.8730    10.6627    10.6627    10.6627    -0.0000    -0.0000     0.0000 </r>
      <r>     2.8951    10.8408    10.8408    10.8408    -0.0000    -0.0000     0.0000 </r>
      <r>     2.9172    11.0269    11.0269    11.0269    -0.0000    -0.0000     0.0000 </r>
      <r>     2.9393    11.2197    11.2197    11.2197    -0.0000    -0.0000     0.0000 </r>
      <r>     2.9614    11.4188    11.4188    11.4188    -0.0000    -0.0000     0.0000 </r>
      <r>     2.9835    11.6239    11.6239    11.6239    -0.0000    -0.0000     0.0000 </r>
      <r>     3.0056    11.8349    11.8349    11.8349    -0.0000     0.0000     0.0000 </r>
      <r>     3.0277    12.0528    12.0528    12.0528    -0.0000     0.0000     0.0000 </r>
      <r>     3.0498    12.2790    12.2790    12.2790    -0.0000     0.0000     0.0000 </r>
      <r>     3.0719    12.5152    12.5152    12.5152    -0.0000     0.0000     0.0000 </r>
      <r>     3.0940    12.7634    12.7634    12.7634     0.0000     0.0000     0.0000 </r>
      <r>     3.1161    13.0244    13.0244    13.0244     0.0000     0.0000     0.0000 </r>
      <r>     3.1382    13.2954    13.2954    13.2954     0.0000     0.0000     0.0000 </r>
      <r>     3.1603    13.5692    13.5692    13.5692     0.0000     0.0000     0.0000 </r>
      <r>     3.1824    13.8358    13.8358    13.8358     0.0000     0.0000     0.0000 </r>
      <r>     3.2045    14.0861    14.0861    14.0861     0.0000     0.0000     0.0000 </r>
      <r>     3.2266    14.3150    14.3150    14.3150     0.0000     0.0000    -0.0000 </r>
      <r>     3.2487    14.5203    14.5203    14.5203     0.0000     0.0000    -0.0000 </r>
      <r>     3.2708    14.7018    14.7018    14.7018    -0.0000     0.0000    -0.0000 </r>
      <r>     3.2929    14.8603    14.8603    14.8603    -0.0000     0.0000    -0.0000 </r>
      <r>     3.3150    14.9972    14.9972    14.9972    -0.0000     0.0000    -0.0000 </r>
      <r>     3.3371    15.1154    15.1154    15.1154     0.0000     0.0000    -0.0000 </r>
      <r>     3.3592    15.2209    15.2209    15.2209     0.0000     0.0000    -0.0000 </r>
      <r>     3.3813    15.3251    15.3251    15.3251     0.0000     0.0000    -0.0000 </r>
      <r>     3.4034    15.4470    15.4470    15.4470     0.0000     0.0000    -0.0000 </r>
      <r>     3.4255    15.6097    15.6097    15.6097     0.0000     0.0000    -0.0000 </r>
      <r>     3.4476    15.8318    15.8318    15.8318    -0.0000     0.0000    -0.0000 </r>
      <r>     3.4697    16.1126    16.1126    16.1126    -0.0000     0.0000    -0.0000 </r>
      <r>     3.4918    16.4188    16.4188    16.4188    -0.0000     0.0000    -0.0000 </r>
      <r>     3.5139    16.6909    16.6909    16.6909    -0.0000     0.0000    -0.0000 </r>
      <r>     3.5360    16.8860    16.8860    16.8860    -0.0000     0.0000    -0.0000 </r>
      <r>     3.5581    17.0142    17.0142    17.0142    -0.0000     0.0000    -0.0000 </r>
      <r>     3.5802    17.1191    17.1191    17.1191    -0.0000     0.0000    -0.0000 </r>
      <r>     3.6023    17.2391    17.2391    17.2391    -0.0000     0.0000    -0.0000 </r>
      <r>     3.6244    17.3946    17.3946    17.3946     0.0000     0.0000    -0.0000 </r>
      <r>     3.6465    17.5945    17.5945    17.5945     0.0000     0.0000     0.0000 </r>
      <r>     3.6686    17.8418    17.8418    17.8418     0.0000     0.0000     0.0000 </r>
      <r>     3.6907    18.1328    18.1328    18.1328     0.0000     0.0000     0.0000 </r>
      <r>     3.7128    18.4471    18.4471    18.4471     0.0000     0.0000     0.0000 </r>
      <r>     3.7349    18.7321    18.7321    18.7321     0.0000     0.0000     0.0000 </r>
      <r>     3.7570    18.8975    18.8975    18.8975     0.0000     0.0000     0.0000 </r>
      <r>     3.7791    18.8472    18.8472    18.8472     0.0000     0.0000     0.0000 </r>
      <r>     3.8012    18.5358    18.5358    18.5358     0.0000     0.0000     0.0000 </r>
      <r>     3.8233    18.0037    18.0037    18.0037     0.0000     0.0000     0.0000 </r>
      <r>     3.8454    17.3614    17.3614    17.3614     0.0000     0.0000     0.0000 </r>
      <r>     3.8675    16.7392    16.7392    16.7392     0.0000     0.0000     0.0000 </r>
      <r>     3.8896    16.2386    16.2386    16.2386     0.0000     0.0000     0.0000 </r>
      <r>     3.9117    15.9114    15.9114    15.9114     0.0000     0.0000     0.0000 </r>
      <r>     3.9338    15.7688    15.7688    15.7688     0.0000     0.0000     0.0000 </r>
      <r>     3.9559    15.7990    15.7990    15.7990    -0.0000     0.0000     0.0000 </r>
      <r>     3.9780    15.9814    15.9814    15.9814    -0.0000     0.0000     0.0000 </r>
      <r>     4.0001    16.2925    16.2925    16.2925    -0.0000     0.0000     0.0000 </r>
      <r>     4.0222    16.7073    16.7073    16.7073    -0.0000     0.0000     0.0000 </r>
      <r>     4.0443    17.1978    17.1978    17.1978    -0.0000     0.0000     0.0000 </r>
      <r>     4.0664    17.7312    17.7312    17.7312     0.0000     0.0000     0.0000 </r>
      <r>     4.0885    18.2729    18.2729    18.2729     0.0000     0.0000    -0.0000 </r>
      <r>     4.1106    18.7947    18.7947    18.7947     0.0000    -0.0000    -0.0000 </r>
      <r>     4.1327    19.2817    19.2817    19.2817     0.0000    -0.0000    -0.0000 </r>
      <r>     4.1548    19.7336    19.7336    19.7336     0.0000    -0.0000    -0.0000 </r>
      <r>     4.1769    20.1575    20.1575    20.1575     0.0000    -0.0000    -0.0000 </r>
      <r>     4.1990    20.5602    20.5602    20.5602     0.0000    -0.0000    -0.0000 </r>
      <r>     4.2211    20.9465    20.9465    20.9465     0.0000    -0.0000    -0.0000 </r>
      <r>     4.2432    21.3184    21.3184    21.3184     0.0000    -0.0000    -0.0000 </r>
      <r>     4.2653    21.6756    21.6756    21.6756     0.0000    -0.0000    -0.0000 </r>
      <r>     4.2874    22.0133    22.0133    22.0133     0.0000    -0.0000    -0.0000 </r>
      <r>     4.3095    22.3210    22.3210    22.3210     0.0000    -0.0000    -0.0000 </r>
      <r>     4.3316    22.5840    22.5840    22.5840     0.0000    -0.0000    -0.0000 </r>
      <r>     4.3537    22.7894    22.7894    22.7894     0.0000    -0.0000     0.0000 </r>
      <r>     4.3758    22.9302    22.9302    22.9302     0.0000    -0.0000     0.0000 </r>
      <r>     4.3979    23.0038    23.0038    23.0038     0.0000    -0.0000    -0.0000 </r>
      <r>     4.4200    23.0087    23.0087    23.0087     0.0000    -0.0000    -0.0000 </r>
      <r>     4.4421    22.9444    22.9444    22.9444     0.0000    -0.0000    -0.0000 </r>
      <r>     4.4642    22.8153    22.8153    22.8153     0.0000    -0.0000    -0.0000 </r>
      <r>     4.4863    22.6296    22.6296    22.6296     0.0000    -0.0000    -0.0000 </r>
      <r>     4.5084    22.3974    22.3974    22.3974     0.0000    -0.0000    -0.0000 </r>
      <r>     4.5305    22.1291    22.1291    22.1291     0.0000    -0.0000    -0.0000 </r>
      <r>     4.5526    21.8372    21.8372    21.8372     0.0000    -0.0000    -0.0000 </r>
      <r>     4.5747    21.5392    21.5392    21.5392    -0.0000     0.0000    -0.0000 </r>
      <r>     4.5968    21.2562    21.2562    21.2562    -0.0000     0.0000    -0.0000 </r>
      <r>     4.6189    21.0077    21.0077    21.0077    -0.0000     0.0000    -0.0000 </r>
      <r>     4.6410    20.8032    20.8032    20.8032    -0.0000     0.0000    -0.0000 </r>
      <r>     4.6631    20.6414    20.6414    20.6414    -0.0000     0.0000    -0.0000 </r>
      <r>     4.6852    20.5133    20.5133    20.5133    -0.0000     0.0000    -0.0000 </r>
      <r>     4.7073    20.4074    20.4074    20.4074    -0.0000     0.0000    -0.0000 </r>
      <r>     4.7294    20.3117    20.3117    20.3117    -0.0000     0.0000    -0.0000 </r>
      <r>     4.7515    20.2136    20.2136    20.2136    -0.0000     0.0000    -0.0000 </r>
      <r>     4.7736    20.0995    20.0995    20.0995    -0.0000     0.0000    -0.0000 </r>
      <r>     4.7957    19.9577    19.9577    19.9577    -0.0000     0.0000     0.0000 </r>
      <r>     4.8178    19.7844    19.7844    19.7844    -0.0000     0.0000     0.0000 </r>
      <r>     4.8399    19.5875    19.5875    19.5875    -0.0000     0.0000     0.0000 </r>
      <r>     4.8620    19.3797    19.3797    19.3797    -0.0000     0.0000     0.0000 </r>
      <r>     4.8841    19.1701    19.1701    19.1701     0.0000     0.0000     0.0000 </r>
      <r>     4.9062    18.9620    18.9620    18.9620     0.0000     0.0000     0.0000 </r>
      <r>     4.9283    18.7549    18.7549    18.7549     0.0000     0.0000     0.0000 </r>
      <r>     4.9504    18.5471    18.5471    18.5471     0.0000     0.0000     0.0000 </r>
      <r>     4.9725    18.3377    18.3377    18.3377     0.0000     0.0000     0.0000 </r>
      <r>     4.9946    18.1262    18.1262    18.1262     0.0000     0.0000    -0.0000 </r>
      <r>     5.0167    17.9130    17.9130    17.9130     0.0000     0.0000    -0.0000 </r>
      <r>     5.0388    17.6983    17.6983    17.6983     0.0000     0.0000    -0.0000 </r>
      <r>     5.0609    17.4811    17.4811    17.4811     0.0000     0.0000    -0.0000 </r>
      <r>     5.0830    17.2575    17.2575    17.2575     0.0000     0.0000    -0.0000 </r>
      <r>     5.1051    17.0200    17.0200    17.0200     0.0000     0.0000    -0.0000 </r>
      <r>     5.1272    16.7592    16.7592    16.7592     0.0000     0.0000    -0.0000 </r>
      <r>     5.1493    16.4668    16.4668    16.4668    -0.0000     0.0000    -0.0000 </r>
      <r>     5.1714    16.1385    16.1385    16.1385    -0.0000     0.0000    -0.0000 </r>
      <r>     5.1935    15.7765    15.7765    15.7765    -0.0000     0.0000    -0.0000 </r>
      <r>     5.2156    15.3878    15.3878    15.3878    -0.0000     0.0000    -0.0000 </r>
      <r>     5.2377    14.9818    14.9818    14.9818    -0.0000     0.0000    -0.0000 </r>
      <r>     5.2598    14.5686    14.5686    14.5686    -0.0000     0.0000    -0.0000 </r>
      <r>     5.2819    14.1591    14.1591    14.1591    -0.0000     0.0000    -0.0000 </r>
      <r>     5.3040    13.7655    13.7655    13.7655    -0.0000     0.0000    -0.0000 </r>
      <r>     5.3261    13.3977    13.3977    13.3977    -0.0000     0.0000    -0.0000 </r>
      <r>     5.3482    13.0595    13.0595    13.0595    -0.0000     0.0000    -0.0000 </r>
      <r>     5.3703    12.7474    12.7474    12.7474    -0.0000     0.0000    -0.0000 </r>
      <r>     5.3924    12.4532    12.4532    12.4532     0.0000     0.0000    -0.0000 </r>
      <r>     5.4145    12.1679    12.1679    12.1679     0.0000     0.0000    -0.0000 </r>
      <r>     5.4366    11.8866    11.8866    11.8866     0.0000     0.0000    -0.0000 </r>
      <r>     5.4587    11.6098    11.6098    11.6098     0.0000     0.0000    -0.0000 </r>
      <r>     5.4808    11.3444    11.3444    11.3444     0.0000     0.0000    -0.0000 </r>
      <r>     5.5029    11.1042    11.1042    11.1042     0.0000     0.0000    -0.0000 </r>
      <r>     5.5250    10.9059    10.9059    10.9059     0.0000    -0.0000    -0.0000 </r>
      <r>     5.5471    10.7611    10.7611    10.7611    -0.0000    -0.0000    -0.0000 </r>
      <r>     5.5692    10.6716    10.6716    10.6716    -0.0000    -0.0000    -0.0000 </r>
      <r>     5.5913    10.6288    10.6288    10.6288    -0.0000    -0.0000     0.0000 </r>
      <r>     5.6134    10.6159    10.6159    10.6159    -0.0000    -0.0000     0.0000 </r>
      <r>     5.6355    10.6133    10.6133    10.6133    -0.0000    -0.0000     0.0000 </r>
      <r>     5.6576    10.6124    10.6124    10.6124    -0.0000    -0.0000     0.0000 </r>
      <r>     5.6797    10.6238    10.6238    10.6238    -0.0000    -0.0000     0.0000 </r>
      <r>     5.7018    10.6667    10.6667    10.6667    -0.0000    -0.0000     0.0000 </r>
      <r>     5.7239    10.7529    10.7529    10.7529    -0.0000    -0.0000     0.0000 </r>
      <r>     5.7460    10.8796    10.8796    10.8796    -0.0000    -0.0000     0.0000 </r>
      <r>     5.7681    11.0295    11.0295    11.0295    -0.0000    -0.0000     0.0000 </r>
      <r>     5.7902    11.1790    11.1790    11.1790    -0.0000    -0.0000     0.0000 </r>
      <r>     5.8123    11.3074    11.3074    11.3074    -0.0000    -0.0000     0.0000 </r>
      <r>     5.8344    11.3983    11.3983    11.3983    -0.0000    -0.0000     0.0000 </r>
      <r>     5.8565    11.4294    11.4294    11.4294    -0.0000    -0.0000     0.0000 </r>
      <r>     5.8786    11.3677    11.3677    11.3677    -0.0000    -0.0000    -0.0000 </r>
      <r>     5.9007    11.1851    11.1851    11.1851    -0.0000    -0.0000    -0.0000 </r>
      <r>     5.9228    10.8848    10.8848    10.8848    -0.0000    -0.0000    -0.0000 </r>
      <r>     5.9449    10.5030    10.5030    10.5030    -0.0000    -0.0000    -0.0000 </r>
      <r>     5.9670    10.0850    10.0850    10.0850    -0.0000    -0.0000    -0.0000 </r>
      <r>     5.9891     9.6638     9.6638     9.6638    -0.0000    -0.0000    -0.0000 </r>
      <r>     6.0112     9.2561     9.2561     9.2561    -0.0000    -0.0000     0.0000 </r>
      <r>     6.0333     8.8675     8.8675     8.8675    -0.0000    -0.0000     0.0000 </r>
      <r>     6.0554     8.4980     8.4980     8.4980    -0.0000     0.0000     0.0000 </r>
      <r>     6.0775     8.1457     8.1457     8.1457    -0.0000     0.0000     0.0000 </r>
      <r>     6.0996     7.8080     7.8080     7.8080    -0.0000     0.0000     0.0000 </r>
      <r>     6.1217     7.4825     7.4825     7.4825    -0.0000     0.0000     0.0000 </r>
      <r>     6.1438     7.1673     7.1673     7.1673    -0.0000     0.0000     0.0000 </r>
      <r>     6.1659     6.8607     6.8607     6.8607    -0.0000     0.0000     0.0000 </r>
      <r>     6.1880     6.5620     6.5620     6.5620    -0.0000     0.0000     0.0000 </r>
      <r>     6.2101     6.2713     6.2713     6.2713    -0.0000     0.0000     0.0000 </r>
      <r>     6.2322     5.9898     5.9898     5.9898     0.0000     0.0000     0.0000 </r>
      <r>     6.2543     5.7192     5.7192     5.7192     0.0000     0.0000     0.0000 </r>
      <r>     6.2764     5.4621     5.4621     5.4621     0.0000     0.0000     0.0000 </r>
      <r>     6.2985     5.2223     5.2223     5.2223     0.0000     0.0000     0.0000 </r>
      <r>     6.3206     5.0046     5.0046     5.0046     0.0000     0.0000     0.0000 </r>
      <r>     6.3427     4.8144     4.8144     4.8144     0.0000     0.0000     0.0000 </r>
      <r>     6.3648     4.6551     4.6551     4.6551     0.0000     0.0000     0.0000 </r>
      <r>     6.3869     4.5269     4.5269     4.5269     0.0000     0.0000     0.0000 </r>
      <r>     6.4090     4.4253     4.4253     4.4253     0.0000     0.0000     0.0000 </r>
      <r>     6.4311     4.3409     4.3409     4.3409     0.0000     0.0000     0.0000 </r>
      <r>     6.4532     4.2606     4.2606     4.2606     0.0000     0.0000     0.0000 </r>
      <r>     6.4753     4.1760     4.1760     4.1760     0.0000     0.0000     0.0000 </r>
      <r>     6.4974     4.0881     4.0881     4.0881     0.0000     0.0000     0.0000 </r>
      <r>     6.5195     4.0044     4.0044     4.0044     0.0000     0.0000     0.0000 </r>
      <r>     6.5416     3.9307     3.9307     3.9307     0.0000     0.0000     0.0000 </r>
      <r>     6.5637     3.8694     3.8694     3.8694     0.0000     0.0000     0.0000 </r>
      <r>     6.5858     3.8201     3.8201     3.8201     0.0000     0.0000     0.0000 </r>
      <r>     6.6079     3.7815     3.7815     3.7815     0.0000     0.0000     0.0000 </r>
      <r>     6.6300     3.7517     3.7517     3.7517     0.0000     0.0000     0.0000 </r>
      <r>     6.6521     3.7294     3.7294     3.7294     0.0000     0.0000     0.0000 </r>
      <r>     6.6742     3.7136     3.7136     3.7136     0.0000     0.0000     0.0000 </r>
      <r>     6.6963     3.7035     3.7035     3.7035     0.0000     0.0000     0.0000 </r>
      <r>     6.7184     3.6988     3.6988     3.6988     0.0000     0.0000    -0.0000 </r>
      <r>     6.7405     3.6997     3.6997     3.6997     0.0000     0.0000    -0.0000 </r>
      <r>     6.7626     3.7068     3.7068     3.7068     0.0000     0.0000    -0.0000 </r>
      <r>     6.7847     3.7211     3.7211     3.7211     0.0000     0.0000    -0.0000 </r>
      <r>     6.8068     3.7436     3.7436     3.7436     0.0000     0.0000    -0.0000 </r>
      <r>     6.8289     3.7758     3.7758     3.7758     0.0000     0.0000    -0.0000 </r>
      <r>     6.8510     3.8185     3.8185     3.8185     0.0000     0.0000    -0.0000 </r>
      <r>     6.8731     3.8713     3.8713     3.8713     0.0000     0.0000    -0.0000 </r>
      <r>     6.8952     3.9309     3.9309     3.9309     0.0000     0.0000     0.0000 </r>
      <r>     6.9173     3.9907     3.9907     3.9907     0.0000     0.0000     0.0000 </r>
      <r>     6.9394     4.0424     4.0424     4.0424     0.0000     0.0000     0.0000 </r>
      <r>     6.9615     4.0797     4.0797     4.0797     0.0000     0.0000     0.0000 </r>
      <r>     6.9836     4.0997     4.0997     4.0997     0.0000     0.0000     0.0000 </r>
      <r>     7.0057     4.1022     4.1022     4.1022     0.0000     0.0000     0.0000 </r>
      <r>     7.0278     4.0880     4.0880     4.0880     0.0000     0.0000     0.0000 </r>
      <r>     7.0499     4.0573     4.0573     4.0573     0.0000     0.0000     0.0000 </r>
      <r>     7.0720     4.0104     4.0104     4.0104     0.0000     0.0000     0.0000 </r>
      <r>     7.0941     3.9482     3.9482     3.9482     0.0000     0.0000     0.0000 </r>
      <r>     7.1162     3.8728     3.8728     3.8728     0.0000     0.0000     0.0000 </r>
      <r>     7.1383     3.7876     3.7876     3.7876     0.0000     0.0000     0.0000 </r>
      <r>     7.1604     3.6967     3.6967     3.6967     0.0000     0.0000     0.0000 </r>
      <r>     7.1825     3.6047     3.6047     3.6047     0.0000     0.0000     0.0000 </r>
      <r>     7.2046     3.5162     3.5162     3.5162     0.0000     0.0000     0.0000 </r>
      <r>     7.2267     3.4343     3.4343     3.4343     0.0000     0.0000     0.0000 </r>
      <r>     7.2488     3.3603     3.3603     3.3603     0.0000     0.0000     0.0000 </r>
      <r>     7.2709     3.2941     3.2941     3.2941     0.0000     0.0000     0.0000 </r>
      <r>     7.2930     3.2345     3.2345     3.2345     0.0000     0.0000     0.0000 </r>
      <r>     7.3151     3.1798     3.1798     3.1798     0.0000    -0.0000     0.0000 </r>
      <r>     7.3372     3.1280     3.1280     3.1280     0.0000    -0.0000     0.0000 </r>
      <r>     7.3593     3.0779     3.0779     3.0779     0.0000    -0.0000     0.0000 </r>
      <r>     7.3814     3.0291     3.0291     3.0291     0.0000    -0.0000     0.0000 </r>
      <r>     7.4035     2.9817     2.9817     2.9817     0.0000    -0.0000     0.0000 </r>
      <r>     7.4256     2.9351     2.9351     2.9351     0.0000    -0.0000     0.0000 </r>
      <r>     7.4477     2.8888     2.8888     2.8888    -0.0000    -0.0000     0.0000 </r>
      <r>     7.4698     2.8420     2.8420     2.8420    -0.0000    -0.0000     0.0000 </r>
      <r>     7.4919     2.7947     2.7947     2.7947    -0.0000    -0.0000     0.0000 </r>
      <r>     7.5140     2.7470     2.7470     2.7470    -0.0000    -0.0000     0.0000 </r>
      <r>     7.5361     2.6993     2.6993     2.6993    -0.0000    -0.0000     0.0000 </r>
      <r>     7.5582     2.6520     2.6520     2.6520    -0.0000    -0.0000     0.0000 </r>
      <r>     7.5803     2.6055     2.6055     2.6055    -0.0000    -0.0000     0.0000 </r>
      <r>     7.6024     2.5602     2.5602     2.5602    -0.0000    -0.0000     0.0000 </r>
      <r>     7.6245     2.5164     2.5164     2.5164    -0.0000    -0.0000    -0.0000 </r>
      <r>     7.6466     2.4745     2.4745     2.4745    -0.0000     0.0000    -0.0000 </r>
      <r>     7.6687     2.4350     2.4350     2.4350    -0.0000     0.0000    -0.0000 </r>
      <r>     7.6908     2.3982     2.3982     2.3982    -0.0000     0.0000    -0.0000 </r>
      <r>     7.7129     2.3642     2.3642     2.3642    -0.0000     0.0000    -0.0000 </r>
      <r>     7.7350     2.3322     2.3322     2.3322    -0.0000     0.0000    -0.0000 </r>
      <r>     7.7571     2.3004     2.3004     2.3004    -0.0000     0.0000    -0.0000 </r>
      <r>     7.7792     2.2668     2.2668     2.2668    -0.0000     0.0000    -0.0000 </r>
      <r>     7.8013     2.2302     2.2302     2.2302     0.0000     0.0000    -0.0000 </r>
      <r>     7.8234     2.1899     2.1899     2.1899     0.0000     0.0000    -0.0000 </r>
      <r>     7.8455     2.1461     2.1461     2.1461     0.0000     0.0000    -0.0000 </r>
      <r>     7.8676     2.0992     2.0992     2.0992     0.0000     0.0000    -0.0000 </r>
      <r>     7.8897     2.0493     2.0493     2.0493     0.0000     0.0000    -0.0000 </r>
      <r>     7.9118     1.9964     1.9964     1.9964     0.0000     0.0000    -0.0000 </r>
      <r>     7.9339     1.9403     1.9403     1.9403     0.0000     0.0000    -0.0000 </r>
      <r>     7.9560     1.8817     1.8817     1.8817     0.0000     0.0000    -0.0000 </r>
      <r>     7.9781     1.8215     1.8215     1.8215     0.0000     0.0000    -0.0000 </r>
      <r>     8.0002     1.7610     1.7610     1.7610     0.0000     0.0000    -0.0000 </r>
      <r>     8.0223     1.7011     1.7011     1.7011     0.0000     0.0000    -0.0000 </r>
      <r>     8.0444     1.6423     1.6423     1.6423     0.0000     0.0000    -0.0000 </r>
      <r>     8.0665     1.5847     1.5847     1.5847     0.0000     0.0000    -0.0000 </r>
      <r>     8.0886     1.5279     1.5279     1.5279     0.0000     0.0000    -0.0000 </r>
      <r>     8.1107     1.4723     1.4723     1.4723     0.0000     0.0000    -0.0000 </r>
      <r>     8.1328     1.4190     1.4190     1.4190     0.0000     0.0000    -0.0000 </r>
      <r>     8.1549     1.3696     1.3696     1.3696     0.0000     0.0000    -0.0000 </r>
      <r>     8.1770     1.3257     1.3257     1.3257     0.0000     0.0000    -0.0000 </r>
      <r>     8.1991     1.2876     1.2876     1.2876     0.0000     0.0000    -0.0000 </r>
      <r>     8.2212     1.2550     1.2550     1.2550     0.0000     0.0000    -0.0000 </r>
      <r>     8.2433     1.2269     1.2269     1.2269     0.0000     0.0000    -0.0000 </r>
      <r>     8.2654     1.2024     1.2024     1.2024     0.0000     0.0000    -0.0000 </r>
      <r>     8.2875     1.1807     1.1807     1.1807     0.0000     0.0000    -0.0000 </r>
      <r>     8.3096     1.1608     1.1608     1.1608     0.0000     0.0000    -0.0000 </r>
      <r>     8.3317     1.1423     1.1423     1.1423     0.0000     0.0000    -0.0000 </r>
      <r>     8.3538     1.1249     1.1249     1.1249     0.0000     0.0000    -0.0000 </r>
      <r>     8.3759     1.1086     1.1086     1.1086     0.0000     0.0000    -0.0000 </r>
      <r>     8.3980     1.0939     1.0939     1.0939     0.0000     0.0000    -0.0000 </r>
      <r>     8.4201     1.0807     1.0807     1.0807     0.0000     0.0000    -0.0000 </r>
      <r>     8.4422     1.0692     1.0692     1.0692     0.0000     0.0000    -0.0000 </r>
      <r>     8.4643     1.0591     1.0591     1.0591     0.0000     0.0000    -0.0000 </r>
      <r>     8.4864     1.0496     1.0496     1.0496     0.0000     0.0000    -0.0000 </r>
      <r>     8.5085     1.0398     1.0398     1.0398     0.0000     0.0000    -0.0000 </r>
      <r>     8.5306     1.0286     1.0286     1.0286     0.0000     0.0000    -0.0000 </r>
      <r>     8.5527     1.0156     1.0156     1.0156     0.0000     0.0000    -0.0000 </r>
      <r>     8.5748     1.0007     1.0007     1.0007     0.0000     0.0000    -0.0000 </r>
      <r>     8.5969     0.9843     0.9843     0.9843     0.0000     0.0000    -0.0000 </r>
      <r>     8.6190     0.9669     0.9669     0.9669     0.0000     0.0000    -0.0000 </r>
      <r>     8.6411     0.9494     0.9494     0.9494     0.0000     0.0000    -0.0000 </r>
      <r>     8.6632     0.9323     0.9323     0.9323     0.0000     0.0000    -0.0000 </r>
      <r>     8.6853     0.9158     0.9158     0.9158     0.0000     0.0000    -0.0000 </r>
      <r>     8.7074     0.8996     0.8996     0.8996    -0.0000     0.0000    -0.0000 </r>
      <r>     8.7295     0.8833     0.8833     0.8833    -0.0000     0.0000    -0.0000 </r>
      <r>     8.7516     0.8662     0.8662     0.8662    -0.0000     0.0000    -0.0000 </r>
      <r>     8.7737     0.8482     0.8482     0.8482    -0.0000     0.0000    -0.0000 </r>
      <r>     8.7958     0.8298     0.8298     0.8298     0.0000     0.0000    -0.0000 </r>
      <r>     8.8179     0.8119     0.8119     0.8119     0.0000     0.0000    -0.0000 </r>
      <r>     8.8400     0.7954     0.7954     0.7954     0.0000     0.0000    -0.0000 </r>
      <r>     8.8621     0.7809     0.7809     0.7809     0.0000     0.0000    -0.0000 </r>
      <r>     8.8842     0.7681     0.7681     0.7681     0.0000     0.0000    -0.0000 </r>
      <r>     8.9063     0.7562     0.7562     0.7562     0.0000     0.0000    -0.0000 </r>
      <r>     8.9284     0.7444     0.7444     0.7444     0.0000     0.0000    -0.0000 </r>
      <r>     8.9505     0.7323     0.7323     0.7323     0.0000     0.0000    -0.0000 </r>
      <r>     8.9726     0.7196     0.7196     0.7196     0.0000     0.0000    -0.0000 </r>
      <r>     8.9947     0.7063     0.7063     0.7063     0.0000     0.0000    -0.0000 </r>
      <r>     9.0168     0.6922     0.6922     0.6922     0.0000     0.0000    -0.0000 </r>
      <r>     9.0389     0.6772     0.6772     0.6772     0.0000     0.0000    -0.0000 </r>
      <r>     9.0610     0.6613     0.6613     0.6613     0.0000     0.0000    -0.0000 </r>
      <r>     9.0831     0.6444     0.6444     0.6444     0.0000     0.0000    -0.0000 </r>
      <r>     9.1052     0.6266     0.6266     0.6266     0.0000     0.0000    -0.0000 </r>
      <r>     9.1273     0.6084     0.6084     0.6084     0.0000     0.0000    -0.0000 </r>
      <r>     9.1494     0.5903     0.5903     0.5903     0.0000     0.0000    -0.0000 </r>
      <r>     9.1715     0.5731     0.5731     0.5731     0.0000     0.0000    -0.0000 </r>
      <r>     9.1936     0.5570     0.5570     0.5570     0.0000     0.0000    -0.0000 </r>
      <r>     9.2157     0.5419     0.5419     0.5419     0.0000     0.0000    -0.0000 </r>
      <r>     9.2378     0.5277     0.5277     0.5277     0.0000     0.0000    -0.0000 </r>
      <r>     9.2599     0.5141     0.5141     0.5141     0.0000     0.0000    -0.0000 </r>
      <r>     9.2820     0.5009     0.5009     0.5009     0.0000     0.0000    -0.0000 </r>
      <r>     9.3041     0.4880     0.4880     0.4880     0.0000     0.0000    -0.0000 </r>
      <r>     9.3262     0.4753     0.4753     0.4753     0.0000     0.0000    -0.0000 </r>
      <r>     9.3483     0.4626     0.4626     0.4626     0.0000     0.0000    -0.0000 </r>
      <r>     9.3704     0.4500     0.4500     0.4500     0.0000     0.0000    -0.0000 </r>
      <r>     9.3925     0.4374     0.4374     0.4374     0.0000     0.0000    -0.0000 </r>
      <r>     9.4146     0.4249     0.4249     0.4249     0.0000     0.0000    -0.0000 </r>
      <r>     9.4367     0.4128     0.4128     0.4128     0.0000     0.0000    -0.0000 </r>
      <r>     9.4588     0.4011     0.4011     0.4011     0.0000     0.0000    -0.0000 </r>
      <r>     9.4809     0.3900     0.3900     0.3900     0.0000     0.0000    -0.0000 </r>
      <r>     9.5030     0.3795     0.3795     0.3795     0.0000     0.0000    -0.0000 </r>
      <r>     9.5251     0.3694     0.3694     0.3694     0.0000     0.0000    -0.0000 </r>
      <r>     9.5472     0.3596     0.3596     0.3596     0.0000     0.0000    -0.0000 </r>
      <r>     9.5693     0.3502     0.3502     0.3502     0.0000    -0.0000    -0.0000 </r>
      <r>     9.5914     0.3410     0.3410     0.3410     0.0000    -0.0000    -0.0000 </r>
      <r>     9.6135     0.3322     0.3322     0.3322     0.0000    -0.0000    -0.0000 </r>
      <r>     9.6356     0.3236     0.3236     0.3236     0.0000    -0.0000    -0.0000 </r>
      <r>     9.6577     0.3150     0.3150     0.3150     0.0000    -0.0000    -0.0000 </r>
      <r>     9.6798     0.3063     0.3063     0.3063    -0.0000    -0.0000    -0.0000 </r>
      <r>     9.7019     0.2976     0.2976     0.2976    -0.0000    -0.0000    -0.0000 </r>
      <r>     9.7240     0.2893     0.2893     0.2893    -0.0000    -0.0000    -0.0000 </r>
      <r>     9.7461     0.2814     0.2814     0.2814    -0.0000    -0.0000    -0.0000 </r>
      <r>     9.7682     0.2742     0.2742     0.2742    -0.0000    -0.0000    -0.0000 </r>
      <r>     9.7903     0.2676     0.2676     0.2676    -0.0000    -0.0000    -0.0000 </r>
      <r>     9.8124     0.2615     0.2615     0.2615    -0.0000    -0.0000    -0.0000 </r>
      <r>     9.8345     0.2560     0.2560     0.2560    -0.0000    -0.0000    -0.0000 </r>
      <r>     9.8566     0.2510     0.2510     0.2510    -0.0000    -0.0000    -0.0000 </r>
      <r>     9.8787     0.2465     0.2465     0.2465    -0.0000    -0.0000    -0.0000 </r>
      <r>     9.9008     0.2425     0.2425     0.2425    -0.0000    -0.0000    -0.0000 </r>
      <r>     9.9229     0.2389     0.2389     0.2389    -0.0000    -0.0000    -0.0000 </r>
      <r>     9.9450     0.2357     0.2357     0.2357    -0.0000    -0.0000    -0.0000 </r>
      <r>     9.9671     0.2330     0.2330     0.2330    -0.0000    -0.0000    -0.0000 </r>
      <r>     9.9892     0.2306     0.2306     0.2306    -0.0000    -0.0000    -0.0000 </r>
      <r>    10.0113     0.2287     0.2287     0.2287    -0.0000    -0.0000    -0.0000 </r>
      <r>    10.0334     0.2270     0.2270     0.2270    -0.0000    -0.0000    -0.0000 </r>
      <r>    10.0555     0.2255     0.2255     0.2255    -0.0000    -0.0000    -0.0000 </r>
      <r>    10.0776     0.2242     0.2242     0.2242    -0.0000    -0.0000    -0.0000 </r>
      <r>    10.0997     0.2229     0.2229     0.2229    -0.0000    -0.0000    -0.0000 </r>
      <r>    10.1218     0.2215     0.2215     0.2215    -0.0000    -0.0000    -0.0000 </r>
      <r>    10.1439     0.2200     0.2200     0.2200    -0.0000    -0.0000    -0.0000 </r>
      <r>    10.1660     0.2184     0.2184     0.2184    -0.0000    -0.0000    -0.0000 </r>
      <r>    10.1881     0.2168     0.2168     0.2168    -0.0000    -0.0000    -0.0000 </r>
      <r>    10.2102     0.2152     0.2152     0.2152    -0.0000    -0.0000    -0.0000 </r>
      <r>    10.2323     0.2136     0.2136     0.2136    -0.0000    -0.0000    -0.0000 </r>
      <r>    10.2544     0.2121     0.2121     0.2121    -0.0000    -0.0000     0.0000 </r>
      <r>    10.2765     0.2108     0.2108     0.2108    -0.0000    -0.0000     0.0000 </r>
      <r>    10.2986     0.2096     0.2096     0.2096    -0.0000    -0.0000     0.0000 </r>
      <r>    10.3207     0.2087     0.2087     0.2087    -0.0000    -0.0000     0.0000 </r>
      <r>    10.3428     0.2081     0.2081     0.2081    -0.0000    -0.0000     0.0000 </r>
      <r>    10.3649     0.2080     0.2080     0.2080    -0.0000    -0.0000     0.0000 </r>
      <r>    10.3870     0.2083     0.2083     0.2083    -0.0000    -0.0000     0.0000 </r>
[...]
     <r>     7.9359     0.0908     0.0908     0.0908    -0.0000    -0.0000    -0.0000 </r>
     <r>     7.9459     0.0916     0.0916     0.0916     0.0000     0.0000     0.0000 </r>
     <r>     7.9559     0.0924     0.0924     0.0924    -0.0000     0.0000    -0.0000 </r>
     <r>     7.9659     0.0932     0.0932     0.0932    -0.0000    -0.0000     0.0000 </r>
     <r>     7.9759     0.0940     0.0940     0.0940     0.0000    -0.0000    -0.0000 </r>
     <r>     7.9859     0.0949     0.0949     0.0949     0.0000     0.0000    -0.0000 </r>
     <r>     7.9959     0.0957     0.0957     0.0957     0.0000     0.0000    -0.0000 </r>
     <r>     8.0060     0.0966     0.0966     0.0966    -0.0000     0.0000    -0.0000 </r>
     <r>     8.0160     0.0975     0.0975     0.0975     0.0000     0.0000    -0.0000 </r>
     <r>     8.0260     0.0984     0.0984     0.0984     0.0000    -0.0000     0.0000 </r>
     <r>     8.0360     0.1034     0.1034     0.1034     0.0000     0.0000     0.0000 </r>
     <r>     8.0460     0.1048     0.1048     0.1048     0.0000     0.0000     0.0000 </r>
     <r>     8.0560     0.1075     0.1075     0.1075     0.0000     0.0000    -0.0000 </r>
     <r>     8.0660     0.1104     0.1104     0.1104    -0.0000     0.0000     0.0000 </r>
     <r>     8.0760     0.1133     0.1133     0.1133    -0.0000     0.0000    -0.0000 </r>
     <r>     8.0860     0.1164     0.1164     0.1164     0.0000    -0.0000     0.0000 </r>
     <r>     8.0960     0.1196     0.1196     0.1196    -0.0000    -0.0000    -0.0000 </r>
     <r>     8.1061     0.1229     0.1229     0.1229     0.0000     0.0000     0.0000 </r>
     <r>     8.1161     0.1370     0.1370     0.1370     0.0000     0.0000     0.0000 </r>
     <r>     8.1261     0.1411     0.1411     0.1411    -0.0000     0.0000    -0.0000 </r>
     <r>     8.1361     0.1449     0.1449     0.1449     0.0000    -0.0000    -0.0000 </r>
     <r>     8.1461     0.1582     0.1582     0.1582    -0.0000    -0.0000     0.0000 </r>
     <r>     8.1561     0.1614     0.1614     0.1614     0.0000     0.0000     0.0000 </r>
     <r>     8.1661     0.1636     0.1636     0.1636     0.0000    -0.0000     0.0000 </r>
     <r>     8.1761     0.1648     0.1648     0.1648    -0.0000     0.0000    -0.0000 </r>
     <r>     8.1861     0.1651     0.1651     0.1651    -0.0000    -0.0000     0.0000 </r>
     <r>     8.1961     0.1645     0.1645     0.1645     0.0000     0.0000     0.0000 </r>
     <r>     8.2062     0.1628     0.1628     0.1628    -0.0000     0.0000    -0.0000 </r>
     <r>     8.2162     0.1602     0.1602     0.1602    -0.0000    -0.0000     0.0000 </r>
     <r>     8.2262     0.1567     0.1567     0.1567    -0.0000    -0.0000    -0.0000 </r>
     <r>     8.2362     0.1522     0.1522     0.1522    -0.0000    -0.0000     0.0000 </r>
     <r>     8.2462     0.1467     0.1467     0.1467     0.0000    -0.0000     0.0000 </r>
     <r>     8.2562     0.1403     0.1403     0.1403    -0.0000    -0.0000    -0.0000 </r>
     <r>     8.2662     0.1329     0.1329     0.1329    -0.0000    -0.0000    -0.0000 </r>
     <r>     8.2762     0.1285     0.1285     0.1285     0.0000    -0.0000     0.0000 </r>
     <r>     8.2862     0.1245     0.1245     0.1245     0.0000    -0.0000     0.0000 </r>
     <r>     8.2962     0.1207     0.1207     0.1207    -0.0000    -0.0000    -0.0000 </r>
     <r>     8.3063     0.1170     0.1170     0.1170     0.0000    -0.0000    -0.0000 </r>
     <r>     8.3163     0.1136     0.1136     0.1136    -0.0000    -0.0000    -0.0000 </r>
     <r>     8.3263     0.1103     0.1103     0.1103    -0.0000    -0.0000     0.0000 </r>
    </set>
   </array>
  </conductivity>
  <dos>
   <i name="efermi">      3.32627894 </i>
   <total>
    <array>
     <dimension dim="1">gridpoints</dimension>
     <dimension dim="2">spin</dimension>
     <field>energy</field>
     <field>total</field>
     <field>integrated</field>
     <set>
      <set comment="spin 1">
       <r>   -10.8867     0.0000     0.0000 </r>
       <r>   -10.8187     0.0000     0.0000 </r>
       <r>   -10.7507     0.0000     0.0000 </r>
       <r>   -10.6827     0.0000     0.0000 </r>
       <r>   -10.6147     0.0000     0.0000 </r>
       <r>   -10.5467     0.0000     0.0000 </r>
       <r>   -10.4787     0.0000     0.0000 </r>
       <r>   -10.4107     0.0000     0.0000 </r>
       <r>   -10.3427     0.0000     0.0000 </r>
       <r>   -10.2747     0.0000     0.0000 </r>
       <r>   -10.2067     0.0000     0.0000 </r>
       <r>   -10.1387     0.0000     0.0000 </r>
       <r>   -10.0707     0.0000     0.0000 </r>
       <r>   -10.0027     0.0000     0.0000 </r>
       <r>    -9.9347     0.0000     0.0000 </r>
       <r>    -9.8668     0.0068     0.0000 </r>
       <r>    -9.7988     0.1327     0.0039 </r>
       <r>    -9.7308     0.4173     0.0217 </r>
       <r>    -9.6628     0.7136     0.0611 </r>
       <r>    -9.5948     0.8478     0.1151 </r>
       <r>    -9.5268     0.8764     0.1736 </r>
       <r>    -9.4588     0.9598     0.2356 </r>
       <r>    -9.3908     1.0981     0.3054 </r>
       <r>    -9.3228     1.2505     0.3852 </r>
       <r>    -9.2548     1.5909     0.4774 </r>
       <r>    -9.1868     2.2742     0.6099 </r>
       <r>    -9.1188     2.6072     0.7813 </r>
       <r>    -9.0508     2.1952     0.9441 </r>
       <r>    -8.9828     1.9478     1.0824 </r>
       <r>    -8.9148     1.9329     1.2145 </r>
       <r>    -8.8468     1.8943     1.3448 </r>
       <r>    -8.7788     1.8321     1.4716 </r>
       <r>    -8.7109     2.4692     1.6105 </r>
       <r>    -8.6429     1.7974     1.7550 </r>
       <r>    -8.5749     0.9896     1.8386 </r>
       <r>    -8.5069     1.6413     1.9208 </r>
       <r>    -8.4389     2.7760     2.0690 </r>
       <r>    -8.3709     3.0161     2.2669 </r>
       <r>    -8.3029     3.2533     2.4810 </r>
       <r>    -8.2349     3.4067     2.6999 </r>
       <r>    -8.1669     3.7196     2.9426 </r>
       <r>    -8.0989     7.8996     3.3552 </r>
       <r>    -8.0309     5.9296     3.8451 </r>
       <r>    -7.9629     4.1488     4.1488 </r>
       <r>    -7.8949     3.7117     4.3917 </r>
       <r>    -7.8269     4.0341     4.6548 </r>
       <r>    -7.7589     5.8295     4.9765 </r>
       <r>    -7.6909     6.8249     5.4161 </r>
       <r>    -7.6229     7.1304     5.8766 </r>
       <r>    -7.5549     7.5556     6.3950 </r>
       <r>    -7.4870     5.4041     6.8406 </r>
       <r>    -7.4190     4.9608     7.1928 </r>
       <r>    -7.3510     4.7450     7.5165 </r>
       <r>    -7.2830     3.8768     7.8080 </r>
       <r>    -7.2150     0.9742     8.0000 </r>
       <r>    -7.1470     0.0000     8.0000 </r>
       <r>    -7.0790     0.0000     8.0000 </r>
       <r>    -7.0110     0.0000     8.0000 </r>
       <r>    -6.9430     0.0000     8.0000 </r>
       <r>    -6.8750     0.0000     8.0000 </r>
       <r>    -6.8070     0.0000     8.0000 </r>
       <r>    -6.7390     0.0000     8.0000 </r>
       <r>    -6.6710     0.0000     8.0000 </r>
       <r>    -6.6030     0.0000     8.0000 </r>
       <r>    -6.5350     0.0000     8.0000 </r>
       <r>    -6.4670     0.0000     8.0000 </r>
       <r>    -6.3990     0.0000     8.0000 </r>
       <r>    -6.3310     0.0000     8.0000 </r>
       <r>    -6.2631     0.0000     8.0000 </r>
       <r>    -6.1951     0.0000     8.0000 </r>
       <r>    -6.1271     0.0000     8.0000 </r>
       <r>    -6.0591     0.0000     8.0000 </r>
       <r>    -5.9911     0.0000     8.0000 </r>
       <r>    -5.9231     0.0000     8.0000 </r>
       <r>    -5.8551     0.0000     8.0000 </r>
       <r>    -5.7871     0.0000     8.0000 </r>
       <r>    -5.7191     0.0000     8.0000 </r>
       <r>    -5.6511     0.0000     8.0000 </r>
       <r>    -5.5831     0.0000     8.0000 </r>
       <r>    -5.5151     0.0000     8.0000 </r>
       <r>    -5.4471     0.0000     8.0000 </r>
       <r>    -5.3791     0.0000     8.0000 </r>
       <r>    -5.3111     0.0000     8.0000 </r>
       <r>    -5.2431     0.0000     8.0000 </r>
       <r>    -5.1751     0.0000     8.0000 </r>
       <r>    -5.1071     0.0000     8.0000 </r>
       <r>    -5.0392     0.0000     8.0000 </r>
       <r>    -4.9712     0.0000     8.0000 </r>
       <r>    -4.9032     0.0000     8.0000 </r>
       <r>    -4.8352     0.0000     8.0000 </r>
       <r>    -4.7672     0.0000     8.0000 </r>
       <r>    -4.6992     0.0000     8.0000 </r>
       <r>    -4.6312     0.0000     8.0000 </r>
       <r>    -4.5632     0.0000     8.0000 </r>
       <r>    -4.4952     0.0000     8.0000 </r>
       <r>    -4.4272     0.0000     8.0000 </r>
       <r>    -4.3592     0.0000     8.0000 </r>
       <r>    -4.2912     0.0000     8.0000 </r>
       <r>    -4.2232     0.0000     8.0000 </r>
       <r>    -4.1552     0.0000     8.0000 </r>
       <r>    -4.0872     0.0000     8.0000 </r>
       <r>    -4.0192     0.0000     8.0000 </r>
       <r>    -3.9512     0.0000     8.0000 </r>
       <r>    -3.8832     0.0000     8.0000 </r>
       <r>    -3.8153     0.0000     8.0000 </r>
       <r>    -3.7473     0.4256     8.0070 </r>
       <r>    -3.6793     1.5455     8.0805 </r>
       <r>    -3.6113     2.1323     8.1980 </r>
       <r>    -3.5433     6.1783     8.4619 </r>
       <r>    -3.4753     9.7164     8.9665 </r>
       <r>    -3.4073     9.6762     9.8324 </r>
       <r>    -3.3393     8.8460    10.4203 </r>
       <r>    -3.2713     7.4552    11.0090 </r>
       <r>    -3.2033     5.5893    11.4492 </r>
       <r>    -3.1353     4.6476    11.7968 </r>
       <r>    -3.0673     3.4470    12.0507 </r>
       <r>    -2.9993     2.6495    12.2482 </r>
       <r>    -2.9313     2.5828    12.4260 </r>
       <r>    -2.8633     2.5205    12.5995 </r>
       <r>    -2.7953     2.4625    12.7689 </r>
       <r>    -2.7273     2.4088    12.9345 </r>
       <r>    -2.6594     2.3595    13.0965 </r>
       <r>    -2.5914     2.3144    13.2554 </r>
       <r>    -2.5234     1.8599    13.3877 </r>
       <r>    -2.4554     1.8242    13.5130 </r>
       <r>    -2.3874     1.7825    13.6356 </r>
       <r>    -2.3194     1.7142    13.7547 </r>
       <r>    -2.2514     1.6551    13.8693 </r>
       <r>    -2.1834     1.5779    13.9792 </r>
       <r>    -2.1154     1.4938    14.0837 </r>
       <r>    -2.0474     1.4028    14.1822 </r>
       <r>    -1.9794     1.3051    14.2743 </r>
       <r>    -1.9114     1.2548    14.3635 </r>
       <r>    -1.8434     1.1262    14.4443 </r>
       <r>    -1.7754     1.0154    14.5170 </r>
       <r>    -1.7074     0.9224    14.5828 </r>
       <r>    -1.6394     0.7627    14.6437 </r>
       <r>    -1.5714     0.7941    14.6966 </r>
       <r>    -1.5034     0.8266    14.7517 </r>
       <r>    -1.4355     0.8599    14.8091 </r>
       <r>    -1.3675     0.8942    14.8687 </r>
       <r>    -1.2995     0.9294    14.9307 </r>
       <r>    -1.2315     0.9771    14.9954 </r>
       <r>    -1.1635     1.0397    15.0639 </r>
       <r>    -1.0955     1.1170    15.1371 </r>
       <r>    -1.0275     1.2091    15.2161 </r>
       <r>    -0.9595     1.3158    15.3019 </r>
       <r>    -0.8915     1.2251    15.3880 </r>
       <r>    -0.8235     1.5208    15.4821 </r>
       <r>    -0.7555     1.8240    15.5954 </r>
       <r>    -0.6875     2.2174    15.7322 </r>
       <r>    -0.6195     2.5837    15.8956 </r>
       <r>    -0.5515     6.9737    16.2642 </r>
       <r>    -0.4835     6.7162    16.7854 </r>
       <r>    -0.4155     6.1627    17.2243 </r>
       <r>    -0.3475     5.4325    17.6195 </r>
       <r>    -0.2795     4.9341    17.9648 </r>
       <r>    -0.2116     4.5974    18.2887 </r>
       <r>    -0.1436     4.0307    18.5902 </r>
       <r>    -0.0756     3.9318    18.8604 </r>
       <r>    -0.0076     3.8925    19.1262 </r>
       <r>     0.0604     4.5277    19.4033 </r>
       <r>     0.1284     4.3148    19.7248 </r>
       <r>     0.1964     4.0219    19.9922 </r>
       <r>     0.2644     4.2069    20.2719 </r>
       <r>     0.3324     4.3989    20.5644 </r>
       <r>     0.4004     5.6573    20.8884 </r>
       <r>     0.4684     6.7085    21.3026 </r>
       <r>     0.5364     7.2869    21.7929 </r>
       <r>     0.6044     6.2219    22.2470 </r>
       <r>     0.6724     7.4364    22.7176 </r>
       <r>     0.7404     6.6022    23.1941 </r>
       <r>     0.8084     5.7277    23.6139 </r>
       <r>     0.8764     5.0990    23.9905 </r>
       <r>     0.9444     4.7012    24.3231 </r>
       <r>     1.0123     4.4108    24.6323 </r>
       <r>     1.0803     4.2279    24.9253 </r>
       <r>     1.1483     4.7779    25.2309 </r>
       <r>     1.2163     5.2386    25.5722 </r>
       <r>     1.2843     5.8859    25.9923 </r>
       <r>     1.3523     5.0492    26.3245 </r>
       <r>     1.4203     5.3431    26.6779 </r>
       <r>     1.4883     6.5474    27.0606 </r>
       <r>     1.5563     8.7363    27.5343 </r>
       <r>     1.6243     5.5061    28.0484 </r>
       <r>     1.6923     4.8576    28.4007 </r>
       <r>     1.7603     4.2216    28.7093 </r>
       <r>     1.8283     3.5981    28.9750 </r>
       <r>     1.8963     3.1096    29.1988 </r>
       <r>     1.9643     2.2176    29.3563 </r>
       <r>     2.0323     2.4411    29.5073 </r>
       <r>     2.1003     3.1929    29.6986 </r>
       <r>     2.1682     4.6483    29.9793 </r>
       <r>     2.2362     4.7578    30.2839 </r>
       <r>     2.3042     5.2323    30.6240 </r>
       <r>     2.3722     5.3982    30.9762 </r>
       <r>     2.4402     3.3514    31.2792 </r>
       <r>     2.5082     1.6073    31.4097 </r>
       <r>     2.5762     1.4090    31.5122 </r>
       <r>     2.6442     1.2153    31.6014 </r>
       <r>     2.7122     1.0262    31.6776 </r>
       <r>     2.7802     0.8662    31.7413 </r>
       <r>     2.8482     0.9413    31.8026 </r>
       <r>     2.9162     0.9223    31.8666 </r>
       <r>     2.9842     0.7778    31.9251 </r>
       <r>     3.0522     0.5079    31.9696 </r>
       <r>     3.1202     0.1448    31.9915 </r>
       <r>     3.1882     0.0548    31.9980 </r>
       <r>     3.2562     0.0077    31.9999 </r>
       <r>     3.3242     0.0000    32.0000 </r>
       <r>     3.3921     0.0000    32.0000 </r>
       <r>     3.4601     0.0000    32.0000 </r>
       <r>     3.5281     0.0000    32.0000 </r>
       <r>     3.5961     0.0000    32.0000 </r>
       <r>     3.6641     0.0000    32.0000 </r>
       <r>     3.7321     0.0000    32.0000 </r>
       <r>     3.8001     0.0000    32.0000 </r>
       <r>     3.8681     0.0000    32.0000 </r>
       <r>     3.9361     0.0000    32.0000 </r>
       <r>     4.0041     0.0000    32.0000 </r>
       <r>     4.0721     0.0000    32.0000 </r>
       <r>     4.1401     0.0000    32.0000 </r>
       <r>     4.2081     0.0000    32.0000 </r>
       <r>     4.2761     0.0000    32.0000 </r>
       <r>     4.3441     0.0000    32.0000 </r>
       <r>     4.4121     0.0035    32.0000 </r>
       <r>     4.4801     0.0293    32.0010 </r>
       <r>     4.5481     0.0801    32.0046 </r>
       <r>     4.6160     0.4969    32.0290 </r>
       <r>     4.6840     0.3527    32.0500 </r>
       <r>     4.7520     0.4566    32.0774 </r>
       <r>     4.8200     0.5875    32.1127 </r>
       <r>     4.8880     0.7453    32.1579 </r>
       <r>     4.9560     0.9303    32.2147 </r>
       <r>     5.0240     1.1285    32.2850 </r>
       <r>     5.0920     1.2455    32.3665 </r>
       <r>     5.1600     1.4070    32.4558 </r>
       <r>     5.2280     1.6660    32.5602 </r>
       <r>     5.2960     2.0209    32.6836 </r>
       <r>     5.3640     4.0382    32.9028 </r>
       <r>     5.4320     5.2927    33.1888 </r>
       <r>     5.5000     4.8100    33.5538 </r>
       <r>     5.5680     6.2530    33.9263 </r>
       <r>     5.6360     7.2407    34.3851 </r>
       <r>     5.7040     8.1110    34.9089 </r>
       <r>     5.7720     9.5228    35.4927 </r>
       <r>     5.8399     6.3597    36.1750 </r>
       <r>     5.9079     5.3827    36.5678 </r>
       <r>     5.9759     5.3386    36.9325 </r>
       <r>     6.0439     5.2519    37.2928 </r>
       <r>     6.1119     5.1625    37.6463 </r>
       <r>     6.1799     4.4304    37.9664 </r>
       <r>     6.2479     9.3417    38.3736 </r>
       <r>     6.3159     7.0134    38.8713 </r>
       <r>     6.3839     4.0172    39.2993 </r>
       <r>     6.4519     3.8236    39.5658 </r>
       <r>     6.5199     3.6480    39.8197 </r>
       <r>     6.5879     3.4903    40.0623 </r>
       <r>     6.6559     3.4100    40.2968 </r>
       <r>     6.7239     3.3417    40.5263 </r>
       <r>     6.7919     3.2852    40.7515 </r>
       <r>     6.8599     2.6471    40.9662 </r>
       <r>     6.9279     2.1120    41.1246 </r>
       <r>     6.9959     2.2604    41.2732 </r>
       <r>     7.0638     2.4133    41.4321 </r>
       <r>     7.1318     2.5724    41.6015 </r>
       <r>     7.1998     2.7918    41.7834 </r>
       <r>     7.2678     3.4856    41.9840 </r>
       <r>     7.3358     3.8947    42.2701 </r>
       <r>     7.4038     4.7645    42.5572 </r>
       <r>     7.4718     5.8443    42.9194 </r>
       <r>     7.5398     9.8969    43.3591 </r>
       <r>     7.6078     9.4695    44.0330 </r>
       <r>     7.6758     6.3969    44.5830 </r>
       <r>     7.7438     4.5056    44.9438 </r>
       <r>     7.8118     3.4018    45.1879 </r>
       <r>     7.8798     2.7306    45.3964 </r>
       <r>     7.9478     3.0693    45.5933 </r>
       <r>     8.0158     3.4549    45.8149 </r>
       <r>     8.0838     5.8876    46.1550 </r>
       <r>     8.1518     6.6546    46.6018 </r>
       <r>     8.2197     5.9429    47.0363 </r>
       <r>     8.2877     4.4900    47.3884 </r>
       <r>     8.3557     3.5587    47.6614 </r>
       <r>     8.4237     2.4303    47.8675 </r>
       <r>     8.4917     0.9791    47.9853 </r>
       <r>     8.5597     0.0000    48.0000 </r>
       <r>     8.6277     0.0000    48.0000 </r>
       <r>     8.6957     0.0000    48.0000 </r>
       <r>     8.7637     0.0000    48.0000 </r>
       <r>     8.8317     0.0000    48.0000 </r>
       <r>     8.8997     0.0000    48.0000 </r>
       <r>     8.9677     0.0000    48.0000 </r>
       <r>     9.0357     0.0000    48.0000 </r>
       <r>     9.1037     0.0000    48.0000 </r>
       <r>     9.1717     0.0000    48.0000 </r>
       <r>     9.2397     0.0000    48.0000 </r>
       <r>     9.3077     0.0000    48.0000 </r>
       <r>     9.3757     0.0000    48.0000 </r>
       <r>     9.4436     0.0000    48.0000 </r>
       <r>     9.5116     0.0000    48.0000 </r>
      </set>
     </set>
    </array>
   </total>
  </dos>
 </calculation>
 <structure name="finalpos" >
  <crystal>
   <varray name="basis" >
    <v>       5.53440798       0.00000000       0.00000000 </v>
    <v>       0.00000000       5.53440798       0.00000000 </v>
    <v>       0.00000000       0.00000000       5.53440798 </v>
   </varray>
   <i name="volume">    169.51709919 </i>
   <varray name="rec_basis" >
    <v>       0.18068780       0.00000000       0.00000000 </v>
    <v>       0.00000000       0.18068780       0.00000000 </v>
    <v>       0.00000000       0.00000000       0.18068780 </v>
   </varray>
  </crystal>
  <varray name="positions" >
   <v>       0.00000000       0.00000000       0.00000000 </v>
   <v>       0.50000000       0.50000000       0.00000000 </v>
   <v>       0.50000000       0.00000000       0.50000000 </v>
   <v>       0.00000000       0.50000000       0.50000000 </v>
   <v>       0.25000000       0.25000000       0.25000000 </v>
   <v>       0.75000000       0.25000000       0.75000000 </v>
   <v>       0.75000000       0.75000000       0.25000000 </v>
   <v>       0.25000000       0.75000000       0.75000000 </v>
  </varray>
 </structure>
</modeling>
