GaAs                                    
   4.50000000000000     
     1.270147    0.000000    0.000000
     0.000000    1.270147    0.000000
     0.000000    0.000000    1.270147
   As   Ga
     4     4
Direct
  0.000000  0.000000  0.000000
  0.500000  0.500000  0.000000
  0.500000  0.000000  0.500000
  0.000000  0.500000  0.500000
  0.250000  0.250000  0.250000
  0.750000  0.250000  0.750000
  0.750000  0.750000  0.250000
  0.250000  0.750000  0.750000
 
   64   64   64
 -67.100     -59.089     -36.732     -4.5878      31.137      64.194      89.725      105.09      109.93      105.75    
  95.149      81.239      67.036      54.570      44.039      35.310      28.216      22.550      18.075      14.556    
  11.786      9.6021      7.8836      6.5374      5.4897      4.6790      4.0554      3.5801      3.2255      2.9711    
  2.8011      2.7039      2.6722      2.7039      2.8011      2.9711      3.2255      3.5801      4.0554      4.6790    
  5.4897      6.5374      7.8836      9.6021      11.786      14.556      18.075      22.550      28.216      35.310    
  44.039      54.570      67.036      81.239      95.149      105.75      109.93      105.09      89.725      64.194    
  31.137     -4.5878     -36.732     -59.089     -59.089     -51.357     -29.786      1.1926      35.554      67.240    
  91.550      105.94      110.10      105.49      94.690      80.753      66.640      54.281      43.836      35.175    
  28.133      22.506      18.059      14.557      11.799      9.6236      7.9102      6.5673      5.5216      4.7121    
  4.0888      3.6135      3.2585      3.0037      2.8333      2.7357      2.7039      2.7357      2.8333      3.0037    
  3.2585      3.6135      4.0888      4.7121      5.5216      6.5673      7.9102      9.6236      11.799      14.557    
  18.059      22.506      28.133      35.175      43.836      54.281      66.640      80.753      94.690      105.49    
  110.10      105.94      91.550      67.240      35.554      1.1926     -29.786     -51.357     -36.732     -29.786    
 -10.441      17.242      47.754      75.579      96.460      108.12      110.36      104.58      93.262      79.292    
  65.470      53.428      43.237      34.777      27.889      22.376      18.010      14.564      11.841      9.6893    
  7.9915      6.6587      5.6191      4.8128      4.1908      3.7153      3.3595      3.1034      2.9318      2.8333    
  2.8011      2.8333      2.9318      3.1034      3.3595      3.7153      4.1908      4.8128      5.6191      6.6587    
  7.9915      9.6893      11.841      14.564      18.010      22.376      27.889      34.777      43.237      53.428    
  65.470      79.292      93.262      104.58      110.36      108.12      96.460      75.579      47.754      17.242    
 -10.441     -29.786     -4.5878      1.1926      17.242      40.055      64.898      87.056      102.93      110.64    
  110.11      102.72      90.750      76.861      63.572      52.044      42.265      34.131      27.496      22.169    
  17.934      14.578      11.915      9.8031      8.1315      6.8160      5.7870      4.9865      4.3668      3.8915    
  3.5345      3.2767      3.1034      3.0037      2.9711      3.0037      3.1034      3.2767      3.5345      3.8915    
  4.3668      4.9865      5.7870      6.8160      8.1315      9.8031      11.915      14.578      17.934      22.169    
  27.496      34.131      42.265      52.044      63.572      76.861      90.750      102.72      110.11      110.64    
  102.93      87.056      64.898      40.055      17.242      1.1926      31.137      35.554      47.754      64.898    
  83.168      98.789      108.92      112.17      108.61      99.542      87.051      73.514      61.023      50.183    
  40.959      33.265      26.969      21.895      17.840      14.606      12.027      9.9708      8.3371      7.0466    
  6.0334      5.2417      4.6259      4.1516      3.7939      3.5345      3.3595      3.2585      3.2255      3.2585    
  3.3595      3.5345      3.7939      4.1516      4.6259      5.2417      6.0334      7.0466      8.3371      9.9708    
  12.027      14.606      17.840      21.895      26.969      33.265      40.959      50.183      61.023      73.514    
  87.051      99.542      108.61      112.17      108.92      98.789      83.168      64.898      47.754      35.554    
  64.194      67.240      75.579      87.056      98.789      107.96      112.51      111.49      105.17      94.781    
  82.171      69.406      57.924      47.916      39.367      32.212      26.333      21.569      17.735      14.656    
  12.183      10.200      8.6170      7.3605      6.3690      5.5899      4.9806      4.5089      4.1516      3.8915    
  3.7153      3.6135      3.5801      3.6135      3.7153      3.8915      4.1516      4.5089      4.9806      5.5899    
  6.3690      7.3605      8.6170      10.200      12.183      14.656      17.735      21.569      26.333      32.212    
  39.367      47.916      57.924      69.406      82.171      94.781      105.17      111.49      112.51      107.96    
  98.789      87.056      75.579      67.240      89.725      91.550      96.460      102.93      108.92      112.51    
  112.31      107.83      99.484      88.435      76.306      64.744      54.394      45.327      37.549      31.011    
  25.611      21.205      17.631      14.736      12.392      10.501      8.9819      7.7698      6.8072      6.0459    
  5.4467      4.9806      4.6259      4.3668      4.1908      4.0888      4.0554      4.0888      4.1908      4.3668    
  4.6259      4.9806      5.4467      6.0459      6.8072      7.7698      8.9819      10.501      12.392      14.736    
  17.631      21.205      25.611      31.011      37.549      45.327      54.394      64.744      76.306      88.435    
  99.484      107.83      112.31      112.51      108.92      102.93      96.460      91.550      105.09      105.94    
  108.12      110.64      112.17      111.49      107.83      101.05      91.688      80.833      69.863      59.709    
  50.566      42.513      35.571      29.708      24.833      20.823      17.539      14.854      12.663      10.883    
  9.4447      8.2893      7.3653      6.6290      6.0459      5.5899      5.2417      4.9865      4.8128      4.7121    
  4.6790      4.7121      4.8128      4.9865      5.2417      5.5899      6.0459      6.6290      7.3653      8.2893    
  9.4447      10.883      12.663      14.854      17.539      20.823      24.833      29.708      35.571      42.513    
  50.566      59.709      69.863      80.833      91.688      101.05      107.83      111.49      112.17      110.64    
  108.12      105.94      109.93      110.10      110.36      110.11      108.61      105.17      99.484      91.688    
  82.403      72.615      63.214      54.486      46.576      39.572      33.504      28.347      24.027      20.439    
  17.472      15.023      13.009      11.361      10.022      8.9383      8.0656      7.3653      6.8072      6.3690    
  6.0334      5.7870      5.6191      5.5216      5.4897      5.5216      5.6191      5.7870      6.0334      6.3690    
  6.8072      7.3653      8.0656      8.9383      10.022      11.361      13.009      15.023      17.472      20.439    
  24.027      28.347      33.504      39.572      46.576      54.486      63.214      72.615      82.403      91.688    
  99.484      105.17      108.61      110.11      110.36      110.10      105.75      105.49      104.58      102.72    
  99.542      94.781      88.435      80.833      72.615      64.440      56.589      49.250      42.560      36.605    
  31.417      26.977      23.224      20.076      17.446      15.257      13.444      11.953      10.734      9.7421    
  8.9383      8.2893      7.7698      7.3605      7.0466      6.8160      6.6587      6.5673      6.5374      6.5673    
  6.6587      6.8160      7.0466      7.3605      7.7698      8.2893      8.9383      9.7421      10.734      11.953    
  13.444      15.257      17.446      20.076      23.224      26.977      31.417      36.605      42.560      49.250    
  56.589      64.440      72.615      80.833      88.435      94.781      99.542      102.72      104.58      105.49    
  95.149      94.690      93.262      90.750      87.051      82.171      76.306      69.863      63.214      56.589    
  50.184      44.161      38.641      33.703      29.374      25.640      22.454      19.755      17.480      15.574    
  13.989      12.681      11.609      10.734      10.022      9.4447      8.9819      8.6170      8.3371      8.1315    
  7.9915      7.9102      7.8836      7.9102      7.9915      8.1315      8.3371      8.6170      8.9819      9.4447    
  10.022      10.734      11.609      12.681      13.989      15.574      17.480      19.755      22.454      25.640    
  29.374      33.703      38.641      44.161      50.184      56.589      63.214      69.863      76.306      82.171    
  87.051      90.750      93.262      94.690      81.239      80.753      79.292      76.861      73.514      69.406    
  64.744      59.709      54.486      49.250      44.161      39.352      34.925      30.944      27.430      24.374    
  21.743      19.498      17.595      15.998      14.669      13.576      12.681      11.953      11.361      10.883    
  10.501      10.200      9.9708      9.8031      9.6893      9.6236      9.6021      9.6236      9.6893      9.8031    
  9.9708      10.200      10.501      10.883      11.361      11.953      12.681      13.576      14.669      15.998    
  17.595      19.498      21.743      24.374      27.430      30.944      34.925      39.352      44.161      49.250    
  54.486      59.709      64.744      69.406      73.514      76.861      79.292      80.753      67.036      66.640    
  65.470      63.572      61.023      57.924      54.394      50.566      46.576      42.560      38.641      34.925    
  31.490      28.384      25.625      23.209      21.118      19.328      17.815      16.552      15.514      14.669    
  13.989      13.444      13.009      12.663      12.392      12.183      12.027      11.915      11.841      11.799    
  11.786      11.799      11.841      11.915      12.027      12.183      12.392      12.663      13.009      13.444    
  13.989      14.669      15.514      16.552      17.815      19.328      21.118      23.209      25.625      28.384    
  31.490      34.925      38.641      42.560      46.576      50.566      54.394      57.924      61.023      63.572    
  65.470      66.640      54.570      54.281      53.428      52.044      50.183      47.916      45.327      42.513    
  39.572      36.605      33.703      30.944      28.384      26.060      23.988      22.171      20.602      19.271    
  18.165      17.266      16.552      15.998      15.574      15.257      15.023      14.854      14.736      14.656    
  14.606      14.578      14.564      14.557      14.556      14.557      14.564      14.578      14.606      14.656    
  14.736      14.854      15.023      15.257      15.574      15.998      16.552      17.266      18.165      19.271    
  20.602      22.171      23.988      26.060      28.384      30.944      33.703      36.605      39.572      42.513    
  45.327      47.916      50.183      52.044      53.428      54.281      44.039      43.836      43.237      42.265    
  40.959      39.367      37.549      35.571      33.504      31.417      29.374      27.430      25.625      23.988    
  22.536      21.277      20.215      19.348      18.670      18.165      17.815      17.595      17.480      17.446    
  17.472      17.539      17.631      17.735      17.840      17.934      18.010      18.059      18.075      18.059    
  18.010      17.934      17.840      17.735      17.631      17.539      17.472      17.446      17.480      17.595    
  17.815      18.165      18.670      19.348      20.215      21.277      22.536      23.988      25.625      27.430    
  29.374      31.417      33.504      35.571      37.549      39.367      40.959      42.265      43.237      43.836    
  35.310      35.175      34.777      34.131      33.265      32.212      31.011      29.708      28.347      26.977    
  25.640      24.374      23.209      22.171      21.277      20.542      19.975      19.579      19.348      19.271    
  19.328      19.498      19.755      20.076      20.439      20.823      21.205      21.569      21.895      22.169    
  22.376      22.506      22.550      22.506      22.376      22.169      21.895      21.569      21.205      20.823    
  20.439      20.076      19.755      19.498      19.328      19.271      19.348      19.579      19.975      20.542    
  21.277      22.171      23.209      24.374      25.640      26.977      28.347      29.708      31.011      32.212    
  33.265      34.131      34.777      35.175      28.216      28.133      27.889      27.496      26.969      26.333    
  25.611      24.833      24.027      23.224      22.454      21.743      21.118      20.602      20.215      19.975    
  19.894      19.975      20.215      20.602      21.118      21.743      22.454      23.224      24.027      24.833    
  25.611      26.333      26.969      27.496      27.889      28.133      28.216      28.133      27.889      27.496    
  26.969      26.333      25.611      24.833      24.027      23.224      22.454      21.743      21.118      20.602    
  20.215      19.975      19.894      19.975      20.215      20.602      21.118      21.743      22.454      23.224    
  24.027      24.833      25.611      26.333      26.969      27.496      27.889      28.133      22.550      22.506    
  22.376      22.169      21.895      21.569      21.205      20.823      20.439      20.076      19.755      19.498    
  19.328      19.271      19.348      19.579      19.975      20.542      21.277      22.171      23.209      24.374    
  25.640      26.977      28.347      29.708      31.011      32.212      33.265      34.131      34.777      35.175    
  35.310      35.175      34.777      34.131      33.265      32.212      31.011      29.708      28.347      26.977    
  25.640      24.374      23.209      22.171      21.277      20.542      19.975      19.579      19.348      19.271    
  19.328      19.498      19.755      20.076      20.439      20.823      21.205      21.569      21.895      22.169    
  22.376      22.506      18.075      18.059      18.010      17.934      17.840      17.735      17.631      17.539    
  17.472      17.446      17.480      17.595      17.815      18.165      18.670      19.348      20.215      21.277    
  22.536      23.988      25.625      27.430      29.374      31.417      33.504      35.571      37.549      39.367    
  40.959      42.265      43.237      43.836      44.039      43.836      43.237      42.265      40.959      39.367    
  37.549      35.571      33.504      31.417      29.374      27.430      25.625      23.988      22.536      21.277    
  20.215      19.348      18.670      18.165      17.815      17.595      17.480      17.446      17.472      17.539    
  17.631      17.735      17.840      17.934      18.010      18.059      14.556      14.557      14.564      14.578    
  14.606      14.656      14.736      14.854      15.023      15.257      15.574      15.998      16.552      17.266    
  18.165      19.271      20.602      22.171      23.988      26.060      28.384      30.944      33.703      36.605    
  39.572      42.513      45.327      47.916      50.183      52.044      53.428      54.281      54.570      54.281    
  53.428      52.044      50.183      47.916      45.327      42.513      39.572      36.605      33.703      30.944    
  28.384      26.060      23.988      22.171      20.602      19.271      18.165      17.266      16.552      15.998    
  15.574      15.257      15.023      14.854      14.736      14.656      14.606      14.578      14.564      14.557    
  11.786      11.799      11.841      11.915      12.027      12.183      12.392      12.663      13.009      13.444    
  13.989      14.669      15.514      16.552      17.815      19.328      21.118      23.209      25.625      28.384    
  31.490      34.925      38.641      42.560      46.576      50.566      54.394      57.924      61.023      63.572    
  65.470      66.640      67.036      66.640      65.470      63.572      61.023      57.924      54.394      50.566    
  46.576      42.560      38.641      34.925      31.490      28.384      25.625      23.209      21.118      19.328    
  17.815      16.552      15.514      14.669      13.989      13.444      13.009      12.663      12.392      12.183    
  12.027      11.915      11.841      11.799      9.6021      9.6236      9.6893      9.8031      9.9708      10.200    
  10.501      10.883      11.361      11.953      12.681      13.576      14.669      15.998      17.595      19.498    
  21.743      24.374      27.430      30.944      34.925      39.352      44.161      49.250      54.486      59.709    
  64.744      69.406      73.514      76.861      79.292      80.753      81.239      80.753      79.292      76.861    
  73.514      69.406      64.744      59.709      54.486      49.250      44.161      39.352      34.925      30.944    
  27.430      24.374      21.743      19.498      17.595      15.998      14.669      13.576      12.681      11.953    
  11.361      10.883      10.501      10.200      9.9708      9.8031      9.6893      9.6236      7.8836      7.9102    
  7.9915      8.1315      8.3371      8.6170      8.9819      9.4447      10.022      10.734      11.609      12.681    
  13.989      15.574      17.480      19.755      22.454      25.640      29.374      33.703      38.641      44.161    
  50.184      56.589      63.214      69.863      76.306      82.171      87.051      90.750      93.262      94.690    
  95.149      94.690      93.262      90.750      87.051      82.171      76.306      69.863      63.214      56.589    
  50.184      44.161      38.641      33.703      29.374      25.640      22.454      19.755      17.480      15.574    
  13.989      12.681      11.609      10.734      10.022      9.4447      8.9819      8.6170      8.3371      8.1315    
  7.9915      7.9102      6.5374      6.5673      6.6587      6.8160      7.0466      7.3605      7.7698      8.2893    
  8.9383      9.7421      10.734      11.953      13.444      15.257      17.446      20.076      23.224      26.977    
  31.417      36.605      42.560      49.250      56.589      64.440      72.615      80.833      88.435      94.781    
  99.542      102.72      104.58      105.49      105.75      105.49      104.58      102.72      99.542      94.781    
  88.435      80.833      72.615      64.440      56.589      49.250      42.560      36.605      31.417      26.977    
  23.224      20.076      17.446      15.257      13.444      11.953      10.734      9.7421      8.9383      8.2893    
  7.7698      7.3605      7.0466      6.8160      6.6587      6.5673      5.4897      5.5216      5.6191      5.7870    
  6.0334      6.3690      6.8072      7.3653      8.0656      8.9383      10.022      11.361      13.009      15.023    
  17.472      20.439      24.027      28.347      33.504      39.572      46.576      54.486      63.214      72.615    
  82.403      91.688      99.484      105.17      108.61      110.11      110.36      110.10      109.93      110.10    
  110.36      110.11      108.61      105.17      99.484      91.688      82.403      72.615      63.214      54.486    
  46.576      39.572      33.504      28.347      24.027      20.439      17.472      15.023      13.009      11.361    
  10.022      8.9383      8.0656      7.3653      6.8072      6.3690      6.0334      5.7870      5.6191      5.5216    
  4.6790      4.7121      4.8128      4.9865      5.2417      5.5899      6.0459      6.6290      7.3653      8.2893    
  9.4447      10.883      12.663      14.854      17.539      20.823      24.833      29.708      35.571      42.513    
  50.566      59.709      69.863      80.833      91.688      101.05      107.83      111.49      112.17      110.64    
  108.12      105.94      105.09      105.94      108.12      110.64      112.17      111.49      107.83      101.05    
  91.688      80.833      69.863      59.709      50.566      42.513      35.571      29.708      24.833      20.823    
  17.539      14.854      12.663      10.883      9.4447      8.2893      7.3653      6.6290      6.0459      5.5899    
  5.2417      4.9865      4.8128      4.7121      4.0554      4.0888      4.1908      4.3668      4.6259      4.9806    
  5.4467      6.0459      6.8072      7.7698      8.9819      10.501      12.392      14.736      17.631      21.205    
  25.611      31.011      37.549      45.327      54.394      64.744      76.306      88.435      99.484      107.83    
  112.31      112.51      108.92      102.93      96.460      91.550      89.725      91.550      96.460      102.93    
  108.92      112.51      112.31      107.83      99.484      88.435      76.306      64.744      54.394      45.327    
  37.549      31.011      25.611      21.205      17.631      14.736      12.392      10.501      8.9819      7.7698    
  6.8072      6.0459      5.4467      4.9806      4.6259      4.3668      4.1908      4.0888      3.5801      3.6135    
  3.7153      3.8915      4.1516      4.5089      4.9806      5.5899      6.3690      7.3605      8.6170      10.200    
  12.183      14.656      17.735      21.569      26.333      32.212      39.367      47.916      57.924      69.406    
  82.171      94.781      105.17      111.49      112.51      107.96      98.789      87.056      75.579      67.240    
  64.194      67.240      75.579      87.056      98.789      107.96      112.51      111.49      105.17      94.781    
  82.171      69.406      57.924      47.916      39.367      32.212      26.333      21.569      17.735      14.656    
  12.183      10.200      8.6170      7.3605      6.3690      5.5899      4.9806      4.5089      4.1516      3.8915    
  3.7153      3.6135      3.2255      3.2585      3.3595      3.5345      3.7939      4.1516      4.6259      5.2417    
  6.0334      7.0466      8.3371      9.9708      12.027      14.606      17.840      21.895      26.969      33.265    
  40.959      50.183      61.023      73.514      87.051      99.542      108.61      112.17      108.92      98.789    
  83.168      64.898      47.754      35.554      31.137      35.554      47.754      64.898      83.168      98.789    
  108.92      112.17      108.61      99.542      87.051      73.514      61.023      50.183      40.959      33.265    
  26.969      21.895      17.840      14.606      12.027      9.9708      8.3371      7.0466      6.0334      5.2417    
  4.6259      4.1516      3.7939      3.5345      3.3595      3.2585      2.9711      3.0037      3.1034      3.2767    
  3.5345      3.8915      4.3668      4.9865      5.7870      6.8160      8.1315      9.8031      11.915      14.578    
  17.934      22.169      27.496      34.131      42.265      52.044      63.572      76.861      90.750      102.72    
  110.11      110.64      102.93      87.056      64.898      40.055      17.242      1.1926     -4.5878      1.1926    
  17.242      40.055      64.898      87.056      102.93      110.64      110.11      102.72      90.750      76.861    
  63.572      52.044      42.265      34.131      27.496      22.169      17.934      14.578      11.915      9.8031    
  8.1315      6.8160      5.7870      4.9865      4.3668      3.8915      3.5345      3.2767      3.1034      3.0037    
  2.8011      2.8333      2.9318      3.1034      3.3595      3.7153      4.1908      4.8128      5.6191      6.6587    
  7.9915      9.6893      11.841      14.564      18.010      22.376      27.889      34.777      43.237      53.428    
  65.470      79.292      93.262      104.58      110.36      108.12      96.460      75.579      47.754      17.242    
 -10.441     -29.786     -36.732     -29.786     -10.441      17.242      47.754      75.579      96.460      108.12    
  110.36      104.58      93.262      79.292      65.470      53.428      43.237      34.777      27.889      22.376    
  18.010      14.564      11.841      9.6893      7.9915      6.6587      5.6191      4.8128      4.1908      3.7153    
  3.3595      3.1034      2.9318      2.8333      2.7039      2.7357      2.8333      3.0037      3.2585      3.6135    
  4.0888      4.7121      5.5216      6.5673      7.9102      9.6236      11.799      14.557      18.059      22.506    
  28.133      35.175      43.836      54.281      66.640      80.753      94.690      105.49      110.10      105.94    
  91.550      67.240      35.554      1.1926     -29.786     -51.357     -59.089     -51.357     -29.786      1.1926    
  35.554      67.240      91.550      105.94      110.10      105.49      94.690      80.753      66.640      54.281    
  43.836      35.175      28.133      22.506      18.059      14.557      11.799      9.6236      7.9102      6.5673    
  5.5216      4.7121      4.0888      3.6135      3.2585      3.0037      2.8333      2.7357      2.6722      2.7039    
  2.8011      2.9711      3.2255      3.5801      4.0554      4.6790      5.4897      6.5374      7.8836      9.6021    
  11.786      14.556      18.075      22.550      28.216      35.310      44.039      54.570      67.036      81.239    
  95.149      105.75      109.93      105.09      89.725      64.194      31.137     -4.5878     -36.732     -59.089    
 -67.100     -59.089     -36.732     -4.5878      31.137      64.194      89.725      105.09      109.93      105.75    
  95.149      81.239      67.036      54.570      44.039      35.310      28.216      22.550      18.075      14.556    
  11.786      9.6021      7.8836      6.5374      5.4897      4.6790      4.0554      3.5801      3.2255      2.9711    
  2.8011      2.7039      2.7039      2.7357      2.8333      3.0037      3.2585      3.6135      4.0888      4.7121    
  5.5216      6.5673      7.9102      9.6236      11.799      14.557      18.059      22.506      28.133      35.175    
  43.836      54.281      66.640      80.753      94.690      105.49      110.10      105.94      91.550      67.240    
  35.554      1.1926     -29.786     -51.357     -59.089     -51.357     -29.786      1.1926      35.554      67.240    
  91.550      105.94      110.10      105.49      94.690      80.753      66.640      54.281      43.836      35.175    
  28.133      22.506      18.059      14.557      11.799      9.6236      7.9102      6.5673      5.5216      4.7121    
  4.0888      3.6135      3.2585      3.0037      2.8333      2.7357      2.8011      2.8333      2.9318      3.1034    
  3.3595      3.7153      4.1908      4.8128      5.6191      6.6587      7.9915      9.6893      11.841      14.564    
  18.010      22.376      27.889      34.777      43.237      53.428      65.470      79.292      93.262      104.58    
  110.36      108.12      96.460      75.579      47.754      17.242     -10.441     -29.786     -36.732     -29.786    
 -10.441      17.242      47.754      75.579      96.460      108.12      110.36      104.58      93.262      79.292    
  65.470      53.428      43.237      34.777      27.889      22.376      18.010      14.564      11.841      9.6893    
  7.9915      6.6587      5.6191      4.8128      4.1908      3.7153      3.3595      3.1034      2.9318      2.8333    
  2.9711      3.0037      3.1034      3.2767      3.5345      3.8915      4.3668      4.9865      5.7870      6.8160    
  8.1315      9.8031      11.915      14.578      17.934      22.169      27.496      34.131      42.265      52.044    
  63.572      76.861      90.750      102.72      110.11      110.64      102.93      87.056      64.898      40.055    
  17.242      1.1926     -4.5878      1.1926      17.242      40.055      64.898      87.056      102.93      110.64    
  110.11      102.72      90.750      76.861      63.572      52.044      42.265      34.131      27.496      22.169    
  17.934      14.578      11.915      9.8031      8.1315      6.8160      5.7870      4.9865      4.3668      3.8915    
  3.5345      3.2767      3.1034      3.0037      3.2255      3.2585      3.3595      3.5345      3.7939      4.1516    
  4.6259      5.2417      6.0334      7.0466      8.3371      9.9708      12.027      14.606      17.840      21.895    
  26.969      33.265      40.959      50.183      61.023      73.514      87.051      99.542      108.61      112.17    
  108.92      98.789      83.168      64.898      47.754      35.554      31.137      35.554      47.754      64.898    
  83.168      98.789      108.92      112.17      108.61      99.542      87.051      73.514      61.023      50.183    
  40.959      33.265      26.969      21.895      17.840      14.606      12.027      9.9708      8.3371      7.0466    
  6.0334      5.2417      4.6259      4.1516      3.7939      3.5345      3.3595      3.2585      3.5801      3.6135    
  3.7153      3.8915      4.1516      4.5089      4.9806      5.5899      6.3690      7.3605      8.6170      10.200    
  12.183      14.656      17.735      21.569      26.333      32.212      39.367      47.916      57.924      69.406    
  82.171      94.781      105.17      111.49      112.51      107.96      98.789      87.056      75.579      67.240    
  64.194      67.240      75.579      87.056      98.789      107.96      112.51      111.49      105.17      94.781    
  82.171      69.406      57.924      47.916      39.367      32.212      26.333      21.569      17.735      14.656    
  12.183      10.200      8.6170      7.3605      6.3690      5.5899      4.9806      4.5089      4.1516      3.8915    