   8   8   0   0
  0.2334048E+02  0.5715663E-09  0.5715663E-09  0.5715663E-09  0.5000000E-15
  1.000000000000000E-004
  CAR 
 GaAs                                    
      8.61818432    -10.99258946  301      2.54088724      1.00000000
    -10.993  0.0000E+00  0.0000E+00
    -10.927  0.0000E+00  0.0000E+00
    -10.862  0.0000E+00  0.0000E+00
    -10.796  0.0000E+00  0.0000E+00
    -10.731  0.0000E+00  0.0000E+00
    -10.666  0.0000E+00  0.0000E+00
    -10.600  0.0000E+00  0.0000E+00
    -10.535  0.0000E+00  0.0000E+00
    -10.470  0.0000E+00  0.0000E+00
    -10.404  0.0000E+00  0.0000E+00
    -10.339  0.0000E+00  0.0000E+00
    -10.274  0.0000E+00  0.0000E+00
    -10.208  0.0000E+00  0.0000E+00
    -10.143  0.0000E+00  0.0000E+00
    -10.077  0.0000E+00  0.0000E+00
    -10.012  0.0000E+00  0.0000E+00
     -9.947  0.5201E-01  0.7959E-03
     -9.881  0.3056E+00  0.1134E-01
     -9.816  0.7081E+00  0.4463E-01
     -9.751  0.9390E+00  0.9964E-01
     -9.685  0.9874E+00  0.1630E+00
     -9.620  0.1082E+01  0.2302E+00
     -9.554  0.1254E+01  0.3063E+00
     -9.489  0.1448E+01  0.3946E+00
     -9.424  0.1987E+01  0.5005E+00
     -9.358  0.2799E+01  0.6585E+00
     -9.293  0.2810E+01  0.8515E+00
     -9.228  0.2337E+01  0.1019E+01
     -9.162  0.2257E+01  0.1167E+01
     -9.097  0.2221E+01  0.1314E+01
     -9.032  0.2150E+01  0.1457E+01
     -8.966  0.2934E+01  0.1610E+01
     -8.901  0.2041E+01  0.1772E+01
     -8.835  0.1107E+01  0.1858E+01
     -8.770  0.2253E+01  0.1962E+01
     -8.705  0.3457E+01  0.2157E+01
     -8.639  0.3674E+01  0.2399E+01
     -8.574  0.4030E+01  0.2643E+01
     -8.509  0.4507E+01  0.2923E+01
     -8.443  0.1400E+02  0.3417E+01
     -8.378  0.4715E+01  0.3983E+01
     -8.312  0.4304E+01  0.4254E+01
     -8.247  0.4708E+01  0.4548E+01
     -8.182  0.6546E+01  0.4889E+01
     -8.116  0.7766E+01  0.5365E+01
     -8.051  0.8767E+01  0.5904E+01
     -7.986  0.8935E+01  0.6518E+01
     -7.920  0.6479E+01  0.6999E+01
     -7.855  0.5831E+01  0.7402E+01
     -7.789  0.4933E+01  0.7762E+01
     -7.724  0.9791E+00  0.8000E+01
     -7.659  0.0000E+00  0.8000E+01
     -7.593  0.0000E+00  0.8000E+01
     -7.528  0.0000E+00  0.8000E+01
     -7.463  0.0000E+00  0.8000E+01
     -7.397  0.0000E+00  0.8000E+01
     -7.332  0.0000E+00  0.8000E+01
     -7.267  0.0000E+00  0.8000E+01
     -7.201  0.0000E+00  0.8000E+01
     -7.136  0.0000E+00  0.8000E+01
     -7.070  0.0000E+00  0.8000E+01
     -7.005  0.0000E+00  0.8000E+01
     -6.940  0.0000E+00  0.8000E+01
     -6.874  0.0000E+00  0.8000E+01
     -6.809  0.0000E+00  0.8000E+01
     -6.744  0.0000E+00  0.8000E+01
     -6.678  0.0000E+00  0.8000E+01
     -6.613  0.0000E+00  0.8000E+01
     -6.547  0.0000E+00  0.8000E+01
     -6.482  0.0000E+00  0.8000E+01
     -6.417  0.0000E+00  0.8000E+01
     -6.351  0.0000E+00  0.8000E+01
     -6.286  0.0000E+00  0.8000E+01
     -6.221  0.0000E+00  0.8000E+01
     -6.155  0.0000E+00  0.8000E+01
     -6.090  0.0000E+00  0.8000E+01
     -6.025  0.0000E+00  0.8000E+01
     -5.959  0.0000E+00  0.8000E+01
     -5.894  0.0000E+00  0.8000E+01
     -5.828  0.0000E+00  0.8000E+01
     -5.763  0.0000E+00  0.8000E+01
     -5.698  0.0000E+00  0.8000E+01
     -5.632  0.0000E+00  0.8000E+01
     -5.567  0.0000E+00  0.8000E+01
     -5.502  0.0000E+00  0.8000E+01
     -5.436  0.0000E+00  0.8000E+01
     -5.371  0.0000E+00  0.8000E+01
     -5.305  0.0000E+00  0.8000E+01
     -5.240  0.0000E+00  0.8000E+01
     -5.175  0.0000E+00  0.8000E+01
     -5.109  0.0000E+00  0.8000E+01
     -5.044  0.0000E+00  0.8000E+01
     -4.979  0.0000E+00  0.8000E+01
     -4.913  0.0000E+00  0.8000E+01
     -4.848  0.0000E+00  0.8000E+01
     -4.783  0.0000E+00  0.8000E+01
     -4.717  0.0000E+00  0.8000E+01
     -4.652  0.0000E+00  0.8000E+01
     -4.586  0.0000E+00  0.8000E+01
     -4.521  0.0000E+00  0.8000E+01
     -4.456  0.0000E+00  0.8000E+01
     -4.390  0.0000E+00  0.8000E+01
     -4.325  0.0000E+00  0.8000E+01
     -4.260  0.0000E+00  0.8000E+01
     -4.194  0.0000E+00  0.8000E+01
     -4.129  0.2049E+00  0.8002E+01
     -4.063  0.1778E+01  0.8069E+01
     -3.998  0.2533E+01  0.8202E+01
     -3.933  0.5054E+01  0.8446E+01
     -3.867  0.6991E+01  0.8850E+01
     -3.802  0.1618E+02  0.9623E+01
     -3.737  0.1355E+02  0.1055E+02
     -3.671  0.7534E+01  0.1115E+02
     -3.606  0.6279E+01  0.1159E+02
     -3.540  0.3705E+01  0.1186E+02
     -3.475  0.3883E+01  0.1211E+02
     -3.410  0.3055E+01  0.1233E+02
     -3.344  0.2982E+01  0.1253E+02
     -3.279  0.2916E+01  0.1272E+02
     -3.214  0.2856E+01  0.1291E+02
     -3.148  0.2801E+01  0.1310E+02
     -3.083  0.2196E+01  0.1327E+02
     -3.018  0.2149E+01  0.1341E+02
     -2.952  0.2092E+01  0.1355E+02
     -2.887  0.2021E+01  0.1368E+02
     -2.821  0.1915E+01  0.1381E+02
     -2.756  0.1822E+01  0.1393E+02
     -2.691  0.1697E+01  0.1405E+02
     -2.625  0.1559E+01  0.1416E+02
     -2.560  0.1478E+01  0.1425E+02
     -2.495  0.1269E+01  0.1434E+02
     -2.429  0.1087E+01  0.1442E+02
     -2.364  0.9309E+00  0.1449E+02
     -2.298  0.8955E+00  0.1454E+02
     -2.233  0.7652E+00  0.1460E+02
     -2.168  0.7753E+00  0.1465E+02
     -2.102  0.7837E+00  0.1470E+02
     -2.037  0.7902E+00  0.1475E+02
     -1.972  0.7949E+00  0.1481E+02
     -1.906  0.7978E+00  0.1486E+02
     -1.841  0.8082E+00  0.1491E+02
     -1.776  0.8234E+00  0.1496E+02
     -1.710  0.8421E+00  0.1502E+02
     -1.645  0.8645E+00  0.1507E+02
     -1.579  0.8904E+00  0.1513E+02
     -1.514  0.9199E+00  0.1519E+02
     -1.449  0.9530E+00  0.1525E+02
     -1.383  0.9897E+00  0.1532E+02
     -1.318  0.1050E+01  0.1538E+02
     -1.253  0.1021E+01  0.1545E+02
     -1.187  0.2947E+01  0.1558E+02
     -1.122  0.3117E+01  0.1578E+02
     -1.056  0.3309E+01  0.1599E+02
     -0.991  0.3505E+01  0.1621E+02
     -0.926  0.6491E+01  0.1650E+02
     -0.860  0.7359E+01  0.1698E+02
     -0.795  0.5903E+01  0.1741E+02
     -0.730  0.5263E+01  0.1777E+02
     -0.664  0.5151E+01  0.1811E+02
     -0.599  0.4943E+01  0.1844E+02
     -0.534  0.4580E+01  0.1874E+02
     -0.468  0.4595E+01  0.1904E+02
     -0.403  0.4639E+01  0.1934E+02
     -0.337  0.5250E+01  0.1968E+02
     -0.272  0.5095E+01  0.2002E+02
     -0.207  0.4686E+01  0.2032E+02
     -0.141  0.4777E+01  0.2063E+02
     -0.076  0.5571E+01  0.2097E+02
     -0.011  0.7100E+01  0.2139E+02
      0.055  0.9491E+01  0.2197E+02
      0.120  0.7233E+01  0.2251E+02
      0.186  0.6904E+01  0.2297E+02
      0.251  0.6583E+01  0.2341E+02
      0.316  0.6356E+01  0.2383E+02
      0.382  0.5777E+01  0.2423E+02
      0.447  0.5275E+01  0.2460E+02
      0.512  0.4889E+01  0.2493E+02
      0.578  0.5070E+01  0.2524E+02
      0.643  0.6072E+01  0.2564E+02
      0.709  0.6083E+01  0.2602E+02
      0.774  0.5395E+01  0.2637E+02
      0.839  0.5741E+01  0.2674E+02
      0.905  0.7228E+01  0.2714E+02
      0.970  0.9634E+01  0.2767E+02
      1.035  0.6140E+01  0.2819E+02
      1.101  0.5330E+01  0.2856E+02
      1.166  0.4495E+01  0.2888E+02
      1.231  0.3514E+01  0.2917E+02
      1.297  0.2256E+01  0.2933E+02
      1.362  0.2370E+01  0.2948E+02
      1.428  0.3456E+01  0.2967E+02
      1.493  0.5276E+01  0.2997E+02
      1.558  0.5567E+01  0.3031E+02
      1.624  0.6182E+01  0.3069E+02
      1.689  0.5479E+01  0.3108E+02
      1.754  0.1973E+01  0.3133E+02
      1.820  0.1732E+01  0.3145E+02
      1.885  0.1494E+01  0.3156E+02
      1.951  0.1260E+01  0.3165E+02
      2.016  0.1033E+01  0.3172E+02
      2.081  0.1050E+01  0.3179E+02
      2.147  0.1080E+01  0.3186E+02
      2.212  0.9067E+00  0.3193E+02
      2.277  0.5311E+00  0.3197E+02
      2.343  0.1382E+00  0.3199E+02
      2.408  0.3845E-01  0.3200E+02
      2.473  0.4175E-03  0.3200E+02
      2.539  0.0000E+00  0.3200E+02
      2.604  0.0000E+00  0.3200E+02
      2.670  0.0000E+00  0.3200E+02
      2.735  0.0000E+00  0.3200E+02
      2.800  0.0000E+00  0.3200E+02
      2.866  0.2540E-03  0.3200E+02
      2.931  0.1292E-02  0.3200E+02
      2.996  0.3131E-02  0.3200E+02
      3.062  0.5771E-02  0.3200E+02
      3.127  0.9211E-02  0.3200E+02
      3.193  0.1345E-01  0.3200E+02
      3.258  0.1849E-01  0.3200E+02
      3.323  0.2434E-01  0.3200E+02
      3.389  0.3098E-01  0.3201E+02
      3.454  0.3842E-01  0.3201E+02
      3.519  0.4042E+00  0.3203E+02
      3.585  0.1915E+00  0.3204E+02
      3.650  0.2271E+00  0.3205E+02
      3.715  0.2663E+00  0.3207E+02
      3.781  0.3090E+00  0.3209E+02
      3.846  0.3553E+00  0.3211E+02
      3.912  0.4051E+00  0.3213E+02
      3.977  0.4788E+00  0.3216E+02
      4.042  0.7991E+00  0.3220E+02
      4.108  0.1104E+01  0.3227E+02
      4.173  0.1392E+01  0.3235E+02
      4.238  0.2775E+01  0.3250E+02
      4.304  0.2468E+01  0.3265E+02
      4.369  0.3324E+01  0.3283E+02
      4.435  0.4470E+01  0.3309E+02
      4.500  0.4624E+01  0.3339E+02
      4.565  0.5143E+01  0.3371E+02
      4.631  0.5990E+01  0.3407E+02
      4.696  0.6844E+01  0.3449E+02
      4.761  0.6933E+01  0.3496E+02
      4.827  0.6906E+01  0.3539E+02
      4.892  0.1112E+02  0.3594E+02
      4.958  0.8059E+01  0.3650E+02
      5.023  0.6625E+01  0.3699E+02
      5.088  0.6587E+01  0.3742E+02
      5.154  0.6927E+01  0.3789E+02
      5.219  0.6299E+01  0.3833E+02
      5.284  0.7696E+01  0.3875E+02
      5.350  0.5987E+01  0.3920E+02
      5.415  0.3988E+01  0.3951E+02
      5.480  0.3769E+01  0.3976E+02
      5.546  0.3579E+01  0.4000E+02
      5.611  0.3418E+01  0.4023E+02
      5.677  0.3286E+01  0.4045E+02
      5.742  0.2708E+01  0.4064E+02
      5.807  0.1338E+01  0.4078E+02
      5.873  0.1837E+01  0.4089E+02
      5.938  0.2003E+01  0.4102E+02
      6.003  0.2166E+01  0.4115E+02
      6.069  0.2327E+01  0.4130E+02
      6.134  0.2487E+01  0.4146E+02
      6.200  0.2644E+01  0.4162E+02
      6.265  0.2891E+01  0.4180E+02
      6.330  0.4734E+01  0.4203E+02
      6.396  0.5403E+01  0.4236E+02
      6.461  0.4986E+01  0.4270E+02
      6.526  0.5343E+01  0.4304E+02
      6.592  0.6199E+01  0.4342E+02
      6.657  0.6355E+01  0.4384E+02
      6.722  0.8477E+01  0.4429E+02
      6.788  0.6543E+01  0.4478E+02
      6.853  0.4923E+01  0.4515E+02
      6.919  0.3271E+01  0.4543E+02
      6.984  0.2875E+01  0.4561E+02
      7.049  0.3286E+01  0.4581E+02
      7.115  0.3771E+01  0.4604E+02
      7.180  0.7122E+01  0.4635E+02
      7.245  0.7961E+01  0.4706E+02
      7.311  0.4426E+01  0.4738E+02
      7.376  0.2857E+01  0.4763E+02
      7.442  0.1960E+01  0.4780E+02
      7.507  0.1351E+01  0.4791E+02
      7.572  0.7443E+00  0.4798E+02
      7.638  0.0000E+00  0.4800E+02
      7.703  0.0000E+00  0.4800E+02
      7.768  0.0000E+00  0.4800E+02
      7.834  0.0000E+00  0.4800E+02
      7.899  0.0000E+00  0.4800E+02
      7.964  0.0000E+00  0.4800E+02
      8.030  0.0000E+00  0.4800E+02
      8.095  0.0000E+00  0.4800E+02
      8.161  0.0000E+00  0.4800E+02
      8.226  0.0000E+00  0.4800E+02
      8.291  0.0000E+00  0.4800E+02
      8.357  0.0000E+00  0.4800E+02
      8.422  0.0000E+00  0.4800E+02
      8.487  0.0000E+00  0.4800E+02
      8.553  0.0000E+00  0.4800E+02
      8.618  0.0000E+00  0.4800E+02
