       N       E                     dE             d eps       ncg     rms          rms(c)
DAV:   1    -0.343755279593E+02   -0.34376E+02   -0.35984E+01   544   0.244E+01    0.123E+01
DAV:   2    -0.334240476632E+02    0.95148E+00   -0.18821E+00   496   0.637E+00    0.741E+00
DAV:   3    -0.331523297228E+02    0.27172E+00   -0.15813E+00   528   0.446E+00    0.801E-01
DAV:   4    -0.331208586530E+02    0.31471E-01   -0.15751E-01   504   0.171E+00    0.590E-01
DAV:   5    -0.331195650547E+02    0.12936E-02   -0.10488E-02   520   0.446E-01    0.116E-01
DAV:   6    -0.331197302410E+02   -0.16519E-03   -0.19727E-04   448   0.657E-02    0.438E-02
DAV:   7    -0.331198514198E+02   -0.12118E-03   -0.18070E-04   384   0.683E-02    0.118E-02
DAV:   8    -0.331198488050E+02    0.26148E-05   -0.32365E-05   248   0.218E-02
   1 F= -.33119849E+02 E0= -.33119849E+02  d E =0.000000E+00
 imaginary and real dielectric function
