 vasp.6.4.3 19Mar24 (build Aug 29 2024 15:27:20) complex                        
  
 executed on             LinuxIFC date 2025.03.19  11:27:38
 running    8 mpi-ranks, on    1 nodes
 distrk:  each k-point on    8 cores,    1 groups
 distr:  one band on NCORE=   1 cores,    8 groups


--------------------------------------------------------------------------------------------------------


 INCAR:
   SYSTEM = GaAs
   PREC = Normal
   ENCUT = 500
   ISMEAR = -5
   SIGMA = 0.1
   IBRION = 2
   LOPTICS = .TRUE.

 POTCAR:    PAW_PBE As 22Sep2009                  
 POTCAR:    PAW_PBE Ga 08Apr2002                  
 -----------------------------------------------------------------------------
|                                                                             |
|           W    W    AA    RRRRR   N    N  II  N    N   GGGG   !!!           |
|           W    W   A  A   R    R  NN   N  II  NN   N  G    G  !!!           |
|           W    W  A    A  R    R  N N  N  II  N N  N  G       !!!           |
|           W WW W  AAAAAA  RRRRR   N  N N  II  N  N N  G  GGG   !            |
|           WW  WW  A    A  R   R   N   NN  II  N   NN  G    G                |
|           W    W  A    A  R    R  N    N  II  N    N   GGGG   !!!           |
|                                                                             |
|     For optimal performance we recommend to set                             |
|       NCORE = 2 up to number-of-cores-per-socket                            |
|     NCORE specifies how many cores store one orbital (NPAR=cpu/NCORE).      |
|     This setting can greatly improve the performance of VASP for DFT.       |
|     The default, NCORE=1 might be grossly inefficient on modern             |
|     multi-core architectures or massively parallel machines. Do your        |
|     own testing! More info at https://www.vasp.at/wiki/index.php/NCORE      |
|     Unfortunately you need to use the default for GW and RPA                |
|     calculations (for HF NCORE is supported but not extensively tested      |
|     yet).                                                                   |
|                                                                             |
 -----------------------------------------------------------------------------

 POTCAR:    PAW_PBE As 22Sep2009                  
   VRHFIN =As: s2p3                                                                                 
   LEXCH  = PE                                                                                      
   EATOM  =   170.1867 eV,   12.5084 Ry                                                             
                                                                                                    
   TITEL  = PAW_PBE As 22Sep2009                                                                    
   LULTRA =        F    use ultrasoft PP ?                                                          
   IUNSCR =        1    unscreen: 0-lin 1-nonlin 2-no                                               
   RPACOR =    1.900    partial core radius                                                         
   POMASS =   74.922; ZVAL   =    5.000    mass and valenz                                          
   RCORE  =    2.100    outmost cutoff radius                                                       
   RWIGS  =    2.300; RWIGS  =    1.217    wigner-seitz radius (au A)                               
   ENMAX  =  208.702; ENMIN  =  156.526 eV                                                          
   ICORE  =        3    local potential                                                             
   LCOR   =        T    correct aug charges                                                         
   LPAW   =        T    paw PP                                                                      
   EAUG   =  462.758                                                                                
   DEXC   =    0.000                                                                                
   RMAX   =    2.144    core radius for proj-oper                                                   
   RAUG   =    1.300    factor for augmentation sphere                                              
   RDEP   =    2.140    radius for radial grids                                                     
   RDEPT  =    1.956    core radius for aug-charge                                                  
                                                                                                    
   Atomic configuration                                                                             
   10 entries                                                                                       
     n  l   j            E        occ.                                                              
     1  0  0.50    -11718.0418   2.0000                                                             
     2  0  0.50     -1486.5454   2.0000                                                             
     2  1  1.50     -1303.3889   6.0000                                                             
     3  0  0.50      -190.2849   2.0000                                                             
     3  1  1.50      -133.6555   6.0000                                                             
     3  2  2.50       -40.6443  10.0000                                                             
     4  0  0.50       -14.4936   2.0000                                                             
     4  1  0.50        -5.1947   3.0000                                                             
     4  2  1.50        -5.4423   0.0000                                                             
     4  3  2.50        -5.4423   0.0000                                                             
   Description                                                                                      
     l       E           TYP  RCUT    TYP  RCUT                                                     
     0    -14.4935570     23  2.100                                                                 
     0    -11.9212055     23  2.100                                                                 
     1     -5.1947127     23  2.100                                                                 
     1     27.2116520     23  2.100                                                                 
     2     -5.4423304     23  2.100                                                                 
     3     -1.3605826      7  2.100                                                                 
  local pseudopotential read in
  partial core-charges read in
  partial kinetic energy density read in
  atomic valenz-charges read in
  non local Contribution for L=           0  read in
    real space projection operators read in
  non local Contribution for L=           0  read in
    real space projection operators read in
  non local Contribution for L=           1  read in
    real space projection operators read in
  non local Contribution for L=           1  read in
    real space projection operators read in
  non local Contribution for L=           2  read in
    real space projection operators read in
    PAW grid and wavefunctions read in
 
   number of l-projection  operators is LMAX  =           5
   number of lm-projection operators is LMMAX =          13
 
 POTCAR:    PAW_PBE Ga 08Apr2002                  
   VRHFIN =Ga: s2p1                                                                                 
   LEXCH  = PE                                                                                      
   EATOM  =    58.8688 eV,    4.3267 Ry                                                             
                                                                                                    
   TITEL  = PAW_PBE Ga 08Apr2002                                                                    
   LULTRA =        F    use ultrasoft PP ?                                                          
   IUNSCR =        1    unscreen: 0-lin 1-nonlin 2-no                                               
   RPACOR =    2.170    partial core radius                                                         
   POMASS =   69.723; ZVAL   =    3.000    mass and valenz                                          
   RCORE  =    2.600    outmost cutoff radius                                                       
   RWIGS  =    2.650; RWIGS  =    1.402    wigner-seitz radius (au A)                               
   ENMAX  =  134.678; ENMIN  =  101.009 eV                                                          
   ICORE  =        3    local potential                                                             
   LCOR   =        T    correct aug charges                                                         
   LPAW   =        T    paw PP                                                                      
   EAUG   =  320.264                                                                                
   DEXC   =    0.000                                                                                
   RMAX   =    2.658    core radius for proj-oper                                                   
   RAUG   =    1.300    factor for augmentation sphere                                              
   RDEP   =    2.684    radius for radial grids                                                     
   RDEPT  =    2.308    core radius for aug-charge                                                  
                                                                                                    
   Atomic configuration                                                                             
   10 entries                                                                                       
     n  l   j            E        occ.                                                              
     1  0  0.50    -10228.7830   2.0000                                                             
     2  0  0.50     -1262.1604   2.0000                                                             
     2  1  1.50     -1098.6333   6.0000                                                             
     3  0  0.50      -148.1110   2.0000                                                             
     3  1  1.50       -98.8436   6.0000                                                             
     3  2  2.50       -19.1549  10.0000                                                             
     4  0  0.50        -8.9483   2.0000                                                             
     4  1  0.50        -2.5791   1.0000                                                             
     4  2  1.50         5.4423   0.0000                                                             
     4  3  2.50        -2.7416   0.0000                                                             
   Description                                                                                      
     l       E           TYP  RCUT    TYP  RCUT                                                     
     0     -8.9483097     23  2.600                                                                 
     0     -5.8232215     23  2.600                                                                 
     1     -2.5790793     23  2.600                                                                 
     1      5.2230115     23  2.600                                                                 
     2      1.3605826     23  2.600                                                                 
     3     -1.3605826      7  2.600                                                                 
  local pseudopotential read in
  partial core-charges read in
  partial kinetic energy density read in
  atomic valenz-charges read in
  non local Contribution for L=           0  read in
    real space projection operators read in
  non local Contribution for L=           0  read in
    real space projection operators read in
  non local Contribution for L=           1  read in
    real space projection operators read in
  non local Contribution for L=           1  read in
    real space projection operators read in
  non local Contribution for L=           2  read in
    real space projection operators read in
    PAW grid and wavefunctions read in
 
   number of l-projection  operators is LMAX  =           5
   number of lm-projection operators is LMMAX =          13
 
  PAW_PBE As 22Sep2009                  :
 energy of atom  1       EATOM= -170.1867
 kinetic energy error for atom=    0.0005 (will be added to EATOM!!)
  PAW_PBE Ga 08Apr2002                  :
 energy of atom  2       EATOM=  -58.8688
 kinetic energy error for atom=    0.0000 (will be added to EATOM!!)
 
 
 POSCAR: cubic gallium arsenide
  positions in direct lattice
  velocities in cartesian coordinates


 exchange-correlation table for PE
   RHO(1)=    0.500       N(1)  =     2000
   RHO(2)=  100.500       N(2)  =     4000
 


--------------------------------------------------------------------------------------------------------


 ion  position               nearest neighbor table
   1  0.000  0.000  0.000-   5 2.47   6 2.47   7 2.47   8 2.47
   2  0.500  0.500  0.000-   5 2.47   6 2.47   7 2.47   8 2.47
   3  0.500  0.000  0.500-   5 2.47   6 2.47   7 2.47   8 2.47
   4  0.000  0.500  0.500-   5 2.47   6 2.47   7 2.47   8 2.47
   5  0.250  0.250  0.250-   1 2.47   2 2.47   3 2.47   4 2.47
   6  0.750  0.250  0.750-   1 2.47   2 2.47   3 2.47   4 2.47
   7  0.750  0.750  0.250-   1 2.47   2 2.47   3 2.47   4 2.47
   8  0.250  0.750  0.750-   1 2.47   2 2.47   3 2.47   4 2.47
 
  LATTYP: Found a simple cubic cell.
 ALAT       =     5.7156628048
  
  Lattice vectors:
  
 A1 = (   5.7156628048,   0.0000000000,   0.0000000000)
 A2 = (   0.0000000000,   5.7156628048,   0.0000000000)
 A3 = (   0.0000000000,   0.0000000000,   5.7156628048)


Analysis of symmetry for initial positions (statically):
=====================================================================
 Subroutine PRICEL returns following result:
 
  LATTYP: Found a face centered cubic cell.
 ALAT       =     5.7156628048
  
  Lattice vectors:
  
 A1 = (   2.8578314024,  -2.8578314024,   0.0000000000)
 A2 = (   2.8578314024,   0.0000000000,   2.8578314024)
 A3 = (   0.0000000000,  -2.8578314024,   2.8578314024)
 
   4 primitive cells build up your supercell.
 

 Routine SETGRP: Setting up the symmetry group for a 
 simple cubic supercell.


 Subroutine GETGRP returns: Found 24 space group operations
 (whereof 24 operations were pure point group operations)
 out of a pool of 48 trial point group operations.


The static configuration has the point symmetry T_d .


Analysis of symmetry for dynamics (positions and initial velocities):
=====================================================================
 Subroutine PRICEL returns following result:
 
  LATTYP: Found a face centered cubic cell.
 ALAT       =     5.7156628048
  
  Lattice vectors:
  
 A1 = (   2.8578314024,  -2.8578314024,   0.0000000000)
 A2 = (   2.8578314024,   0.0000000000,   2.8578314024)
 A3 = (   0.0000000000,  -2.8578314024,   2.8578314024)
 
   4 primitive cells build up your supercell.
 

 Routine SETGRP: Setting up the symmetry group for a 
 simple cubic supercell.


 Subroutine GETGRP returns: Found 24 space group operations
 (whereof 24 operations were pure point group operations)
 out of a pool of 48 trial point group operations.


The dynamic configuration has the point symmetry T_d .


 Subroutine INISYM returns: Found 24 space group operations
 (whereof 24 operations are pure point group operations),
 and found     4 'primitive' translations


----------------------------------------------------------------------------------------

                                     Primitive cell                                     

  volume of cell :      46.6810

  direct lattice vectors                    reciprocal lattice vectors
     2.857831402 -2.857831402  0.000000000     0.174957837 -0.174957837 -0.174957837
     2.857831402  0.000000000  2.857831402     0.174957837  0.174957837  0.174957837
     0.000000000 -2.857831402  2.857831402    -0.174957837 -0.174957837  0.174957837

  length of vectors
     4.041583928  4.041583928  4.041583928     0.303035862  0.303035862  0.303035862

  position of ions in fractional coordinates (direct lattice)
     0.000000000  0.000000000  0.000000000
     0.750000000  0.750000000  0.750000000

  ion indices of the primitive-cell ions
   primitive index   ion index
                 1           1
                 2           5

----------------------------------------------------------------------------------------

 
 
 KPOINTS: Automatic mesh                          

Automatic generation of k-mesh.
 Grid dimensions read from file:
 generate k-points for:    5    5    5

 Generating k-lattice:

  Cartesian coordinates                     Fractional coordinates (reciprocal lattice)
     0.034991567  0.000000000  0.000000000     0.200000000  0.000000000  0.000000000
     0.000000000  0.034991567  0.000000000     0.000000000  0.200000000  0.000000000
     0.000000000  0.000000000  0.034991567     0.000000000  0.000000000  0.200000000

  Length of vectors
     0.034991567  0.034991567  0.034991567

  Shift w.r.t. Gamma in fractional coordinates (k-lattice)
     0.000000000  0.000000000  0.000000000

 TETIRR: Found     57 inequivalent tetrahedra from      750
 
 Subroutine IBZKPT returns following result:
 ===========================================
 
 Found     10 irreducible k-points:
 
 Following reciprocal coordinates:
            Coordinates               Weight
  0.000000  0.000000  0.000000      1.000000
  0.200000  0.000000  0.000000      6.000000
  0.400000  0.000000  0.000000      6.000000
  0.200000  0.200000  0.000000     12.000000
  0.400000  0.200000  0.000000     24.000000
  0.400000  0.400000  0.000000     12.000000
  0.200000  0.200000  0.200000      8.000000
  0.400000  0.200000  0.200000     24.000000
  0.400000  0.400000  0.200000     24.000000
  0.400000  0.400000  0.400000      8.000000
 
 Following cartesian coordinates:
            Coordinates               Weight
  0.000000  0.000000  0.000000      1.000000
  0.157462  0.000000  0.000000      6.000000
  0.314924  0.000000  0.000000      6.000000
  0.157462  0.157462  0.000000     12.000000
  0.314924  0.157462  0.000000     24.000000
  0.314924  0.314924  0.000000     12.000000
  0.157462  0.157462  0.157462      8.000000
  0.314924  0.157462  0.157462     24.000000
  0.314924  0.314924  0.157462     24.000000
  0.314924  0.314924  0.314924      8.000000
 


--------------------------------------------------------------------------------------------------------




 Dimension of arrays:
   k-points           NKPTS =     10   k-points in BZ     NKDIM =     10   number of bands    NBANDS=     24
   number of dos      NEDOS =    301   number of ions     NIONS =      8
   non local maximal  LDIM  =      5   non local SUM 2l+1 LMDIM =     13
   total plane-waves  NPLWV =  32768
   max r-space proj   IRMAX =      1   max aug-charges    IRDMAX=  12811
   dimension x,y,z NGX =    32 NGY =   32 NGZ =   32
   dimension x,y,z NGXF=    64 NGYF=   64 NGZF=   64
   support grid    NGXF=    64 NGYF=   64 NGZF=   64
   ions per type =               4   4
   NGX,Y,Z   is equivalent  to a cutoff of   9.31,  9.31,  9.31 a.u.
   NGXF,Y,Z  is equivalent  to a cutoff of  18.62, 18.62, 18.62 a.u.

 SYSTEM =  GaAs                                    
 POSCAR =  cubic gallium arsenide                  

 Startparameter for this run:
   NWRITE =      2    write-flag & timer
   PREC   = normal    normal or accurate (medium, high low for compatibility)
   ISTART =      1    job   : 0-new  1-cont  2-samecut
   ICHARG =      0    charge: 1-file 2-atom 10-const
   ISPIN  =      1    spin polarized calculation?
   LNONCOLLINEAR =      F non collinear calculations
   LSORBIT =      F    spin-orbit coupling
   INIWAV =      1    electr: 0-lowe 1-rand  2-diag
   LASPH  =      F    aspherical Exc in radial PAW
 Electronic Relaxation 1
   ENCUT  =  500.0 eV  36.75 Ry    6.06 a.u.  10.42 10.42 10.42*2*pi/ulx,y,z
   ENINI  =  500.0     initial cutoff
   ENAUG  =  462.8 eV  augmentation charge cutoff
   NELM   =     60;   NELMIN=  2; NELMDL=  0     # of ELM steps 
   EDIFF  = 0.1E-03   stopping-criterion for ELM
   LREAL  =      F    real-space projection
   NLSPLINE    = F    spline interpolate recip. space projectors
   LCOMPAT=      F    compatible to vasp.4.4
   GGA_COMPAT  = T    GGA compatible to vasp.4.4-vasp.4.6
   LMAXPAW     = -100 max onsite density
   LMAXMIX     =    2 max onsite mixed and CHGCAR
   VOSKOWN=      0    Vosko Wilk Nusair interpolation
   ROPT   =    0.00000   0.00000
 Ionic relaxation
   EDIFFG = 0.1E-02   stopping-criterion for IOM
   NSW    =      0    number of steps for IOM
   NBLOCK =      1;   KBLOCK =      1    inner block; outer block 
   IBRION =     -1    ionic relax: 0-MD 1-quasi-New 2-CG
   NFREE  =      1    steps in history (QN), initial steepest desc. (CG)
   ISIF   =      2    stress and relaxation
   IWAVPR =     10    prediction:  0-non 1-charg 2-wave 3-comb
   ISYM   =      2    0-nonsym 1-usesym 2-fastsym
   LCORR  =      T    Harris-Foulkes like correction to forces

   POTIM  = 0.5000    time-step for ionic-motion
   TEIN   =    0.0    initial temperature
   TEBEG  =    0.0;   TEEND  =   0.0 temperature during run
   SMASS  =  -3.00    Nose mass-parameter (am)
   estimated Nose-frequenzy (Omega)   =  0.10E-29 period in steps = 0.13E+47 mass=  -0.747E-27a.u.
   SCALEE = 1.0000    scale energy and forces
   NPACO  =    256;   APACO  = 10.0  distance and # of slots for P.C.
   PSTRESS=    0.0 pullay stress

  Mass of Ions in am
   POMASS =  74.92 69.72
  Ionic Valenz
   ZVAL   =   5.00  3.00
  Atomic Wigner-Seitz radii
   RWIGS  =  -1.00 -1.00
  virtual crystal weights 
   VCA    =   1.00  1.00
   NELECT =      32.0000    total number of electrons
   NUPDOWN=      -1.0000    fix difference up-down

 DOS related values:
   EMIN   =  10.00;   EMAX   =-10.00  energy-range for DOS
   EFERMI =   0.00;   METHOD = LEGACY      
   ISMEAR =    -5;   SIGMA  =   0.10  broadening in eV -4-tet -1-fermi 0-gaus

 Electronic relaxation 2 (details)
   IALGO  =     38    algorithm
   LDIAG  =      T    sub-space diagonalisation (order eigenvalues)
   LSUBROT=      F    optimize rotation matrix (better conditioning)
   TURBO    =      0    0=normal 1=particle mesh
   IRESTART =      0    0=no restart 2=restart with 2 vectors
   NREBOOT  =      0    no. of reboots
   NMIN     =      0    reboot dimension
   EREF     =   0.00    reference energy to select bands
   IMIX   =      4    mixing-type and parameters
     AMIX     =   0.40;   BMIX     =  1.00
     AMIX_MAG =   1.60;   BMIX_MAG =  1.00
     AMIN     =   0.10
     WC   =   100.;   INIMIX=   1;  MIXPRE=   1;  MAXMIX= -45

 Intra band minimization:
   WEIMIN = 0.0000     energy-eigenvalue tresh-hold
   EBREAK =  0.10E-05  absolut break condition
   DEPER  =   0.30     relativ break condition  

   TIME   =   0.40     timestep for ELM

  volume/ion in A,a.u.               =      23.34       157.51
  Fermi-wavevector in a.u.,A,eV,Ry     =   0.909337  1.718398 11.250574  0.826894
  Thomas-Fermi vector in A             =   2.033370
 
 Write flags
   LWAVE        =      T    write WAVECAR
   LDOWNSAMPLE  =      F    k-point downsampling of WAVECAR
   LCHARG       =      T    write CHGCAR
   LVTOT        =      F    write LOCPOT, total local potential
   LVHAR        =      F    write LOCPOT, Hartree potential only
   WRT_POTENTIAL= false  ! write potential to hdf5 file
   LELF         =      F    write electronic localiz. function (ELF)
   LORBIT       =      0    0 simple, 1 ext, 2 COOP (PROOUT), +10 PAW based schemes


 Dipole corrections
   LMONO      =      F    monopole corrections only (constant potential shift)
   LDIPOL     =      F    correct potential (dipole corrections)
   IDIPOL     =      0    1-x, 2-y, 3-z, 4-all directions 
   EPSILON    =  1.0000000 bulk dielectric constant
   LVACPOTAV  =      F  vacuum potentials using an averaging scheme for the charge density
   VACPOTFLAT =  0.1000000 required flatness to determine vacuum potential
 Exchange correlation treatment:
   GGA     = PE    functional components
   XC_C    = 1    coefficients multiplying the functional components
   LIBXC   =     F    Libxc                    
   VOSKOWN =     0    Vosko Wilk Nusair interpolation
   LHFCALC =     F    Hartree Fock is set to
   LHFONE  =     F    Hartree Fock one center treatment
   AEXX    =    0.0000 exact exchange contribution

 Parameters of functionals:
   PE:
     No parameter
 
 Van der Waals corrections
   IVDW    =     0    specifies the selected vdW correction

 Linear response parameters
   LEPSILON=     F    determine dielectric tensor
   LRPA    =     F    only Hartree local field effects (RPA)
   LNABLA  =     F    use nabla operator in PAW spheres
   LVEL    =     F    velocity operator in full k-point grid
   CSHIFT  =0.1000    complex shift for real part using Kramers Kronig
   OMEGAMAX=  -1.0    maximum frequency
   DEG_THRESHOLD= 0.2000000E-02 threshold for treating states as degnerate
   RTIME   =   -0.100 relaxation time in fs
  (WPLASMAI=    0.000 imaginary part of plasma frequency in eV, 0.658/RTIME)
   DFIELD  = 0.0000000 0.0000000 0.0000000 field for delta impulse in time
 
  Optional k-point grid parameters
   LKPOINTS_OPT  =     F    use optional k-point grid
   KPOINTS_OPT_MODE=     1    mode for optional k-point grid
 
 Orbital magnetization related:
   ORBITALMAG=     F  switch on orbital magnetization
   LCHIMAG   =     F  perturbation theory with respect to B field
   DQ        =  0.001000  dq finite difference perturbation B field
   LLRAUG    =     F  two centre corrections for induced B field
   LBONE     =     F  B-component reconstruction in AE one-centre
   LVGVCALC  =     T  calculate vGv susceptibility
   LVGVAPPL  =     F  apply vGv susceptibility instead of pGv for G=0

 Random number generation:
   RANDOM_GENERATOR = DEFAULT
   PCG_SEED         = not used


--------------------------------------------------------------------------------------------------------


 Static calculation
 charge density and potential will be updated during run
 non-spin polarized calculation
 Variant of blocked Davidson
 Davidson routine will perform the subspace rotation
 perform sub-space diagonalisation
    after iterative eigenvector-optimisation
 modified Broyden-mixing scheme, WC =      100.0
 initial mixing is a Kerker type mixing with AMIX =  0.4000 and BMIX =      1.0000
 Hartree-type preconditioning will be used
 using additional bands            8
 reciprocal scheme for non local part
 use partial core corrections
 calculate Harris-corrections to forces 
   (improved forces if not selfconsistent)
 use gradient corrections 
 use of overlap-Matrix (Vanderbilt PP)
 Fermi weights with tetrahedron method with Bloechl corrections


--------------------------------------------------------------------------------------------------------


  energy-cutoff  :      500.00
  volume of cell :      186.72
      direct lattice vectors                 reciprocal lattice vectors
     5.715662805  0.000000000  0.000000000     0.174957837  0.000000000  0.000000000
     0.000000000  5.715662805  0.000000000     0.000000000  0.174957837  0.000000000
     0.000000000  0.000000000  5.715662805     0.000000000  0.000000000  0.174957837

  length of vectors
     5.715662805  5.715662805  5.715662805     0.174957837  0.174957837  0.174957837


 
 old parameters found on file WAVECAR:
  energy-cutoff  :      500.00
  volume of cell :      151.47
      direct lattice vectors                 reciprocal lattice vectors
     5.330542292  0.000000000  0.000000000     0.187598174  0.000000000  0.000000000
     0.000000000  5.330542292  0.000000000     0.000000000  0.187598174  0.000000000
     0.000000000  0.000000000  5.330542292     0.000000000  0.000000000  0.187598174

  length of vectors

 
 k-points in units of 2pi/SCALE and weight: Automatic mesh                          
   0.00000000  0.00000000  0.00000000       0.008
   0.15746205  0.00000000  0.00000000       0.048
   0.31492411  0.00000000  0.00000000       0.048
   0.15746205  0.15746205  0.00000000       0.096
   0.31492411  0.15746205  0.00000000       0.192
   0.31492411  0.31492411  0.00000000       0.096
   0.15746205  0.15746205  0.15746205       0.064
   0.31492411  0.15746205  0.15746205       0.192
   0.31492411  0.31492411  0.15746205       0.192
   0.31492411  0.31492411  0.31492411       0.064
 
 k-points in reciprocal lattice and weights: Automatic mesh                          
   0.00000000  0.00000000  0.00000000       0.008
   0.20000000  0.00000000  0.00000000       0.048
   0.40000000  0.00000000  0.00000000       0.048
   0.20000000  0.20000000  0.00000000       0.096
   0.40000000  0.20000000  0.00000000       0.192
   0.40000000  0.40000000  0.00000000       0.096
   0.20000000  0.20000000  0.20000000       0.064
   0.40000000  0.20000000  0.20000000       0.192
   0.40000000  0.40000000  0.20000000       0.192
   0.40000000  0.40000000  0.40000000       0.064
 
 position of ions in fractional coordinates (direct lattice) 
   0.00000000  0.00000000  0.00000000
   0.50000000  0.50000000  0.00000000
   0.50000000  0.00000000  0.50000000
   0.00000000  0.50000000  0.50000000
   0.25000000  0.25000000  0.25000000
   0.75000000  0.25000000  0.75000000
   0.75000000  0.75000000  0.25000000
   0.25000000  0.75000000  0.75000000
 
 position of ions in cartesian coordinates  (Angst):
   0.00000000  0.00000000  0.00000000
   2.85783140  2.85783140  0.00000000
   2.85783140  0.00000000  2.85783140
   0.00000000  2.85783140  2.85783140
   1.42891570  1.42891570  1.42891570
   4.28674710  1.42891570  4.28674710
   4.28674710  4.28674710  1.42891570
   1.42891570  4.28674710  4.28674710
 


--------------------------------------------------------------------------------------------------------


 k-point     1 :   0.0000 0.0000 0.0000  plane waves:    4729
 k-point     2 :   0.2000 0.0000 0.0000  plane waves:    4749
 k-point     3 :   0.4000 0.0000 0.0000  plane waves:    4765
 k-point     4 :   0.2000 0.2000 0.0000  plane waves:    4743
 k-point     5 :   0.4000 0.2000 0.0000  plane waves:    4752
 k-point     6 :   0.4000 0.4000 0.0000  plane waves:    4730
 k-point     7 :   0.2000 0.2000 0.2000  plane waves:    4752
 k-point     8 :   0.4000 0.2000 0.2000  plane waves:    4737
 k-point     9 :   0.4000 0.4000 0.2000  plane waves:    4738
 k-point    10 :   0.4000 0.4000 0.4000  plane waves:    4737

 maximum and minimum number of plane-waves per node :      4765     4729

 maximum number of plane-waves:      4765
 maximum index in each direction: 
   IXMAX=   10   IYMAX=   10   IZMAX=   10
   IXMIN=  -10   IYMIN=  -10   IZMIN=  -10


 serial   3D FFT for wavefunctions
 parallel 3D FFT for charge:
    minimum data exchange during FFTs selected (reduces bandwidth)


 total amount of memory used by VASP MPI-rank0    47402. kBytes
=======================================================================

   base      :      30000. kBytes
   nonl-proj :      10527. kBytes
   fftplans  :       1270. kBytes
   grid      :       3203. kBytes
   one-center:         64. kBytes
   wavefun   :       2338. kBytes
 
     INWAV:  cpu time      0.0295: real time      0.0360
 Broyden mixing: mesh for mixing (old mesh)
   NGX = 21   NGY = 21   NGZ = 21
  (NGX  = 64   NGY  = 64   NGZ  = 64)
  gives a total of   9261 points

 charge density for first step will be calculated from the start-wavefunctions


--------------------------------------------------------------------------------------------------------


 Maximum index for augmentation-charges         1515 (set IRDMAX)


--------------------------------------------------------------------------------------------------------


 initial charge from wavefunction
 First call to EWALD:  gamma=   0.310
 Maximum number of real-space cells 3x 3x 3
 Maximum number of reciprocal cells 3x 3x 3

    FEWALD:  cpu time      0.0009: real time      0.0009


--------------------------------------- Ionic step        1  -------------------------------------------




--------------------------------------- Iteration      1(   1)  ---------------------------------------


    POTLOK:  cpu time      0.0168: real time      0.0194
    SETDIJ:  cpu time      0.0021: real time      0.0022
     EDDAV:  cpu time      0.3274: real time      0.3405
 BZINTS: Fermi energy:    1.771758;   32.000000 electrons
         Band energy:-0.105150E+03;  BLOECHL correction:    0.000000
       DOS:  cpu time      0.0003: real time      0.0004
    CHARGE:  cpu time      0.0136: real time      0.0138
    MIXING:  cpu time      0.0006: real time      0.0006
    --------------------------------------------
      LOOP:  cpu time      0.3609: real time      0.3768

 eigenvalue-minimisations  :   544
 total energy-change (2. order) :-0.3437553E+02  (-0.3598403E+01)
 number of electron      32.0000026 magnetization 
 augmentation part       -5.2790980 magnetization 

 Broyden mixing:
  rms(total) = 0.12347E+01    rms(broyden)= 0.12347E+01
  rms(prec ) = 0.15115E+01
  weight for this iteration     100.00

 Free energy of the ion-electron system (eV)
  ---------------------------------------------------
  alpha Z        PSCENC =        73.28390152
  Ewald energy   TEWEN  =      -906.68281711
  -Hartree energ DENC   =       -70.45026065
  -exchange      EXHF   =         0.00000000
  -V(xc)+E(xc)   XCENC  =      -121.01396942
  PAW double counting   =      3146.99264006    -2967.57511107
  entropy T*S    EENTRO =         0.00000000
  eigenvalues    EBANDS =      -105.14954169
  atomic energy  EATOM  =       916.21963040
  Solvation  Ediel_sol  =         0.00000000
  ---------------------------------------------------
  free energy    TOTEN  =       -34.37552796 eV

  energy without entropy =      -34.37552796  energy(sigma->0) =      -34.37552796


--------------------------------------------------------------------------------------------------------




--------------------------------------- Iteration      1(   2)  ---------------------------------------


    POTLOK:  cpu time      0.0175: real time      0.0186
    SETDIJ:  cpu time      0.0019: real time      0.0019
     EDDAV:  cpu time      0.2993: real time      0.3110
 BZINTS: Fermi energy:    2.148931;   32.000000 electrons
         Band energy:-0.955882E+02;  BLOECHL correction:    0.000000
       DOS:  cpu time      0.0004: real time      0.0004
    CHARGE:  cpu time      0.0132: real time      0.0134
    MIXING:  cpu time      0.0007: real time      0.0007
    --------------------------------------------
      LOOP:  cpu time      0.3331: real time      0.3460

 eigenvalue-minimisations  :   496
 total energy-change (2. order) : 0.9514803E+00  (-0.1882116E+00)
 number of electron      32.0000026 magnetization 
 augmentation part       -5.2635921 magnetization 

 Broyden mixing:
  rms(total) = 0.74149E+00    rms(broyden)= 0.74149E+00
  rms(prec ) = 0.85907E+00
  weight for this iteration     100.00

 eigenvalues of (default mixing * dielectric matrix)
  average eigenvalue GAMMA=   2.4041
  2.4041

 Free energy of the ion-electron system (eV)
  ---------------------------------------------------
  alpha Z        PSCENC =        73.28390152
  Ewald energy   TEWEN  =      -906.68281711
  -Hartree energ DENC   =       -78.69413816
  -exchange      EXHF   =         0.00000000
  -V(xc)+E(xc)   XCENC  =      -121.07369900
  PAW double counting   =      2570.25209049    -2391.14082235
  entropy T*S    EENTRO =         0.00000000
  eigenvalues    EBANDS =       -95.58819345
  atomic energy  EATOM  =       916.21963040
  Solvation  Ediel_sol  =         0.00000000
  ---------------------------------------------------
  free energy    TOTEN  =       -33.42404766 eV

  energy without entropy =      -33.42404766  energy(sigma->0) =      -33.42404766


--------------------------------------------------------------------------------------------------------




--------------------------------------- Iteration      1(   3)  ---------------------------------------


    POTLOK:  cpu time      0.0175: real time      0.0180
    SETDIJ:  cpu time      0.0019: real time      0.0019
     EDDAV:  cpu time      0.3128: real time      0.3249
 BZINTS: Fermi energy:    2.547117;   32.000000 electrons
         Band energy:-0.854720E+02;  BLOECHL correction:    0.000000
       DOS:  cpu time      0.0004: real time      0.0004
    CHARGE:  cpu time      0.0133: real time      0.0136
    MIXING:  cpu time      0.0007: real time      0.0007
    --------------------------------------------
      LOOP:  cpu time      0.3466: real time      0.3595

 eigenvalue-minimisations  :   528
 total energy-change (2. order) : 0.2717179E+00  (-0.1581290E+00)
 number of electron      32.0000024 magnetization 
 augmentation part       -5.1684518 magnetization 

 Broyden mixing:
  rms(total) = 0.80076E-01    rms(broyden)= 0.80076E-01
  rms(prec ) = 0.17288E+00
  weight for this iteration     100.00

 eigenvalues of (default mixing * dielectric matrix)
  average eigenvalue GAMMA=   1.6498
  1.1788  2.1208

 Free energy of the ion-electron system (eV)
  ---------------------------------------------------
  alpha Z        PSCENC =        73.28390152
  Ewald energy   TEWEN  =      -906.68281711
  -Hartree energ DENC   =       -88.06187874
  -exchange      EXHF   =         0.00000000
  -V(xc)+E(xc)   XCENC  =      -121.29748897
  PAW double counting   =      1927.32248272    -1748.46416732
  entropy T*S    EENTRO =         0.00000000
  eigenvalues    EBANDS =       -85.47199223
  atomic energy  EATOM  =       916.21963040
  Solvation  Ediel_sol  =         0.00000000
  ---------------------------------------------------
  free energy    TOTEN  =       -33.15232972 eV

  energy without entropy =      -33.15232972  energy(sigma->0) =      -33.15232972


--------------------------------------------------------------------------------------------------------




--------------------------------------- Iteration      1(   4)  ---------------------------------------


    POTLOK:  cpu time      0.0176: real time      0.0183
    SETDIJ:  cpu time      0.0019: real time      0.0019
     EDDAV:  cpu time      0.3029: real time      0.3148
 BZINTS: Fermi energy:    2.453839;   32.000000 electrons
         Band energy:-0.873012E+02;  BLOECHL correction:    0.000000
       DOS:  cpu time      0.0004: real time      0.0004
    CHARGE:  cpu time      0.0132: real time      0.0134
    MIXING:  cpu time      0.0007: real time      0.0007
    --------------------------------------------
      LOOP:  cpu time      0.3367: real time      0.3496

 eigenvalue-minimisations  :   504
 total energy-change (2. order) : 0.3147107E-01  (-0.1575086E-01)
 number of electron      32.0000024 magnetization 
 augmentation part       -5.1694297 magnetization 

 Broyden mixing:
  rms(total) = 0.58981E-01    rms(broyden)= 0.58981E-01
  rms(prec ) = 0.69626E-01
  weight for this iteration     100.00

 eigenvalues of (default mixing * dielectric matrix)
  average eigenvalue GAMMA=   1.6479
  2.3780  1.2828  1.2828

 Free energy of the ion-electron system (eV)
  ---------------------------------------------------
  alpha Z        PSCENC =        73.28390152
  Ewald energy   TEWEN  =      -906.68281711
  -Hartree energ DENC   =       -86.16374157
  -exchange      EXHF   =         0.00000000
  -V(xc)+E(xc)   XCENC  =      -121.43506422
  PAW double counting   =      1949.78996318    -1770.83150989
  entropy T*S    EENTRO =         0.00000000
  eigenvalues    EBANDS =       -87.30122096
  atomic energy  EATOM  =       916.21963040
  Solvation  Ediel_sol  =         0.00000000
  ---------------------------------------------------
  free energy    TOTEN  =       -33.12085865 eV

  energy without entropy =      -33.12085865  energy(sigma->0) =      -33.12085865


--------------------------------------------------------------------------------------------------------




--------------------------------------- Iteration      1(   5)  ---------------------------------------


    POTLOK:  cpu time      0.0177: real time      0.0182
    SETDIJ:  cpu time      0.0019: real time      0.0020
     EDDAV:  cpu time      0.3104: real time      0.3223
 BZINTS: Fermi energy:    2.536175;   32.000000 electrons
         Band energy:-0.865348E+02;  BLOECHL correction:    0.000000
       DOS:  cpu time      0.0004: real time      0.0004
    CHARGE:  cpu time      0.0133: real time      0.0136
    MIXING:  cpu time      0.0008: real time      0.0008
    --------------------------------------------
      LOOP:  cpu time      0.3445: real time      0.3572

 eigenvalue-minimisations  :   520
 total energy-change (2. order) : 0.1293598E-02  (-0.1048809E-02)
 number of electron      32.0000024 magnetization 
 augmentation part       -5.1625614 magnetization 

 Broyden mixing:
  rms(total) = 0.11628E-01    rms(broyden)= 0.11628E-01
  rms(prec ) = 0.13145E-01
  weight for this iteration     100.00

 eigenvalues of (default mixing * dielectric matrix)
  average eigenvalue GAMMA=   1.5012
  2.2163  1.3667  1.3667  1.0551

 Free energy of the ion-electron system (eV)
  ---------------------------------------------------
  alpha Z        PSCENC =        73.28390152
  Ewald energy   TEWEN  =      -906.68281711
  -Hartree energ DENC   =       -86.88823674
  -exchange      EXHF   =         0.00000000
  -V(xc)+E(xc)   XCENC  =      -121.47612114
  PAW double counting   =      1894.99566331    -1716.03679019
  entropy T*S    EENTRO =         0.00000000
  eigenvalues    EBANDS =       -86.53479510
  atomic energy  EATOM  =       916.21963040
  Solvation  Ediel_sol  =         0.00000000
  ---------------------------------------------------
  free energy    TOTEN  =       -33.11956505 eV

  energy without entropy =      -33.11956505  energy(sigma->0) =      -33.11956505


--------------------------------------------------------------------------------------------------------




--------------------------------------- Iteration      1(   6)  ---------------------------------------


    POTLOK:  cpu time      0.0175: real time      0.0180
    SETDIJ:  cpu time      0.0020: real time      0.0021
     EDDAV:  cpu time      0.2818: real time      0.2932
 BZINTS: Fermi energy:    2.537149;   32.000000 electrons
         Band energy:-0.865225E+02;  BLOECHL correction:    0.000000
       DOS:  cpu time      0.0004: real time      0.0004
    CHARGE:  cpu time      0.0132: real time      0.0136
    MIXING:  cpu time      0.0008: real time      0.0008
    --------------------------------------------
      LOOP:  cpu time      0.3157: real time      0.3281

 eigenvalue-minimisations  :   448
 total energy-change (2. order) :-0.1651863E-03  (-0.1972729E-04)
 number of electron      32.0000024 magnetization 
 augmentation part       -5.1625341 magnetization 

 Broyden mixing:
  rms(total) = 0.43753E-02    rms(broyden)= 0.43753E-02
  rms(prec ) = 0.66825E-02
  weight for this iteration     100.00

 eigenvalues of (default mixing * dielectric matrix)
  average eigenvalue GAMMA=   1.7440
  2.7571  2.4208  1.2579  1.2579  1.0263

 Free energy of the ion-electron system (eV)
  ---------------------------------------------------
  alpha Z        PSCENC =        73.28390152
  Ewald energy   TEWEN  =      -906.68281711
  -Hartree energ DENC   =       -86.91344390
  -exchange      EXHF   =         0.00000000
  -V(xc)+E(xc)   XCENC  =      -121.46695563
  PAW double counting   =      1903.53066633    -1724.56824912
  entropy T*S    EENTRO =         0.00000000
  eigenvalues    EBANDS =       -86.52246273
  atomic energy  EATOM  =       916.21963040
  Solvation  Ediel_sol  =         0.00000000
  ---------------------------------------------------
  free energy    TOTEN  =       -33.11973024 eV

  energy without entropy =      -33.11973024  energy(sigma->0) =      -33.11973024


--------------------------------------------------------------------------------------------------------




--------------------------------------- Iteration      1(   7)  ---------------------------------------


    POTLOK:  cpu time      0.0165: real time      0.0171
    SETDIJ:  cpu time      0.0019: real time      0.0019
     EDDAV:  cpu time      0.2502: real time      0.2606
 BZINTS: Fermi energy:    2.541203;   32.000000 electrons
         Band energy:-0.864299E+02;  BLOECHL correction:    0.000000
       DOS:  cpu time      0.0004: real time      0.0004
    CHARGE:  cpu time      0.0132: real time      0.0134
    MIXING:  cpu time      0.0008: real time      0.0008
    --------------------------------------------
      LOOP:  cpu time      0.2830: real time      0.2941

 eigenvalue-minimisations  :   384
 total energy-change (2. order) :-0.1211788E-03  (-0.1807004E-04)
 number of electron      32.0000024 magnetization 
 augmentation part       -5.1614550 magnetization 

 Broyden mixing:
  rms(total) = 0.11785E-02    rms(broyden)= 0.11785E-02
  rms(prec ) = 0.19583E-02
  weight for this iteration     100.00

 eigenvalues of (default mixing * dielectric matrix)
  average eigenvalue GAMMA=   1.6224
  2.8370  2.3421  1.3232  1.3232  1.0180  0.8908

 Free energy of the ion-electron system (eV)
  ---------------------------------------------------
  alpha Z        PSCENC =        73.28390152
  Ewald energy   TEWEN  =      -906.68281711
  -Hartree energ DENC   =       -87.01750627
  -exchange      EXHF   =         0.00000000
  -V(xc)+E(xc)   XCENC  =      -121.46303011
  PAW double counting   =      1908.17275051    -1729.20285301
  entropy T*S    EENTRO =         0.00000000
  eigenvalues    EBANDS =       -86.42992735
  atomic energy  EATOM  =       916.21963040
  Solvation  Ediel_sol  =         0.00000000
  ---------------------------------------------------
  free energy    TOTEN  =       -33.11985142 eV

  energy without entropy =      -33.11985142  energy(sigma->0) =      -33.11985142


--------------------------------------------------------------------------------------------------------




--------------------------------------- Iteration      1(   8)  ---------------------------------------


    POTLOK:  cpu time      0.0165: real time      0.0171
    SETDIJ:  cpu time      0.0019: real time      0.0019
     EDDAV:  cpu time      0.1998: real time      0.2085
 BZINTS: Fermi energy:    2.540887;   32.000000 electrons
         Band energy:-0.864525E+02;  BLOECHL correction:    0.000000
       DOS:  cpu time      0.0004: real time      0.0004
    --------------------------------------------
      LOOP:  cpu time      0.2185: real time      0.2279

 eigenvalue-minimisations  :   248
 total energy-change (2. order) : 0.2614835E-05  (-0.3236467E-05)
 number of electron      32.0000024 magnetization 
 augmentation part       -5.1614550 magnetization 

 Free energy of the ion-electron system (eV)
  ---------------------------------------------------
  alpha Z        PSCENC =        73.28390152
  Ewald energy   TEWEN  =      -906.68281711
  -Hartree energ DENC   =       -86.99373323
  -exchange      EXHF   =         0.00000000
  -V(xc)+E(xc)   XCENC  =      -121.46451904
  PAW double counting   =      1907.69277049    -1728.72262805
  entropy T*S    EENTRO =         0.00000000
  eigenvalues    EBANDS =       -86.45245379
  atomic energy  EATOM  =       916.21963040
  Solvation  Ediel_sol  =         0.00000000
  ---------------------------------------------------
  free energy    TOTEN  =       -33.11984880 eV

  energy without entropy =      -33.11984880  energy(sigma->0) =      -33.11984880


--------------------------------------------------------------------------------------------------------




 average (electrostatic) potential at core
  the test charge radii are     1.0621  1.2767
  (the norm of the test charge is              1.0000)
       1 -51.7165       2 -51.7165       3 -51.7165       4 -51.7165       5 -14.8818
       6 -14.8818       7 -14.8818       8 -14.8818
 
 
 
 E-fermi :   2.5409     XC(G=0):  -9.0518     alpha+bet : -8.2842

 val. band max:        2.4810791496   @ k =   0.0000   0.0000   0.0000
 cond. band min:       2.8136193374   @ k =   0.0000   0.0000   0.0000
 fundamental gap:      0.3325401879
 Fermi energy:         2.5408872366

 k-point     1 :       0.0000    0.0000    0.0000
  band No.  band energies     occupation 
      1      -9.9926      2.00000
      2      -7.7597      2.00000
      3      -7.7597      2.00000
      4      -7.7597      2.00000
      5      -4.1541      2.00000
      6      -4.1541      2.00000
      7      -4.1541      2.00000
      8      -0.0693      2.00000
      9      -0.0693      2.00000
     10      -0.0693      2.00000
     11      -0.0693      2.00000
     12      -0.0693      2.00000
     13      -0.0693      2.00000
     14       2.4811      2.00000
     15       2.4811      2.00000
     16       2.4811      2.00000
     17       2.8136      0.00000
     18       4.0138      0.00000
     19       4.0138      0.00000
     20       4.0138      0.00000
     21       4.1736      0.00000
     22       4.1736      0.00000
     23       4.1736      0.00000
     24       6.2360      0.00000

 k-point     2 :       0.2000    0.0000    0.0000
  band No.  band energies     occupation 
      1      -9.8542      2.00000
      2      -8.1304      2.00000
      3      -7.7465      2.00000
      4      -7.7465      2.00000
      5      -4.0951      2.00000
      6      -4.0951      2.00000
      7      -3.5932      2.00000
      8      -0.3921      2.00000
      9      -0.3921      2.00000
     10      -0.3174      2.00000
     11      -0.3174      2.00000
     12       0.0878      2.00000
     13       0.0878      2.00000
     14       0.8863      2.00000
     15       2.0509      2.00000
     16       2.0509      2.00000
     17       3.9661      0.00000
     18       4.3491      0.00000
     19       4.6198      0.00000
     20       4.7208      0.00000
     21       4.7208      0.00000
     22       4.8880      0.00000
     23       4.8880      0.00000
     24       5.7748      0.00000

 k-point     3 :       0.4000    0.0000    0.0000
  band No.  band energies     occupation 
      1      -9.4509      2.00000
      2      -8.8296      2.00000
      3      -7.7249      2.00000
      4      -7.7249      2.00000
      5      -3.9888      2.00000
      6      -3.9888      2.00000
      7      -2.3314      2.00000
      8      -0.8358      2.00000
      9      -0.8358      2.00000
     10      -0.7889      2.00000
     11      -0.6439      2.00000
     12      -0.6439      2.00000
     13       0.5457      2.00000
     14       0.5457      2.00000
     15       1.2515      2.00000
     16       1.2515      2.00000
     17       4.2421      0.00000
     18       4.8165      0.00000
     19       5.3955      0.00000
     20       5.6797      0.00000
     21       6.3993      0.00000
     22       6.3993      0.00000
     23       6.4592      0.00000
     24       6.4592      0.00000

 k-point     4 :       0.2000    0.2000    0.0000
  band No.  band energies     occupation 
      1      -9.7197      2.00000
      2      -8.0812      2.00000
      3      -8.0812      2.00000
      4      -7.7671      2.00000
      5      -4.0350      2.00000
      6      -3.6264      2.00000
      7      -3.6264      2.00000
      8      -1.0020      2.00000
      9      -0.3155      2.00000
     10      -0.3155      2.00000
     11      -0.0169      2.00000
     12      -0.0130      2.00000
     13      -0.0130      2.00000
     14       0.1906      2.00000
     15       1.5904      2.00000
     16       2.3185      2.00000
     17       4.3433      0.00000
     18       4.4307      0.00000
     19       4.7315      0.00000
     20       4.7315      0.00000
     21       5.2316      0.00000
     22       5.2316      0.00000
     23       6.2175      0.00000
     24       6.3812      0.00000

 k-point     5 :       0.4000    0.2000    0.0000
  band No.  band energies     occupation 
      1      -9.3293      2.00000
      2      -8.7346      2.00000
      3      -7.9619      2.00000
      4      -7.8396      2.00000
      5      -3.8903      2.00000
      6      -3.7332      2.00000
      7      -2.5775      2.00000
      8      -1.3249      2.00000
      9      -1.2400      2.00000
     10      -0.9473      2.00000
     11      -0.0483      2.00000
     12       0.0833      2.00000
     13       0.1477      2.00000
     14       0.6864      2.00000
     15       0.7704      2.00000
     16       1.6250      2.00000
     17       5.0175      0.00000
     18       5.2283      0.00000
     19       5.2672      0.00000
     20       5.7874      0.00000
     21       5.8289      0.00000
     22       6.3120      0.00000
     23       6.6387      0.00000
     24       7.6182      0.00000

 k-point     6 :       0.4000    0.4000    0.0000
  band No.  band energies     occupation 
      1      -8.9822      2.00000
      2      -8.4752      2.00000
      3      -8.4752      2.00000
      4      -8.1328      2.00000
      5      -3.5853      2.00000
      6      -3.0982      2.00000
      7      -3.0982      2.00000
      8      -2.2485      2.00000
      9      -1.1909      2.00000
     10      -0.6789      2.00000
     11      -0.6789      2.00000
     12      -0.0480      2.00000
     13       0.8881      2.00000
     14       0.9496      2.00000
     15       0.9496      2.00000
     16       1.7401      2.00000
     17       4.9510      0.00000
     18       5.1299      0.00000
     19       5.6909      0.00000
     20       5.6909      0.00000
     21       6.9013      0.00000
     22       6.9013      0.00000
     23       7.3699      0.00000
     24       7.4216      0.00000

 k-point     7 :       0.2000    0.2000    0.2000
  band No.  band energies     occupation 
      1      -9.5898      2.00000
      2      -8.0583      2.00000
      3      -8.0583      2.00000
      4      -8.0583      2.00000
      5      -3.6893      2.00000
      6      -3.6893      2.00000
      7      -3.6893      2.00000
      8      -0.7792      2.00000
      9      -0.6960      2.00000
     10      -0.6960      2.00000
     11      -0.6960      2.00000
     12       0.3341      2.00000
     13       0.3341      2.00000
     14       0.3341      2.00000
     15       2.0063      2.00000
     16       2.0063      2.00000
     17       3.9859      0.00000
     18       4.5052      0.00000
     19       4.5052      0.00000
     20       4.5052      0.00000
     21       6.3667      0.00000
     22       6.3667      0.00000
     23       6.3667      0.00000
     24       6.9063      0.00000

 k-point     8 :       0.4000    0.2000    0.2000
  band No.  band energies     occupation 
      1      -9.2153      2.00000
      2      -8.6542      2.00000
      3      -8.0201      2.00000
      4      -8.0201      2.00000
      5      -3.8003      2.00000
      6      -3.8003      2.00000
      7      -2.8970      2.00000
      8      -1.8970      2.00000
      9      -0.8870      2.00000
     10      -0.8870      2.00000
     11       0.1518      2.00000
     12       0.3674      2.00000
     13       0.3674      2.00000
     14       0.7464      2.00000
     15       1.3000      2.00000
     16       1.3605      2.00000
     17       4.6024      0.00000
     18       4.8611      0.00000
     19       5.3460      0.00000
     20       5.3460      0.00000
     21       6.4558      0.00000
     22       6.5280      0.00000
     23       7.2112      0.00000
     24       7.2112      0.00000

 k-point     9 :       0.4000    0.4000    0.2000
  band No.  band energies     occupation 
      1      -8.8951      2.00000
      2      -8.4445      2.00000
      3      -8.4445      2.00000
      4      -8.1967      2.00000
      5      -3.7770      2.00000
      6      -3.4424      2.00000
      7      -3.4424      2.00000
      8      -2.7719      2.00000
      9      -0.5893      2.00000
     10      -0.1348      2.00000
     11      -0.1348      2.00000
     12       0.6529      2.00000
     13       0.9743      2.00000
     14       1.0140      2.00000
     15       1.0140      2.00000
     16       1.6711      2.00000
     17       4.3876      0.00000
     18       4.8970      0.00000
     19       5.0938      0.00000
     20       5.0938      0.00000
     21       6.7091      0.00000
     22       6.7091      0.00000
     23       7.2154      0.00000
     24       7.2380      0.00000

 k-point    10 :       0.4000    0.4000    0.4000
  band No.  band energies     occupation 
      1      -8.6662      2.00000
      2      -8.3925      2.00000
      3      -8.3925      2.00000
      4      -8.3925      2.00000
      5      -3.8567      2.00000
      6      -3.8567      2.00000
      7      -3.8567      2.00000
      8      -3.4896      2.00000
      9       0.6379      2.00000
     10       0.6379      2.00000
     11       0.6379      2.00000
     12       1.2000      2.00000
     13       1.2000      2.00000
     14       1.2000      2.00000
     15       1.4708      2.00000
     16       1.4708      2.00000
     17       3.5083      0.00000
     18       4.2348      0.00000
     19       4.2348      0.00000
     20       4.2348      0.00000
     21       6.8743      0.00000
     22       6.8743      0.00000
     23       6.8743      0.00000
     24       7.1631      0.00000


--------------------------------------------------------------------------------------------------------


 soft charge-density along one line, spin component           1
         0         1         2         3         4         5         6         7         8         9
 total charge-density along one line
 
 pseudopotential strength for first ion, spin component:           1
 23.734  28.371  -0.000  -0.000   0.000   0.000   0.000  -0.000
 28.371  33.920  -0.000  -0.000   0.000   0.000   0.000  -0.000
 -0.000  -0.000   5.569  -0.000   0.000 -11.037   0.000  -0.000
 -0.000  -0.000  -0.000   5.569   0.000   0.000 -11.037  -0.000
  0.000   0.000   0.000   0.000   5.569  -0.000  -0.000 -11.037
  0.000   0.000 -11.037   0.000  -0.000  22.452  -0.000   0.000
  0.000   0.000   0.000 -11.037  -0.000  -0.000  22.452   0.000
 -0.000  -0.000  -0.000  -0.000 -11.037   0.000   0.000  22.452
  0.000   0.000   0.000   0.001  -0.000  -0.000  -0.001   0.000
 -0.000  -0.000  -0.000  -0.000   0.001   0.000   0.000  -0.001
  0.000   0.000   0.000  -0.000  -0.000  -0.000   0.000   0.000
  0.000   0.000   0.001   0.000  -0.000  -0.001  -0.000   0.000
 -0.000  -0.000   0.000  -0.000   0.000  -0.000   0.000  -0.000
 total augmentation occupancy for first ion, spin component:           1
  5.091  -2.129   0.000   0.000  -0.000   0.000   0.000   0.000   0.000  -0.000   0.000   0.000   0.000
 -2.129   1.248   0.000   0.000   0.000   0.000  -0.000   0.000  -0.000  -0.000  -0.000   0.000  -0.000
 -0.000   0.000   1.452  -0.000   0.000   0.056   0.000  -0.000   0.000  -0.000   0.000   0.097  -0.000
 -0.000  -0.000  -0.000   1.452   0.000  -0.000   0.056   0.000   0.097  -0.000   0.000  -0.000  -0.000
 -0.000  -0.000  -0.000  -0.000   1.452   0.000   0.000   0.056   0.000   0.097   0.000  -0.000   0.000
 -0.000  -0.000   0.056  -0.000   0.000   0.003  -0.000  -0.000  -0.000   0.000   0.000   0.004  -0.000
  0.000  -0.000  -0.000   0.056   0.000   0.000   0.003   0.000   0.004  -0.000   0.000   0.000   0.000
  0.000   0.000  -0.000  -0.000   0.056  -0.000  -0.000   0.003  -0.000   0.004   0.000  -0.000   0.000
  0.000   0.000   0.000   0.097  -0.000   0.000   0.004   0.000   0.013  -0.000  -0.000  -0.000   0.000
  0.000   0.000  -0.000  -0.000   0.097  -0.000  -0.000   0.004  -0.000   0.013  -0.000   0.000   0.000
 -0.000  -0.000   0.000  -0.000   0.000  -0.000  -0.000  -0.000   0.000  -0.000   0.004  -0.000  -0.000
  0.000   0.000   0.097  -0.000  -0.000   0.004   0.000  -0.000   0.000   0.000   0.000   0.013  -0.000
 -0.000  -0.000   0.000   0.000  -0.000   0.000   0.000   0.000  -0.000   0.000  -0.000  -0.000   0.004


------------------------ aborting loop because EDIFF is reached ----------------------------------------


    CHARGE:  cpu time      0.0132: real time      0.0134
    FORLOC:  cpu time      0.0012: real time      0.0012
    FORNL :  cpu time      0.0583: real time      0.0587
    STRESS:  cpu time      0.3526: real time      0.3543
    FORCOR:  cpu time      0.0170: real time      0.0174
    FORHAR:  cpu time      0.0042: real time      0.0042
    MIXING:  cpu time      0.0007: real time      0.0007
    OFIELD:  cpu time      0.0000: real time      0.0000

  FORCE on cell =-STRESS in cart. coord.  units (eV):
  Direction    XX          YY          ZZ          XY          YZ          ZX
  --------------------------------------------------------------------------------------
  Alpha Z    73.28390    73.28390    73.28390
  Ewald    -302.22808  -302.22808  -302.22808    -0.00000     0.00000     0.00000
  Hartree    29.00489    29.00489    29.00489    -0.00000    -0.00000    -0.00000
  E(xc)    -119.90021  -119.90021  -119.90021    -0.00000     0.00000    -0.00000
  Local    -120.20007  -120.20007  -120.20007    -0.00000     0.00000    -0.00000
  n-local   175.54341   177.76411   175.07215    -1.98330    -1.18219    -0.95946
  augment     7.49073     7.49073     7.49073    -0.00000    -0.00000     0.00000
  Kinetic   251.98117   262.97826   259.91358    -4.92815    -4.51796    -3.07565
  Fock        0.00000     0.00000     0.00000     0.00000     0.00000     0.00000
  -------------------------------------------------------------------------------------
  Total       1.86872     1.86872     1.86872    -0.00000    -0.00000    -0.00000
  in kB      16.03449    16.03449    16.03449    -0.00000    -0.00000    -0.00000
  external pressure =       16.03 kB  Pullay stress =        0.00 kB


 VOLUME and BASIS-vectors are now :
 -----------------------------------------------------------------------------
  energy-cutoff  :      500.00
  volume of cell :      186.72
      direct lattice vectors                 reciprocal lattice vectors
     5.715662805  0.000000000  0.000000000     0.174957837  0.000000000  0.000000000
     0.000000000  5.715662805  0.000000000     0.000000000  0.174957837  0.000000000
     0.000000000  0.000000000  5.715662805     0.000000000  0.000000000  0.174957837

  length of vectors
     5.715662805  5.715662805  5.715662805     0.174957837  0.174957837  0.174957837


 FORCES acting on ions
    electron-ion (+dipol)            ewald-force                    non-local-force                 convergence-correction
 -----------------------------------------------------------------------------------------------
   0.479E-13 0.654E-15 0.685E-14   -.142E-13 -.533E-14 0.000E+00   0.253E-16 -.104E-16 0.391E-16   0.197E-14 -.192E-14 -.872E-15
   0.603E-13 -.258E-12 -.325E-12   -.124E-13 -.533E-14 0.000E+00   0.165E-16 -.101E-16 0.182E-16   -.852E-15 0.240E-14 -.198E-14
   0.572E-13 0.370E-14 -.490E-12   -.107E-13 -.533E-14 0.000E+00   -.102E-17 -.106E-16 0.256E-16   -.919E-15 -.207E-14 -.492E-14
   0.435E-13 0.161E-13 0.280E-13   -.124E-13 -.178E-14 0.000E+00   0.301E-16 -.106E-16 0.441E-17   0.210E-14 0.241E-14 -.382E-14
   -.746E-14 0.293E-13 -.367E-14   0.122E-13 0.349E-14 -.578E-15   -.917E-19 0.803E-18 -.350E-17   -.141E-14 0.109E-14 0.130E-14
   -.746E-14 0.174E-12 0.160E-12   0.122E-13 0.350E-14 0.148E-15   -.432E-17 0.248E-17 -.624E-18   -.232E-14 0.156E-14 -.109E-14
   0.000E+00 0.100E-12 0.173E-12   0.129E-13 0.365E-14 -.187E-15   -.508E-17 -.128E-17 -.316E-17   -.235E-14 0.186E-14 0.128E-14
   -.112E-13 0.627E-13 -.643E-14   0.123E-13 0.366E-14 0.538E-15   0.138E-18 0.654E-18 -.247E-17   -.140E-14 0.137E-14 -.118E-14
 -----------------------------------------------------------------------------------------------
   0.183E-12 0.128E-12 -.457E-12   -.885E-16 -.346E-14 -.792E-16   0.616E-16 -.390E-16 0.776E-16   -.518E-14 0.671E-14 -.113E-13
 
 
 POSITION                                       TOTAL-FORCE (eV/Angst)
 -----------------------------------------------------------------------------------
      0.00000      0.00000      0.00000         0.000000     -0.000000      0.000000
      2.85783      2.85783      0.00000         0.000000     -0.000000     -0.000000
      2.85783      0.00000      2.85783         0.000000     -0.000000     -0.000000
      0.00000      2.85783      2.85783         0.000000     -0.000000      0.000000
      1.42892      1.42892      1.42892        -0.000000      0.000000     -0.000000
      4.28675      1.42892      4.28675        -0.000000      0.000000      0.000000
      4.28675      4.28675      1.42892        -0.000000     -0.000000     -0.000000
      1.42892      4.28675      4.28675        -0.000000      0.000000     -0.000000
 -----------------------------------------------------------------------------------
    total drift:                                0.000000      0.000000     -0.000000


--------------------------------------------------------------------------------------------------------



  FREE ENERGIE OF THE ION-ELECTRON SYSTEM (eV)
  ---------------------------------------------------
  free  energy   TOTEN  =       -33.11984880 eV

  energy  without entropy=      -33.11984880  energy(sigma->0) =      -33.11984880
 


--------------------------------------------------------------------------------------------------------


    POTLOK:  cpu time      0.0189: real time      0.0192


--------------------------------------------------------------------------------------------------------


 writing wavefunctions
     LOOP+:  cpu time      3.2685: real time      3.4171


--------------------------------------------------------------------------------------------------------



 plasma frequency squared (from intraband transitions) (eV^2)
  --------------------------------------------------------------------------------------
       0.000       0.000       0.000
       0.000       0.000       0.000
       0.000       0.000       0.000

 electrical conductivity sigma (Mega S m-1) (frequency dependency in vasprun.xml)
  --------------------------------------------------------------------------------------
       0.000       0.000       0.000
       0.000       0.000       0.000
       0.000       0.000       0.000

 plasma frequency squared (from interband transitions, int dw w eps(2)(w)) (eV^2)
  --------------------------------------------------------------------------------------
     211.252       0.000      -0.000       0.000       0.000       0.000
      -0.000       0.000     211.252       0.000      -0.000       0.000
       0.000       0.000      -0.000       0.000     211.252       0.000
  --------------------------------------------------------------------------------------
 sumrule: sum of plasma frequencies squared should yield (valence only):     236.305

 Anomalous Hall contribution (eV) 2/pi Imag((f_n-f_m)<u_m| d/dk_a u_n> <u_m| d/dk_b u_n>^*) 
  --------------------------------------------------------------------------------------
       0.000       0.000       0.000
       0.000       0.000       0.000
       0.000       0.000       0.000

  frequency dependent IMAGINARY DIELECTRIC FUNCTION (independent particle, no local field effects) density-density
     E(ev)      X         Y         Z        XY        YZ        ZX
  --------------------------------------------------------------------------------------------------------------
    0.000000    0.000000    0.000000    0.000000    0.000000    0.000000    0.000000
    0.021154    0.025248    0.025248    0.025248   -0.000000   -0.000000    0.000000
    0.042308    0.050605    0.050605    0.050605   -0.000000   -0.000000    0.000000
    0.063462    0.076180    0.076180    0.076180   -0.000000   -0.000000    0.000000
    0.084616    0.102088    0.102088    0.102088   -0.000000   -0.000000    0.000000
    0.105770    0.128453    0.128453    0.128453   -0.000000   -0.000000    0.000000
    0.126925    0.155409    0.155409    0.155409   -0.000000   -0.000000    0.000000
    0.148079    0.183105    0.183105    0.183105   -0.000000   -0.000000    0.000000
    0.169233    0.211712    0.211712    0.211712   -0.000000   -0.000000    0.000000
    0.190387    0.241425    0.241425    0.241425   -0.000000   -0.000000    0.000000
    0.211541    0.272478    0.272478    0.272478   -0.000000   -0.000000    0.000000
    0.232695    0.305147    0.305147    0.305147   -0.000000   -0.000000    0.000000
    0.253849    0.339770    0.339770    0.339770   -0.000000   -0.000000    0.000000
    0.275003    0.376760    0.376760    0.376760   -0.000000   -0.000000    0.000000
    0.296157    0.416619    0.416619    0.416619   -0.000000   -0.000000    0.000000
    0.317311    0.459941    0.459941    0.459941   -0.000000   -0.000000    0.000000
    0.338465    0.507406    0.507406    0.507406   -0.000000   -0.000000    0.000000
    0.359619    0.559729    0.559729    0.559729   -0.000000   -0.000000    0.000000
    0.380774    0.617609    0.617609    0.617609   -0.000000   -0.000000    0.000000
    0.401928    0.681675    0.681675    0.681675   -0.000000   -0.000000    0.000000
    0.423082    0.752464    0.752464    0.752464   -0.000000   -0.000000    0.000000
    0.444236    0.830415    0.830415    0.830415   -0.000000   -0.000000    0.000000
    0.465390    0.915884    0.915884    0.915884   -0.000000   -0.000000    0.000000
    0.486544    1.009156    1.009156    1.009156   -0.000000   -0.000000    0.000000
    0.507698    1.110464    1.110464    1.110464   -0.000000   -0.000000    0.000000
    0.528852    1.219995    1.219995    1.219995   -0.000000   -0.000000    0.000000
    0.550006    1.337904    1.337904    1.337904   -0.000000   -0.000000    0.000000
    0.571160    1.464318    1.464318    1.464318   -0.000000   -0.000000   -0.000000
    0.592314    1.599342    1.599342    1.599342   -0.000000   -0.000000   -0.000000
    0.613468    1.743065    1.743065    1.743065   -0.000000   -0.000000   -0.000000
    0.634623    1.895559    1.895559    1.895559   -0.000000   -0.000000   -0.000000
    0.655777    2.056886    2.056886    2.056886   -0.000000   -0.000000   -0.000000
    0.676931    2.227097    2.227097    2.227097   -0.000000   -0.000000   -0.000000
    0.698085    2.406233    2.406233    2.406233   -0.000000   -0.000000    0.000000
    0.719239    2.594329    2.594329    2.594329   -0.000000   -0.000000    0.000000
    0.740393    2.791411    2.791411    2.791411   -0.000000   -0.000000    0.000000
    0.761547    2.997499    2.997499    2.997499   -0.000000   -0.000000    0.000000
    0.782701    3.212610    3.212610    3.212610   -0.000000   -0.000000    0.000000
    0.803855    3.436752    3.436752    3.436752   -0.000000   -0.000000    0.000000
    0.825009    3.669931    3.669931    3.669931   -0.000000   -0.000000    0.000000
    0.846163    3.912147    3.912147    3.912147   -0.000000   -0.000000    0.000000
    0.867317    4.163395    4.163395    4.163395   -0.000000   -0.000000    0.000000
    0.888472    4.423666    4.423666    4.423666   -0.000000   -0.000000    0.000000
    0.909626    4.692948    4.692948    4.692948   -0.000000    0.000000    0.000000
    0.930780    4.971224    4.971224    4.971224   -0.000000    0.000000   -0.000000
    0.951934    5.258470    5.258470    5.258470   -0.000000    0.000000   -0.000000
    0.973088    5.554661    5.554661    5.554661   -0.000000    0.000000   -0.000000
    0.994242    5.859766    5.859766    5.859766   -0.000000    0.000000   -0.000000
    1.015396    6.173750    6.173750    6.173750   -0.000000    0.000000   -0.000000
    1.036550    6.496570    6.496570    6.496570   -0.000000    0.000000   -0.000000
    1.057704    6.828182    6.828182    6.828182   -0.000000    0.000000    0.000000
    1.078858    7.168534    7.168534    7.168534   -0.000000    0.000000    0.000000
    1.100012    7.517566    7.517566    7.517566   -0.000000   -0.000000    0.000000
    1.121166    7.875215    7.875215    7.875215   -0.000000   -0.000000    0.000000
    1.142321    8.241409    8.241409    8.241409   -0.000000   -0.000000    0.000000
    1.163475    8.616068    8.616068    8.616068   -0.000000   -0.000000    0.000000
    1.184629    8.999104    8.999104    8.999104   -0.000000    0.000000    0.000000
    1.205783    9.390419    9.390419    9.390419   -0.000000    0.000000    0.000000
    1.226937    9.789904    9.789904    9.789904   -0.000000    0.000000    0.000000
    1.248091   10.197440   10.197440   10.197440   -0.000000    0.000000    0.000000
    1.269245   10.612893   10.612893   10.612893   -0.000000    0.000000    0.000000
    1.290399   11.036116   11.036116   11.036116   -0.000000    0.000000    0.000000
    1.311553   11.466946   11.466946   11.466946   -0.000000    0.000000    0.000000
    1.332707   11.905199   11.905199   11.905199   -0.000000    0.000000    0.000000
    1.353861   12.350672   12.350672   12.350672   -0.000000    0.000000    0.000000
    1.375015   12.803141   12.803141   12.803141   -0.000000    0.000000    0.000000
    1.396170   13.262351   13.262351   13.262351   -0.000000    0.000000    0.000000
    1.417324   13.728021   13.728021   13.728021   -0.000000    0.000000    0.000000
    1.438478   14.199834   14.199834   14.199834   -0.000000    0.000000    0.000000
    1.459632   14.677436   14.677436   14.677436   -0.000000    0.000000    0.000000
    1.480786   15.160426   15.160426   15.160426   -0.000000   -0.000000    0.000000
    1.501940   15.648349   15.648349   15.648349   -0.000000   -0.000000    0.000000
    1.523094   16.140677   16.140677   16.140677   -0.000000   -0.000000    0.000000
    1.544248   16.636783   16.636783   16.636783   -0.000000   -0.000000    0.000000
    1.565402   17.135899   17.135899   17.135899   -0.000000   -0.000000    0.000000
    1.586556   17.637064   17.637064   17.637064   -0.000000   -0.000000    0.000000
    1.607710   18.139064   18.139064   18.139064   -0.000000   -0.000000    0.000000
    1.628864   18.640368   18.640368   18.640368   -0.000000   -0.000000    0.000000
    1.650019   19.139044   19.139044   19.139044   -0.000000   -0.000000   -0.000000
    1.671173   19.632663   19.632663   19.632663   -0.000000   -0.000000   -0.000000
    1.692327   20.118149   20.118149   20.118149   -0.000000   -0.000000   -0.000000
    1.713481   20.591592   20.591592   20.591592   -0.000000   -0.000000   -0.000000
    1.734635   21.047979   21.047979   21.047979   -0.000000   -0.000000   -0.000000
    1.755789   21.480838   21.480838   21.480838   -0.000000   -0.000000   -0.000000
    1.776943   21.881756   21.881756   21.881756   -0.000000    0.000000   -0.000000
    1.798097   22.239783   22.239783   22.239783   -0.000000    0.000000   -0.000000
    1.819251   22.540795   22.540795   22.540795   -0.000000    0.000000    0.000000
    1.840405   22.767069   22.767069   22.767069   -0.000000    0.000000    0.000000
    1.861559   22.897827   22.897827   22.897827   -0.000000    0.000000    0.000000
    1.882713   22.912131   22.912131   22.912131   -0.000000    0.000000    0.000000
    1.903868   22.795810   22.795810   22.795810   -0.000000   -0.000000    0.000000
    1.925022   22.552004   22.552004   22.552004   -0.000000   -0.000000    0.000000
    1.946176   22.209915   22.209915   22.209915   -0.000000   -0.000000    0.000000
    1.967330   21.823399   21.823399   21.823399   -0.000000   -0.000000    0.000000
    1.988484   21.455081   21.455081   21.455081   -0.000000    0.000000    0.000000
    2.009638   21.148719   21.148719   21.148719   -0.000000    0.000000    0.000000
    2.030792   20.902171   20.902171   20.902171   -0.000000    0.000000    0.000000
    2.051946   20.670538   20.670538   20.670538   -0.000000    0.000000    0.000000
    2.073100   20.417117   20.417117   20.417117   -0.000000    0.000000    0.000000
    2.094254   20.157730   20.157730   20.157730   -0.000000    0.000000    0.000000
    2.115408   19.937771   19.937771   19.937771   -0.000000    0.000000    0.000000
    2.136562   19.783973   19.783973   19.783973   -0.000000    0.000000    0.000000
    2.157717   19.689398   19.689398   19.689398   -0.000000    0.000000    0.000000
    2.178871   19.627003   19.627003   19.627003   -0.000000   -0.000000    0.000000
    2.200025   19.567149   19.567149   19.567149   -0.000000   -0.000000    0.000000
    2.221179   19.488325   19.488325   19.488325   -0.000000   -0.000000    0.000000
    2.242333   19.381278   19.381278   19.381278   -0.000000   -0.000000    0.000000
    2.263487   19.249005   19.249005   19.249005   -0.000000   -0.000000    0.000000
    2.284641   19.103855   19.103855   19.103855   -0.000000    0.000000    0.000000
    2.305795   18.962268   18.962268   18.962268   -0.000000    0.000000    0.000000
    2.326949   18.838802   18.838802   18.838802   -0.000000    0.000000    0.000000
    2.348103   18.742403   18.742403   18.742403   -0.000000    0.000000    0.000000
    2.369257   18.676364   18.676364   18.676364   -0.000000   -0.000000    0.000000
    2.390411   18.640407   18.640407   18.640407   -0.000000   -0.000000    0.000000
    2.411566   18.632665   18.632665   18.632665   -0.000000   -0.000000    0.000000
    2.432720   18.650773   18.650773   18.650773   -0.000000   -0.000000    0.000000
    2.453874   18.692270   18.692270   18.692270   -0.000000   -0.000000    0.000000
    2.475028   18.754658   18.754658   18.754658   -0.000000    0.000000    0.000000
    2.496182   18.835396   18.835396   18.835396   -0.000000    0.000000    0.000000
    2.517336   18.931918   18.931918   18.931918    0.000000    0.000000    0.000000
    2.538490   19.041725   19.041725   19.041725    0.000000    0.000000    0.000000
    2.559644   19.162490   19.162490   19.162490    0.000000    0.000000    0.000000
    2.580798   19.292117   19.292117   19.292117    0.000000    0.000000    0.000000
    2.601952   19.428728   19.428728   19.428728    0.000000    0.000000    0.000000
    2.623106   19.570609   19.570609   19.570609    0.000000    0.000000    0.000000
    2.644260   19.716169   19.716169   19.716169    0.000000    0.000000    0.000000
    2.665415   19.863963   19.863963   19.863963    0.000000   -0.000000    0.000000
    2.686569   20.012867   20.012867   20.012867   -0.000000   -0.000000    0.000000
    2.707723   20.162379   20.162379   20.162379   -0.000000   -0.000000    0.000000
    2.728877   20.312817   20.312817   20.312817   -0.000000   -0.000000    0.000000
    2.750031   20.465044   20.465044   20.465044   -0.000000   -0.000000    0.000000
    2.771185   20.619887   20.619887   20.619887   -0.000000   -0.000000    0.000000
    2.792339   20.777960   20.777960   20.777960   -0.000000   -0.000000    0.000000
    2.813493   20.940033   20.940033   20.940033   -0.000000   -0.000000    0.000000
    2.834647   21.107452   21.107452   21.107452   -0.000000   -0.000000    0.000000
    2.855801   21.282305   21.282305   21.282305   -0.000000   -0.000000    0.000000
    2.876955   21.467510   21.467510   21.467510   -0.000000   -0.000000    0.000000
    2.898109   21.667007   21.667007   21.667007   -0.000000   -0.000000    0.000000
    2.919264   21.885944   21.885944   21.885944   -0.000000   -0.000000    0.000000
    2.940418   22.130356   22.130356   22.130356   -0.000000   -0.000000    0.000000
    2.961572   22.405301   22.405301   22.405301   -0.000000   -0.000000    0.000000
    2.982726   22.709800   22.709800   22.709800   -0.000000   -0.000000    0.000000
[...]
   16.542493    0.296495    0.296495    0.296495   -0.000000   -0.000000   -0.000000
   16.563647    0.298839    0.298839    0.298839   -0.000000   -0.000000   -0.000000
   16.584801    0.301193    0.301193    0.301193   -0.000000   -0.000000   -0.000000
   16.605956    0.303551    0.303551    0.303551   -0.000000   -0.000000   -0.000000
   16.627110    0.305910    0.305910    0.305910   -0.000000   -0.000000   -0.000000
   16.648264    0.308268    0.308268    0.308268   -0.000000   -0.000000   -0.000000
   16.669418    0.310625    0.310625    0.310625   -0.000000   -0.000000   -0.000000
   16.690572    0.312980    0.312980    0.312980   -0.000000   -0.000000   -0.000000
   16.711726    0.315332    0.315332    0.315332   -0.000000   -0.000000   -0.000000
   16.732880    0.317681    0.317681    0.317681   -0.000000   -0.000000   -0.000000
   16.754034    0.320027    0.320027    0.320027   -0.000000   -0.000000   -0.000000
   16.775188    0.322369    0.322369    0.322369   -0.000000   -0.000000   -0.000000
   16.796342    0.324707    0.324707    0.324707   -0.000000   -0.000000   -0.000000
   16.817496    0.327040    0.327040    0.327040   -0.000000   -0.000000   -0.000000
   16.838650    0.329368    0.329368    0.329368   -0.000000   -0.000000   -0.000000
   16.859805    0.331689    0.331689    0.331689   -0.000000   -0.000000   -0.000000
   16.880959    0.334003    0.334003    0.334003   -0.000000   -0.000000   -0.000000
   16.902113    0.336307    0.336307    0.336307   -0.000000   -0.000000   -0.000000
   16.923267    0.338599    0.338599    0.338599   -0.000000   -0.000000   -0.000000
   16.944421    0.340876    0.340876    0.340876   -0.000000   -0.000000   -0.000000
   16.965575    0.343134    0.343134    0.343134   -0.000000   -0.000000   -0.000000
   16.986729    0.345369    0.345369    0.345369   -0.000000   -0.000000   -0.000000
   17.007883    0.347580    0.347580    0.347580   -0.000000   -0.000000   -0.000000
   17.029037    0.349764    0.349764    0.349764   -0.000000   -0.000000   -0.000000
   17.050191    0.351922    0.351922    0.351922   -0.000000   -0.000000   -0.000000
   17.071345    0.354054    0.354054    0.354054   -0.000000   -0.000000   -0.000000
   17.092499    0.356161    0.356161    0.356161   -0.000000   -0.000000   -0.000000
   17.113654    0.358245    0.358245    0.358245   -0.000000   -0.000000   -0.000000
   17.134808    0.360306    0.360306    0.360306   -0.000000   -0.000000   -0.000000
   17.155962    0.362346    0.362346    0.362346   -0.000000   -0.000000   -0.000000
   17.177116    0.364365    0.364365    0.364365   -0.000000   -0.000000   -0.000000
   17.198270    0.366364    0.366364    0.366364   -0.000000   -0.000000   -0.000000
   17.219424    0.368345    0.368345    0.368345   -0.000000   -0.000000   -0.000000
   17.240578    0.370308    0.370308    0.370308   -0.000000   -0.000000   -0.000000
   17.261732    0.372254    0.372254    0.372254   -0.000000   -0.000000   -0.000000
   17.282886    0.374184    0.374184    0.374184   -0.000000   -0.000000   -0.000000
   17.304040    0.376097    0.376097    0.376097   -0.000000   -0.000000   -0.000000
   17.325194    0.377995    0.377995    0.377995   -0.000000   -0.000000   -0.000000
   17.346348    0.379878    0.379878    0.379878   -0.000000   -0.000000   -0.000000
   17.367503    0.381747    0.381747    0.381747   -0.000000   -0.000000   -0.000000
   17.388657    0.383602    0.383602    0.383602   -0.000000   -0.000000   -0.000000
   17.409811    0.385443    0.385443    0.385443   -0.000000   -0.000000   -0.000000
   17.430965    0.387271    0.387271    0.387271   -0.000000   -0.000000   -0.000000
   17.452119    0.389086    0.389086    0.389086   -0.000000   -0.000000   -0.000000
   17.473273    0.390889    0.390889    0.390889   -0.000000   -0.000000   -0.000000
   17.494427    0.392679    0.392679    0.392679   -0.000000   -0.000000   -0.000000
   17.515581    0.394458    0.394458    0.394458   -0.000000   -0.000000   -0.000000
   17.536735    0.396225    0.396225    0.396225   -0.000000   -0.000000   -0.000000
   17.557889    0.397980    0.397980    0.397980   -0.000000   -0.000000   -0.000000
   17.579043    0.399725    0.399725    0.399725   -0.000000   -0.000000   -0.000000
   17.600197    0.401458    0.401458    0.401458   -0.000000   -0.000000   -0.000000
   17.621352    0.403181    0.403181    0.403181   -0.000000   -0.000000   -0.000000
   17.642506    0.404893    0.404893    0.404893   -0.000000   -0.000000   -0.000000
   17.663660    0.406595    0.406595    0.406595   -0.000000   -0.000000   -0.000000
   17.684814    0.408287    0.408287    0.408287   -0.000000   -0.000000   -0.000000
   17.705968    0.409969    0.409969    0.409969   -0.000000   -0.000000   -0.000000
   17.727122    0.411641    0.411641    0.411641   -0.000000   -0.000000   -0.000000
   17.748276    0.413303    0.413303    0.413303   -0.000000   -0.000000   -0.000000
   17.769430    0.414956    0.414956    0.414956   -0.000000   -0.000000   -0.000000
   17.790584    0.416600    0.416600    0.416600   -0.000000   -0.000000   -0.000000
   17.811738    0.418234    0.418234    0.418234   -0.000000   -0.000000   -0.000000
   17.832892    0.419860    0.419860    0.419860   -0.000000   -0.000000   -0.000000
   17.854046    0.421476    0.421476    0.421476   -0.000000   -0.000000   -0.000000
   17.875201    0.423084    0.423084    0.423084   -0.000000   -0.000000   -0.000000
   17.896355    0.424684    0.424684    0.424684   -0.000000   -0.000000   -0.000000
   17.917509    0.426274    0.426274    0.426274   -0.000000   -0.000000   -0.000000
   17.938663    0.427856    0.427856    0.427856   -0.000000   -0.000000   -0.000000
   17.959817    0.429430    0.429430    0.429430   -0.000000   -0.000000   -0.000000
   17.980971    0.430996    0.430996    0.430996   -0.000000   -0.000000   -0.000000
   18.002125    0.432554    0.432554    0.432554   -0.000000   -0.000000   -0.000000
   18.023279    0.434103    0.434103    0.434103   -0.000000   -0.000000   -0.000000
   18.044433    0.435645    0.435645    0.435645   -0.000000   -0.000000   -0.000000
   18.065587    0.437179    0.437179    0.437179   -0.000000   -0.000000   -0.000000
   18.086741    0.438705    0.438705    0.438705   -0.000000   -0.000000   -0.000000
   18.107895    0.440224    0.440224    0.440224   -0.000000   -0.000000   -0.000000
   18.129050    0.441735    0.441735    0.441735   -0.000000   -0.000000   -0.000000
   18.150204    0.443238    0.443238    0.443238   -0.000000   -0.000000   -0.000000
   18.171358    0.444735    0.444735    0.444735   -0.000000   -0.000000   -0.000000
   18.192512    0.446223    0.446223    0.446223   -0.000000   -0.000000   -0.000000
   18.213666    0.447705    0.447705    0.447705   -0.000000   -0.000000   -0.000000
   18.234820    0.449180    0.449180    0.449180   -0.000000   -0.000000   -0.000000
   18.255974    0.450647    0.450647    0.450647   -0.000000   -0.000000   -0.000000
   18.277128    0.452108    0.452108    0.452108   -0.000000   -0.000000   -0.000000
   18.298282    0.453561    0.453561    0.453561   -0.000000   -0.000000   -0.000000
   18.319436    0.455008    0.455008    0.455008   -0.000000   -0.000000   -0.000000
   18.340590    0.456447    0.456447    0.456447   -0.000000   -0.000000   -0.000000
   18.361744    0.457881    0.457881    0.457881   -0.000000   -0.000000   -0.000000
   18.382899    0.459307    0.459307    0.459307   -0.000000   -0.000000   -0.000000
   18.404053    0.460727    0.460727    0.460727   -0.000000   -0.000000   -0.000000
   18.425207    0.462140    0.462140    0.462140   -0.000000   -0.000000   -0.000000
   18.446361    0.463547    0.463547    0.463547   -0.000000   -0.000000   -0.000000
   18.467515    0.464947    0.464947    0.464947   -0.000000   -0.000000   -0.000000
   18.488669    0.466341    0.466341    0.466341   -0.000000   -0.000000   -0.000000
   18.509823    0.467729    0.467729    0.467729   -0.000000   -0.000000   -0.000000
   18.530977    0.469110    0.469110    0.469110   -0.000000   -0.000000   -0.000000
   18.552131    0.470485    0.470485    0.470485   -0.000000   -0.000000   -0.000000
   18.573285    0.471854    0.471854    0.471854   -0.000000   -0.000000   -0.000000
   18.594439    0.473217    0.473217    0.473217   -0.000000   -0.000000   -0.000000
   18.615593    0.474574    0.474574    0.474574   -0.000000   -0.000000   -0.000000
   18.636748    0.475925    0.475925    0.475925   -0.000000   -0.000000   -0.000000
   18.657902    0.477270    0.477270    0.477270   -0.000000   -0.000000   -0.000000
   18.679056    0.478609    0.478609    0.478609   -0.000000   -0.000000   -0.000000
   18.700210    0.479942    0.479942    0.479942   -0.000000   -0.000000   -0.000000
   18.721364    0.481269    0.481269    0.481269   -0.000000   -0.000000   -0.000000
   18.742518    0.482591    0.482591    0.482591   -0.000000   -0.000000   -0.000000
   18.763672    0.483907    0.483907    0.483907   -0.000000   -0.000000   -0.000000
   18.784826    0.485217    0.485217    0.485217   -0.000000   -0.000000   -0.000000
   18.805980    0.486521    0.486521    0.486521   -0.000000   -0.000000   -0.000000
   18.827134    0.487820    0.487820    0.487820   -0.000000   -0.000000   -0.000000
   18.848288    0.489114    0.489114    0.489114   -0.000000   -0.000000   -0.000000
   18.869442    0.490402    0.490402    0.490402   -0.000000   -0.000000   -0.000000
   18.890597    0.491684    0.491684    0.491684   -0.000000   -0.000000   -0.000000
   18.911751    0.492961    0.492961    0.492961   -0.000000   -0.000000   -0.000000
   18.932905    0.494233    0.494233    0.494233   -0.000000   -0.000000   -0.000000
   18.954059    0.495499    0.495499    0.495499   -0.000000   -0.000000   -0.000000
   18.975213    0.496760    0.496760    0.496760   -0.000000   -0.000000   -0.000000
   18.996367    0.498016    0.498016    0.498016   -0.000000   -0.000000   -0.000000
   19.017521    0.499266    0.499266    0.499266   -0.000000   -0.000000   -0.000000
   19.038675    0.500511    0.500511    0.500511   -0.000000   -0.000000   -0.000000
   19.059829    0.501751    0.501751    0.501751   -0.000000   -0.000000   -0.000000
   19.080983    0.502986    0.502986    0.502986   -0.000000   -0.000000   -0.000000
   19.102137    0.504216    0.504216    0.504216   -0.000000   -0.000000   -0.000000
   19.123291    0.505441    0.505441    0.505441   -0.000000   -0.000000   -0.000000
   19.144446    0.506661    0.506661    0.506661   -0.000000   -0.000000   -0.000000
   19.165600    0.507876    0.507876    0.507876   -0.000000   -0.000000   -0.000000
   19.186754    0.509086    0.509086    0.509086   -0.000000   -0.000000   -0.000000
   19.207908    0.510291    0.510291    0.510291   -0.000000   -0.000000   -0.000000
   19.229062    0.511491    0.511491    0.511491   -0.000000   -0.000000   -0.000000
   19.250216    0.512686    0.512686    0.512686   -0.000000   -0.000000   -0.000000
   19.271370    0.513877    0.513877    0.513877   -0.000000   -0.000000   -0.000000
   19.292524    0.515062    0.515062    0.515062   -0.000000   -0.000000   -0.000000
   19.313678    0.516243    0.516243    0.516243   -0.000000   -0.000000   -0.000000
   19.334832    0.517419    0.517419    0.517419   -0.000000   -0.000000   -0.000000
   19.355986    0.518591    0.518591    0.518591   -0.000000   -0.000000   -0.000000
   19.377140    0.519758    0.519758    0.519758   -0.000000   -0.000000   -0.000000
   19.398295    0.520920    0.520920    0.520920   -0.000000   -0.000000   -0.000000
   19.419449    0.522078    0.522078    0.522078   -0.000000   -0.000000   -0.000000
   19.440603    0.523231    0.523231    0.523231   -0.000000   -0.000000   -0.000000
   19.461757    0.524379    0.524379    0.524379   -0.000000   -0.000000   -0.000000
   19.482911    0.525523    0.525523    0.525523   -0.000000   -0.000000   -0.000000
   19.504065    0.526663    0.526663    0.526663   -0.000000   -0.000000   -0.000000
   19.525219    0.527798    0.527798    0.527798   -0.000000   -0.000000   -0.000000
   19.546373    0.528928    0.528928    0.528928   -0.000000   -0.000000   -0.000000
   19.567527    0.530054    0.530054    0.530054   -0.000000   -0.000000   -0.000000
   19.588681    0.531176    0.531176    0.531176   -0.000000   -0.000000   -0.000000
   19.609835    0.532294    0.532294    0.532294   -0.000000   -0.000000   -0.000000
   19.630989    0.533407    0.533407    0.533407   -0.000000   -0.000000   -0.000000
   19.652144    0.534516    0.534516    0.534516   -0.000000   -0.000000   -0.000000
   19.673298    0.535620    0.535620    0.535620   -0.000000   -0.000000   -0.000000
   19.694452    0.536721    0.536721    0.536721   -0.000000   -0.000000   -0.000000
   19.715606    0.537817    0.537817    0.537817   -0.000000   -0.000000   -0.000000
   19.736760    0.538909    0.538909    0.538909   -0.000000   -0.000000   -0.000000
   19.757914    0.539997    0.539997    0.539997   -0.000000   -0.000000   -0.000000
   19.779068    0.541080    0.541080    0.541080   -0.000000   -0.000000   -0.000000
   19.800222    0.542160    0.542160    0.542160   -0.000000   -0.000000   -0.000000
   19.821376    0.543235    0.543235    0.543235   -0.000000   -0.000000   -0.000000
   19.842530    0.544306    0.544306    0.544306   -0.000000   -0.000000   -0.000000
   19.863684    0.545374    0.545374    0.545374   -0.000000   -0.000000   -0.000000
   19.884838    0.546437    0.546437    0.546437   -0.000000   -0.000000   -0.000000
   19.905993    0.547496    0.547496    0.547496   -0.000000   -0.000000   -0.000000
   19.927147    0.548552    0.548552    0.548552   -0.000000   -0.000000   -0.000000
   19.948301    0.549603    0.549603    0.549603   -0.000000   -0.000000   -0.000000
   19.969455    0.550650    0.550650    0.550650   -0.000000   -0.000000   -0.000000
   19.990609    0.551694    0.551694    0.551694   -0.000000   -0.000000   -0.000000
   20.011763    0.552733    0.552733    0.552733   -0.000000   -0.000000   -0.000000
   20.032917    0.553769    0.553769    0.553769   -0.000000   -0.000000   -0.000000
   20.054071    0.554801    0.554801    0.554801   -0.000000   -0.000000   -0.000000
   20.075225    0.555829    0.555829    0.555829   -0.000000   -0.000000   -0.000000
   20.096379    0.556853    0.556853    0.556853   -0.000000   -0.000000   -0.000000
   20.117533    0.557874    0.557874    0.557874   -0.000000   -0.000000   -0.000000
   20.138687    0.558891    0.558891    0.558891   -0.000000   -0.000000   -0.000000
   20.159842    0.559904    0.559904    0.559904   -0.000000   -0.000000   -0.000000
   20.180996    0.560913    0.560913    0.560913   -0.000000   -0.000000   -0.000000
   20.202150    0.561918    0.561918    0.561918   -0.000000   -0.000000   -0.000000
   20.223304    0.562920    0.562920    0.562920   -0.000000   -0.000000   -0.000000
   20.244458    0.563919    0.563919    0.563919   -0.000000   -0.000000   -0.000000
   20.265612    0.564913    0.564913    0.564913   -0.000000   -0.000000   -0.000000
   20.286766    0.565904    0.565904    0.565904   -0.000000   -0.000000   -0.000000
   20.307920    0.566892    0.566892    0.566892   -0.000000   -0.000000   -0.000000
   20.329074    0.567876    0.567876    0.567876   -0.000000   -0.000000   -0.000000
   20.350228    0.568856    0.568856    0.568856   -0.000000   -0.000000   -0.000000
   20.371382    0.569833    0.569833    0.569833   -0.000000   -0.000000   -0.000000
   20.392536    0.570806    0.570806    0.570806   -0.000000   -0.000000   -0.000000
   20.413691    0.571775    0.571775    0.571775   -0.000000   -0.000000   -0.000000
   20.434845    0.572742    0.572742    0.572742   -0.000000   -0.000000   -0.000000
   20.455999    0.573705    0.573705    0.573705   -0.000000   -0.000000   -0.000000
   20.477153    0.574664    0.574664    0.574664   -0.000000   -0.000000   -0.000000
   20.498307    0.575620    0.575620    0.575620   -0.000000   -0.000000   -0.000000
   20.519461    0.576572    0.576572    0.576572   -0.000000   -0.000000   -0.000000
   20.540615    0.577521    0.577521    0.577521   -0.000000   -0.000000   -0.000000
   20.561769    0.578467    0.578467    0.578467   -0.000000   -0.000000   -0.000000
   20.582923    0.579409    0.579409    0.579409   -0.000000   -0.000000   -0.000000
   20.604077    0.580349    0.580349    0.580349   -0.000000   -0.000000   -0.000000
   20.625231    0.581284    0.581284    0.581284   -0.000000   -0.000000   -0.000000
   20.646385    0.582217    0.582217    0.582217   -0.000000   -0.000000   -0.000000
   20.667540    0.583146    0.583146    0.583146   -0.000000   -0.000000   -0.000000
   20.688694    0.584072    0.584072    0.584072   -0.000000   -0.000000   -0.000000
   20.709848    0.584994    0.584994    0.584994   -0.000000   -0.000000   -0.000000
   20.731002    0.585914    0.585914    0.585914   -0.000000   -0.000000   -0.000000
   20.752156    0.586830    0.586830    0.586830   -0.000000   -0.000000   -0.000000
   20.773310    0.587743    0.587743    0.587743   -0.000000   -0.000000   -0.000000
   20.794464    0.588653    0.588653    0.588653   -0.000000   -0.000000   -0.000000
   20.815618    0.589559    0.589559    0.589559   -0.000000   -0.000000   -0.000000
   20.836772    0.590463    0.590463    0.590463   -0.000000   -0.000000   -0.000000
   20.857926    0.591363    0.591363    0.591363   -0.000000   -0.000000   -0.000000
   20.879080    0.592260    0.592260    0.592260   -0.000000   -0.000000   -0.000000
   20.900234    0.593154    0.593154    0.593154   -0.000000   -0.000000   -0.000000
   20.921389    0.594045    0.594045    0.594045   -0.000000   -0.000000   -0.000000
   20.942543    0.594933    0.594933    0.594933   -0.000000   -0.000000   -0.000000
   20.963697    0.595818    0.595818    0.595818   -0.000000   -0.000000   -0.000000
   20.984851    0.596700    0.596700    0.596700   -0.000000   -0.000000   -0.000000
   21.006005    0.597579    0.597579    0.597579   -0.000000   -0.000000   -0.000000
   21.027159    0.598455    0.598455    0.598455   -0.000000   -0.000000   -0.000000
   21.048313    0.599327    0.599327    0.599327   -0.000000   -0.000000   -0.000000
   21.069467    0.600197    0.600197    0.600197   -0.000000   -0.000000   -0.000000
   21.090621    0.601064    0.601064    0.601064   -0.000000   -0.000000   -0.000000
   21.111775    0.601928    0.601928    0.601928   -0.000000   -0.000000   -0.000000
   21.132929    0.602789    0.602789    0.602789   -0.000000   -0.000000   -0.000000
 
 The outermost node in the dielectric function lies at epsilon=  15.5


--------------------------------------------------------------------------------------------------------


    OPTICS:  cpu time      0.1928: real time      0.2061
    4ORBIT:  cpu time      0.0000: real time      0.0000
 BZINTS: Fermi energy:    2.540887;   32.000000 electrons
         Band energy:-0.864525E+02;  BLOECHL correction:    0.000000

 total amount of memory used by VASP MPI-rank0    47402. kBytes
=======================================================================

   base      :      30000. kBytes
   nonl-proj :      10527. kBytes
   fftplans  :       1270. kBytes
   grid      :       3203. kBytes
   one-center:         64. kBytes
   wavefun   :       2338. kBytes
 
  
  
 General timing and accounting informations for this job:
 ========================================================
  
                  Total CPU time used (sec):        5.375
                            User time (sec):        3.526
                          System time (sec):        1.849
                         Elapsed time (sec):        6.199
  
                   Maximum memory used (kb):      143020.
                   Average memory used (kb):          N/A
  
                          Minor page faults:        14742
                          Major page faults:          134
                 Voluntary context switches:         1928
