<?xml version="1.0" encoding="ISO-8859-1"?>
<modeling>
 <generator>
  <i name="program" type="string">vasp </i>
  <i name="version" type="string">6.4.3  </i>
  <i name="subversion" type="string">19Mar24 (build Aug 29 2024 15:27:20) complex                          parallel </i>
  <i name="platform" type="string">LinuxIFC </i>
  <i name="date" type="string">2025 03 19 </i>
  <i name="time" type="string">11:27:38 </i>
 </generator>
 <incar>
  <i type="string" name="SYSTEM">GaAs</i>
  <i type="string" name="PREC">Normal</i>
  <i type="int" name="IBRION">     2</i>
  <i name="ENCUT">    500.00000000</i>
  <i type="int" name="ISMEAR">    -5</i>
  <i name="SIGMA">      0.10000000</i>
  <i type="logical" name="LOPTICS"> T  </i>
 </incar>
 <primitive_cell>
  <structure name="primitive_cell" >
   <crystal>
    <varray name="basis" >
     <v>       2.85783140      -2.85783140       0.00000000 </v>
     <v>       2.85783140       0.00000000       2.85783140 </v>
     <v>       0.00000000      -2.85783140       2.85783140 </v>
    </varray>
    <i name="volume">     46.68096311 </i>
    <varray name="rec_basis" >
     <v>       0.17495784      -0.17495784      -0.17495784 </v>
     <v>       0.17495784       0.17495784       0.17495784 </v>
     <v>      -0.17495784      -0.17495784       0.17495784 </v>
    </varray>
   </crystal>
   <varray name="positions" >
    <v>       0.00000000       0.00000000       0.00000000 </v>
    <v>       0.75000000       0.75000000       0.75000000 </v>
   </varray>
  </structure>
  <varray name="primitive_index" >
   <v type="int" >        1 </v>
   <v type="int" >        5 </v>
  </varray>
 </primitive_cell>
 <kpoints>
  <generation param="Gamma">
   <v type="int" name="divisions">       5        5        5 </v>
   <v name="usershift">      0.00000000       0.00000000       0.00000000 </v>
   <v name="genvec1">      0.20000000       0.00000000       0.00000000 </v>
   <v name="genvec2">      0.00000000       0.20000000       0.00000000 </v>
   <v name="genvec3">      0.00000000       0.00000000       0.20000000 </v>
   <v name="shift">      0.00000000       0.00000000       0.00000000 </v>
  </generation>
  <varray name="kpointlist" >
   <v>       0.00000000       0.00000000       0.00000000 </v>
   <v>       0.20000000       0.00000000       0.00000000 </v>
   <v>       0.40000000       0.00000000       0.00000000 </v>
   <v>       0.20000000       0.20000000       0.00000000 </v>
   <v>       0.40000000       0.20000000       0.00000000 </v>
   <v>       0.40000000       0.40000000       0.00000000 </v>
   <v>       0.20000000       0.20000000       0.20000000 </v>
   <v>       0.40000000       0.20000000       0.20000000 </v>
   <v>       0.40000000       0.40000000       0.20000000 </v>
   <v>       0.40000000       0.40000000       0.40000000 </v>
  </varray>
  <varray name="weights" >
   <v>       0.00800000 </v>
   <v>       0.04800000 </v>
   <v>       0.04800000 </v>
   <v>       0.09600000 </v>
   <v>       0.19200000 </v>
   <v>       0.09600000 </v>
   <v>       0.06400000 </v>
   <v>       0.19200000 </v>
   <v>       0.19200000 </v>
   <v>       0.06400000 </v>
  </varray>
  <varray name="tetrahedronlist"  type="int" >
   <v type="int" >       12        7        8        8        9 </v>
   <v type="int" >       18        8        8        9        9 </v>
   <v type="int" >       24        8        9        9       10 </v>
   <v type="int" >       12        8        9        9        9 </v>
   <v type="int" >       24        9        9        9       10 </v>
   <v type="int" >       18        9        9       10       10 </v>
   <v type="int" >       24        4        5        7        8 </v>
   <v type="int" >       12        5        7        8        8 </v>
   <v type="int" >       24        5        8        8        9 </v>
   <v type="int" >       24        4        5        5        8 </v>
   <v type="int" >       24        5        5        6        8 </v>
   <v type="int" >       12        5        6        8        9 </v>
   <v type="int" >       12        9       10       10       10 </v>
   <v type="int" >       12        8        8        9       10 </v>
   <v type="int" >       12        8        9       10       10 </v>
   <v type="int" >       12        5        5        8        9 </v>
   <v type="int" >       12        5        8        9        9 </v>
   <v type="int" >       12        5        5        6        9 </v>
   <v type="int" >       12        5        6        6        9 </v>
   <v type="int" >       12        5        6        9        9 </v>
   <v type="int" >       12        5        6        8        8 </v>
   <v type="int" >       12        5        6        6        8 </v>
   <v type="int" >       12        6        8        8        9 </v>
   <v type="int" >       12        6        8        9        9 </v>
   <v type="int" >       12        6        6        8        9 </v>
   <v type="int" >       12        7        8        9       10 </v>
   <v type="int" >       12        4        5        8        9 </v>
   <v type="int" >       12        4        7        8        9 </v>
   <v type="int" >       12        4        5        6        9 </v>
   <v type="int" >       12        5        6        7        8 </v>
   <v type="int" >       12        4        5        6        7 </v>
   <v type="int" >       12        6        7        8        9 </v>
   <v type="int" >       12        2        4        7        8 </v>
   <v type="int" >       12        2        4        5        8 </v>
   <v type="int" >       12        2        3        5        8 </v>
   <v type="int" >       12        4        4        5        7 </v>
   <v type="int" >       12        2        4        4        5 </v>
   <v type="int" >       12        2        3        4        5 </v>
   <v type="int" >       12        3        4        5        5 </v>
   <v type="int" >       12        2        3        4        7 </v>
   <v type="int" >       12        3        4        5        7 </v>
   <v type="int" >       12        3        5        7        8 </v>
   <v type="int" >        6       10       10       10       10 </v>
   <v type="int" >       12        6        6        9        9 </v>
   <v type="int" >       12        6        9        9        9 </v>
   <v type="int" >       12        6        6        6        9 </v>
   <v type="int" >       12        3        5        8        8 </v>
   <v type="int" >       12        3        5        5        8 </v>
   <v type="int" >       12        3        3        5        8 </v>
   <v type="int" >       12        5        5        5        8 </v>
   <v type="int" >       12        3        5        5        5 </v>
   <v type="int" >        6        3        3        5        5 </v>
   <v type="int" >        6        5        5        8        8 </v>
   <v type="int" >       12        2        4        4        7 </v>
   <v type="int" >       12        2        2        4        4 </v>
   <v type="int" >       12        1        2        2        4 </v>
   <v type="int" >       12        1        2        4        7 </v>
  </varray>
  <i name="volumeweight">      0.00133333 </i>
 </kpoints>
 <parameters>
  <separator name="general" >
   <i type="string" name="SYSTEM">GaAs</i>
   <i type="logical" name="LCOMPAT"> F  </i>
  </separator>
  <separator name="electronic" >
   <i type="string" name="PREC">normal</i>
   <i name="ENMAX">    500.00000000</i>
   <i name="ENAUG">    462.75800000</i>
   <i name="EDIFF">      0.00010000</i>
   <i type="int" name="IALGO">    38</i>
   <i type="int" name="IWAVPR">    10</i>
   <i type="int" name="NBANDS">    24</i>
   <i type="int" name="NBANDSLOW">    -1</i>
   <i type="int" name="NBANDSHIGH">    -1</i>
   <i name="NELECT">     32.00000000</i>
   <i type="int" name="TURBO">     0</i>
   <i type="int" name="IRESTART">     0</i>
   <i type="int" name="NREBOOT">     0</i>
   <i type="int" name="NMIN">     0</i>
   <i name="EREF">      0.00000000</i>
   <separator name="electronic smearing" >
    <i type="int" name="ISMEAR">    -5</i>
    <i name="SIGMA">      0.10000000</i>
    <i name="KSPACING">      0.50000000</i>
    <i type="logical" name="KGAMMA"> T  </i>
    <i type="logical" name="KBLOWUP"> T  </i>
   </separator>
   <separator name="electronic projectors" >
    <i type="logical" name="LREAL"> F  </i>
    <v name="ROPT">      0.00000000      0.00000000</v>
    <i type="int" name="LMAXPAW">  -100</i>
    <i type="int" name="LMAXMIX">     2</i>
    <i type="logical" name="NLSPLINE"> F  </i>
   </separator>
   <separator name="electronic startup" >
    <i type="int" name="ISTART">     1</i>
    <i type="int" name="ICHARG">     0</i>
    <i type="int" name="INIWAV">     1</i>
   </separator>
   <separator name="electronic spin" >
    <i type="int" name="ISPIN">     1</i>
    <i type="logical" name="LNONCOLLINEAR"> F  </i>
    <v name="MAGMOM">      1.00000000      1.00000000      1.00000000      1.00000000      1.00000000      1.00000000      1.00000000      1.00000000</v>
    <i name="NUPDOWN">     -1.00000000</i>
    <i type="logical" name="LSORBIT"> F  </i>
    <v name="SAXIS">      0.00000000      0.00000000      1.00000000</v>
    <i type="logical" name="LSPIRAL"> F  </i>
    <v name="QSPIRAL">      0.00000000      0.00000000      0.00000000</v>
    <i type="logical" name="LZEROZ"> F  </i>
   </separator>
   <separator name="electronic exchange-correlation" >
    <i type="logical" name="LASPH"> F  </i>
   </separator>
   <separator name="electronic convergence" >
    <i type="int" name="NELM">    60</i>
    <i type="int" name="NELMDL">     0</i>
    <i type="int" name="NELMIN">     2</i>
    <i name="ENINI">    500.00000000</i>
    <separator name="electronic convergence detail" >
     <i type="logical" name="LDIAG"> T  </i>
     <i type="logical" name="LSUBROT"> F  </i>
     <i name="WEIMIN">      0.00000000</i>
     <i name="EBREAK">      0.00000104</i>
     <i name="DEPER">      0.30000000</i>
     <i type="int" name="NRMM">     4</i>
     <i name="TIME">      0.40000000</i>
    </separator>
   </separator>
   <separator name="electronic mixer" >
    <i name="AMIX">      0.40000000</i>
    <i name="BMIX">      1.00000000</i>
    <i name="AMIN">      0.10000000</i>
    <i name="AMIX_MAG">      1.60000000</i>
    <i name="BMIX_MAG">      1.00000000</i>
    <separator name="electronic mixer details" >
     <i type="int" name="IMIX">     4</i>
     <i type="logical" name="MIXFIRST"> F  </i>
     <i type="int" name="MAXMIX">   -45</i>
     <i name="WC">    100.00000000</i>
     <i type="int" name="INIMIX">     1</i>
     <i type="int" name="MIXPRE">     1</i>
     <i type="int" name="MREMOVE">     5</i>
    </separator>
   </separator>
   <separator name="electronic dipolcorrection" >
    <i type="logical" name="LDIPOL"> F  </i>
    <i type="logical" name="LMONO"> F  </i>
    <i type="int" name="IDIPOL">     0</i>
    <i name="EPSILON">      1.00000000</i>
    <v name="DIPOL">   -100.00000000   -100.00000000   -100.00000000</v>
    <i name="EFIELD">      0.00000000</i>
    <i type="logical" name="LVACPOTAV"> F  </i>
   </separator>
  </separator>
  <separator name="grids" >
   <i type="int" name="NGX">    32</i>
   <i type="int" name="NGY">    32</i>
   <i type="int" name="NGZ">    32</i>
   <i type="int" name="NGXF">    64</i>
   <i type="int" name="NGYF">    64</i>
   <i type="int" name="NGZF">    64</i>
   <i type="logical" name="ADDGRID"> F  </i>
  </separator>
  <separator name="ionic" >
   <i type="int" name="NSW">     0</i>
   <i type="int" name="IBRION">    -1</i>
   <i type="int" name="MDALGO">     0</i>
   <i type="int" name="ISIF">     2</i>
   <i name="PSTRESS">      0.00000000</i>
   <i name="EDIFFG">      0.00100000</i>
   <i type="int" name="NFREE">     1</i>
   <i name="POTIM">      0.50000000</i>
   <i name="SMASS">     -3.00000000</i>
   <i name="SCALEE">      1.00000000</i>
  </separator>
  <separator name="ionic md" >
   <i name="TEBEG">      0.00010000</i>
   <i name="TEEND">      0.00010000</i>
   <i type="int" name="NBLOCK">     1</i>
   <i type="int" name="KBLOCK">     1</i>
   <i type="int" name="NPACO">   256</i>
   <i name="APACO">     10.00000000</i>
  </separator>
  <separator name="symmetry" >
   <i type="int" name="ISYM">     2</i>
   <i name="SYMPREC">      0.00001000</i>
  </separator>
  <separator name="dos" >
   <i type="int" name="LORBIT">     0</i>
   <v name="RWIGS">     -1.00000000     -1.00000000</v>
   <i type="int" name="NEDOS">   301</i>
   <i name="EMIN">     10.00000000</i>
   <i name="EMAX">    -10.00000000</i>
   <i name="EFERMI">      0.00000000</i>
  </separator>
  <separator name="writing" >
   <i type="int" name="NWRITE">     2</i>
   <i type="logical" name="LWAVE"> T  </i>
   <i type="logical" name="LDOWNSAMPLE"> F  </i>
   <i type="logical" name="LCHARG"> T  </i>
   <i type="logical" name="LPARD"> F  </i>
   <i type="logical" name="LVTOT"> F  </i>
   <i type="logical" name="LVHAR"> F  </i>
   <i type="logical" name="LELF"> F  </i>
   <i type="logical" name="LOPTICS"> T  </i>
   <v name="STM">      0.00000000      0.00000000      0.00000000      0.00000000      0.00000000      0.00000000      0.00000000</v>
  </separator>
  <separator name="performance" >
   <i type="int" name="NPAR">     8</i>
   <i type="int" name="NSIM">     4</i>
   <i type="int" name="NBLK">    -1</i>
   <i type="logical" name="LPLANE"> T  </i>
   <i type="logical" name="LSCALAPACK"> T  </i>
   <i type="logical" name="LSCAAWARE"> F  </i>
   <i type="logical" name="LSCALU"> F  </i>
   <i type="logical" name="LASYNC"> F  </i>
   <i type="logical" name="LORBITALREAL"> F  </i>
  </separator>
  <separator name="miscellaneous" >
   <i type="int" name="IDIOT">     3</i>
   <i type="int" name="PHON_NSTRUCT">    -1</i>
   <i type="logical" name="LMUSIC"> F  </i>
   <v name="POMASS">     74.92200000     69.72300000</v>
   <v name="DARWINR">      0.00000000      0.00000000</v>
   <v name="DARWINV">      1.00000000      1.00000000</v>
   <i type="logical" name="LCORR"> T  </i>
  </separator>
  <i type="logical" name="GGA_COMPAT"> T  </i>
  <i type="logical" name="LBERRY"> F  </i>
  <i type="int" name="ICORELEVEL">     0</i>
  <i type="logical" name="LDAU"> F  </i>
  <i type="int" name="I_CONSTRAINED_M">     0</i>
  <separator name="electronic exchange-correlation" >
   <i type="string" name="GGA    ">PE</i>
   <i type="string" name="XC_C">1</i>
   <i type="int" name="VOSKOWN">     0</i>
   <i type="logical" name="LHFCALC"> F  </i>
   <i type="string" name="PRECFOCK"></i>
   <i type="logical" name="LSYMGRAD"> F  </i>
   <i type="logical" name="LHFONE"> F  </i>
   <i type="logical" name="LRHFCALC"> F  </i>
   <i type="logical" name="LTHOMAS"> F  </i>
   <i type="logical" name="LMODELHF"> F  </i>
   <i type="logical" name="LFOCKACE"> F  </i>
   <i name="ENCUT4O">     -1.00000000</i>
   <i type="int" name="EXXOEP">     0</i>
   <i type="int" name="FOURORBIT">     0</i>
   <i name="AEXX">      0.00000000</i>
   <i name="HFALPHA">      0.00000000</i>
   <i name="MCALPHA">      0.00000000</i>
   <i name="ALDAX">      1.00000000</i>
   <i name="AGGAX">      1.00000000</i>
   <i name="AMGGAX">      1.00000000</i>
   <i name="ALDAC">      1.00000000</i>
   <i name="AGGAC">      1.00000000</i>
   <i name="AMGGAC">      1.00000000</i>
   <i type="int" name="NKREDX">     1</i>
   <i type="int" name="NKREDY">     1</i>
   <i type="int" name="NKREDZ">     1</i>
   <i type="logical" name="SHIFTRED"> F  </i>
   <i type="logical" name="ODDONLY"> F  </i>
   <i type="logical" name="EVENONLY"> F  </i>
   <i type="int" name="LMAXFOCK">     0</i>
   <i type="int" name="NMAXFOCKAE">     0</i>
   <i type="logical" name="LFOCKAEDFT"> F  </i>
   <i name="HFSCREEN">      0.00000000</i>
   <i name="HFSCREENC">      0.00000000</i>
   <i type="int" name="NBANDSGWLOW">     0</i>
  </separator>
  <separator name="vdW DFT" >
   <i type="logical" name="LUSE_VDW"> F  </i>
   <i type="int" name="IVDW_NL">    -1</i>
   <i type="logical" name="LSPIN_VDW"> F  </i>
   <i name="ZAB_VDW">     -0.84910000</i>
   <i name="GAMMA_VDW">      1.39626340</i>
   <i name="ALPHA_VDW">      0.00000000</i>
   <i name="PARAM1">      0.12340000</i>
   <i name="PARAM2">      1.00000000</i>
   <i name="BPARAM">      6.30000000</i>
   <i name="CPARAM">      0.00930000</i>
  </separator>
  <separator name="model GW" >
   <i type="int" name="MODEL_GW">     0</i>
   <i name="MODEL_EPS0">     14.00428893</i>
   <i name="MODEL_ALPHA">      1.00000000</i>
  </separator>
  <separator name="linear response parameters" >
   <i type="logical" name="LEPSILON"> F  </i>
   <i type="logical" name="LRPA"> F  </i>
   <i type="logical" name="LNABLA"> F  </i>
   <i type="logical" name="LVEL"> F  </i>
   <i name="CSHIFT">      0.10000000</i>
   <i name="OMEGAMAX">     -1.00000000</i>
   <i name="DEG_THRESHOLD">      0.00200000</i>
   <i name="RTIME">     -0.10000000</i>
   <i name="WPLASMAI">      0.00000000</i>
   <v name="DFIELD">      0.00000000      0.00000000      0.00000000</v>
   <v name="WPLASMA">      0.00000000      0.00000000      0.00000000      0.00000000      0.00000000      0.00000000      0.00000000      0.00000000      0.00000000</v>
  </separator>
  <separator name="orbital magnetization" >
   <i type="logical" name="NUCIND"> F  </i>
   <v name="MAGPOS">      0.00000000      0.00000000      0.00000000</v>
   <i type="logical" name="LNICSALL"> T  </i>
   <i type="logical" name="ORBITALMAG"> F  </i>
   <i type="logical" name="LMAGBLOCH"> F  </i>
   <i type="logical" name="LCHIMAG"> F  </i>
   <i type="logical" name="LGAUGE"> T  </i>
   <i type="int" name="MAGATOM">     0</i>
   <v name="MAGDIPOL">      0.00000000      0.00000000      0.00000000</v>
   <v name="AVECCONST">      0.00000000      0.00000000      0.00000000</v>
  </separator>
  <separator name="response functions" >
   <i type="logical" name="LALL_IN_ONE"> F  </i>
   <i type="int" name="IALL_IN_ONE">    -1</i>
   <i type="int" name="NBANDS_WAVE">    -1</i>
   <i type="logical" name="LFINITE_TEMPERATURE"> F  </i>
   <i type="logical" name="LADDER"> F  </i>
   <i type="logical" name="LRPAFORCE"> F  </i>
   <i type="logical" name="LFXC"> F  </i>
   <i type="logical" name="LHARTREE"> T  </i>
   <i type="int" name="IBSE">     0</i>
   <v type="int" name="KPOINT">    -1     0     0     0</v>
   <i type="logical" name="LTCTC"> F  </i>
   <i type="logical" name="LTCTE"> F  </i>
   <i type="logical" name="LTETE"> F  </i>
   <i type="logical" name="LTRIPLET"> F  </i>
   <i type="logical" name="LFXCEPS"> F  </i>
   <i type="logical" name="LFXHEG"> F  </i>
   <i type="int" name="NATURALO">     2</i>
   <i type="logical" name="LHOLEGF"> F  </i>
   <i type="logical" name="L2ORDER"> F  </i>
   <i type="logical" name="LDMP1"> F  </i>
   <i type="logical" name="LMP2LT"> F  </i>
   <i type="logical" name="LSMP2LT"> F  </i>
   <i type="logical" name="LGWLF"> F  </i>
   <i name="ENCUTGW">     -1.60000002</i>
   <i name="ENCUTGWSOFT">     -1.60000002</i>
   <i name="ENCUTLF">     -1.00000000</i>
   <i type="logical" name="ESF_SPLINES"> F  </i>
   <i name="ESF_CONV">      0.01000000</i>
   <i type="int" name="ESF_NINTER">    15</i>
   <i type="int" name="LMAXMP2">    -1</i>
   <i name="SCISSOR">      0.00000000</i>
   <i type="int" name="NOMEGA">     0</i>
   <i type="int" name="NOMEGAR">     0</i>
   <i type="int" name="NBANDSGW">    -1</i>
   <i type="int" name="NBANDSO">    -1</i>
   <i type="int" name="NBANDSV">    -1</i>
   <i type="int" name="NELMGW">     1</i>
   <i type="int" name="NELMHF">     1</i>
   <i type="int" name="DIM">     3</i>
   <i type="int" name="IESPILON">     4</i>
   <i type="int" name="ANTIRES">     0</i>
   <i name="OMEGAMAX">    -30.00000000</i>
   <i name="OMEGAMIN">    -30.00000000</i>
   <i name="OMEGATL">   -200.00000000</i>
   <i type="int" name="OMEGAGRID">     0</i>
   <i name="CSHIFT">     -0.10000000</i>
   <i type="logical" name="LSELFENERGY"> F  </i>
   <i type="logical" name="LSPECTRAL"> F  </i>
   <i type="logical" name="LSPECTRALGW"> F  </i>
   <i type="logical" name="LSINGLES"> F  </i>
   <i type="logical" name="LFERMIGW"> F  </i>
   <i type="logical" name="ODDONLYGW"> F  </i>
   <i type="logical" name="EVENONLYGW"> F  </i>
   <i type="int" name="NKREDLFX">     1</i>
   <i type="int" name="NKREDLFY">     1</i>
   <i type="int" name="NKREDLFZ">     1</i>
   <i type="int" name="MAXMEM">  2800</i>
   <i type="int" name="TELESCOPE">     0</i>
   <i type="int" name="NTAUPAR">    -1</i>
   <i type="int" name="NOMEGAPAR">    -1</i>
   <i name="DAMP_NEWTON">      0.80000001</i>
   <i name="LAMBDA">      1.00000000</i>
  </separator>
  <separator name="External order field" >
   <i name="OFIELD_KAPPA">      0.00000000</i>
   <v name="OFIELD_K">      0.00000000      0.00000000      0.00000000</v>
   <i name="OFIELD_Q6_NEAR">      0.00000000</i>
   <i name="OFIELD_Q6_FAR">      0.00000000</i>
   <i name="OFIELD_A">      0.00000000</i>
  </separator>
  <separator name="optional k-points parameters" >
   <i type="int" name="KPOINTS_OPT_MODE">     1</i>
   <i type="logical" name="LKPOINTS_OPT"> F  </i>
  </separator>
 </parameters>
 <atominfo>
  <atoms>       8 </atoms>
  <types>       2 </types>
  <array name="atoms" >
   <dimension dim="1">ion</dimension>
   <field type="string">element</field>
   <field type="int">atomtype</field>
   <set>
    <rc><c>As</c><c>   1</c></rc>
    <rc><c>As</c><c>   1</c></rc>
    <rc><c>As</c><c>   1</c></rc>
    <rc><c>As</c><c>   1</c></rc>
    <rc><c>Ga</c><c>   2</c></rc>
    <rc><c>Ga</c><c>   2</c></rc>
    <rc><c>Ga</c><c>   2</c></rc>
    <rc><c>Ga</c><c>   2</c></rc>
   </set>
  </array>
  <array name="atomtypes" >
   <dimension dim="1">type</dimension>
   <field type="int">atomspertype</field>
   <field type="string">element</field>
   <field>mass</field>
   <field>valence</field>
   <field type="string">pseudopotential</field>
   <set>
    <rc><c>   4</c><c>As</c><c>     74.92200000</c><c>      5.00000000</c><c>  PAW_PBE As 22Sep2009                  </c></rc>
    <rc><c>   4</c><c>Ga</c><c>     69.72300000</c><c>      3.00000000</c><c>  PAW_PBE Ga 08Apr2002                  </c></rc>
   </set>
  </array>
 </atominfo>
 <structure name="initialpos" >
  <crystal>
   <varray name="basis" >
    <v>       5.71566280       0.00000000       0.00000000 </v>
    <v>       0.00000000       5.71566280       0.00000000 </v>
    <v>       0.00000000       0.00000000       5.71566280 </v>
   </varray>
   <i name="volume">    186.72385246 </i>
   <varray name="rec_basis" >
    <v>       0.17495784       0.00000000       0.00000000 </v>
    <v>       0.00000000       0.17495784       0.00000000 </v>
    <v>       0.00000000       0.00000000       0.17495784 </v>
   </varray>
  </crystal>
  <varray name="positions" >
   <v>       0.00000000       0.00000000       0.00000000 </v>
   <v>       0.50000000       0.50000000       0.00000000 </v>
   <v>       0.50000000       0.00000000       0.50000000 </v>
   <v>       0.00000000       0.50000000       0.50000000 </v>
   <v>       0.25000000       0.25000000       0.25000000 </v>
   <v>       0.75000000       0.25000000       0.75000000 </v>
   <v>       0.75000000       0.75000000       0.25000000 </v>
   <v>       0.25000000       0.75000000       0.75000000 </v>
  </varray>
 </structure>
 <calculation>
  <scstep>
   <time name="dav">    0.33    0.34</time>
   <time name="total">    0.36    0.38</time>
   <energy>
    <i name="alphaZ">     73.28390152 </i>
    <i name="ewald">   -906.68281711 </i>
    <i name="hartreedc">    -70.45026065 </i>
    <i name="XCdc">   -121.01396942 </i>
    <i name="pawpsdc">   3146.99264006 </i>
    <i name="pawaedc">  -2967.57511107 </i>
    <i name="eentropy">      0.00000000 </i>
    <i name="bandstr">   -105.14954169 </i>
    <i name="atom">    916.21963040 </i>
    <i name="e_fr_energy">    -34.37552796 </i>
    <i name="e_wo_entrp">    -34.37552796 </i>
    <i name="e_0_energy">    -34.37552796 </i>
   </energy>
  </scstep>
  <scstep>
   <time name="dav">    0.30    0.31</time>
   <time name="total">    0.33    0.35</time>
   <energy>
    <i name="e_fr_energy">    -33.42404766 </i>
    <i name="e_wo_entrp">    -33.42404766 </i>
    <i name="e_0_energy">    -33.42404766 </i>
   </energy>
  </scstep>
  <scstep>
   <time name="dav">    0.31    0.32</time>
   <time name="total">    0.35    0.36</time>
   <energy>
    <i name="e_fr_energy">    -33.15232972 </i>
    <i name="e_wo_entrp">    -33.15232972 </i>
    <i name="e_0_energy">    -33.15232972 </i>
   </energy>
  </scstep>
  <scstep>
   <time name="dav">    0.30    0.31</time>
   <time name="total">    0.34    0.35</time>
   <energy>
    <i name="e_fr_energy">    -33.12085865 </i>
    <i name="e_wo_entrp">    -33.12085865 </i>
    <i name="e_0_energy">    -33.12085865 </i>
   </energy>
  </scstep>
  <scstep>
   <time name="dav">    0.31    0.32</time>
   <time name="total">    0.34    0.36</time>
   <energy>
    <i name="e_fr_energy">    -33.11956505 </i>
    <i name="e_wo_entrp">    -33.11956505 </i>
    <i name="e_0_energy">    -33.11956505 </i>
   </energy>
  </scstep>
  <scstep>
   <time name="dav">    0.28    0.29</time>
   <time name="total">    0.32    0.33</time>
   <energy>
    <i name="e_fr_energy">    -33.11973024 </i>
    <i name="e_wo_entrp">    -33.11973024 </i>
    <i name="e_0_energy">    -33.11973024 </i>
   </energy>
  </scstep>
  <scstep>
   <time name="dav">    0.25    0.26</time>
   <time name="total">    0.28    0.29</time>
   <energy>
    <i name="e_fr_energy">    -33.11985142 </i>
    <i name="e_wo_entrp">    -33.11985142 </i>
    <i name="e_0_energy">    -33.11985142 </i>
   </energy>
  </scstep>
  <scstep>
   <time name="dav">    0.20    0.21</time>
   <time name="total">    0.22    0.23</time>
   <energy>
    <i name="alphaZ">     73.28390152 </i>
    <i name="ewald">   -906.68281711 </i>
    <i name="hartreedc">    -86.99373323 </i>
    <i name="XCdc">   -121.46451904 </i>
    <i name="pawpsdc">   1907.69277049 </i>
    <i name="pawaedc">  -1728.72262805 </i>
    <i name="eentropy">      0.00000000 </i>
    <i name="bandstr">    -86.45245379 </i>
    <i name="atom">    916.21963040 </i>
    <i name="e_fr_energy">    -33.11984880 </i>
    <i name="e_wo_entrp">    -33.11984880 </i>
    <i name="e_0_energy">    -33.11984880 </i>
   </energy>
  </scstep>
  <structure>
   <crystal>
    <varray name="basis" >
     <v>       5.71566280       0.00000000       0.00000000 </v>
     <v>       0.00000000       5.71566280       0.00000000 </v>
     <v>       0.00000000       0.00000000       5.71566280 </v>
    </varray>
    <i name="volume">    186.72385246 </i>
    <varray name="rec_basis" >
     <v>       0.17495784       0.00000000       0.00000000 </v>
     <v>       0.00000000       0.17495784       0.00000000 </v>
     <v>       0.00000000       0.00000000       0.17495784 </v>
    </varray>
   </crystal>
   <varray name="positions" >
    <v>       0.00000000       0.00000000       0.00000000 </v>
    <v>       0.50000000       0.50000000       0.00000000 </v>
    <v>       0.50000000       0.00000000       0.50000000 </v>
    <v>       0.00000000       0.50000000       0.50000000 </v>
    <v>       0.25000000       0.25000000       0.25000000 </v>
    <v>       0.75000000       0.25000000       0.75000000 </v>
    <v>       0.75000000       0.75000000       0.25000000 </v>
    <v>       0.25000000       0.75000000       0.75000000 </v>
   </varray>
  </structure>
  <varray name="forces" >
   <v>       0.00000000      -0.00000000       0.00000000 </v>
   <v>       0.00000000      -0.00000000      -0.00000000 </v>
   <v>       0.00000000      -0.00000000      -0.00000000 </v>
   <v>       0.00000000      -0.00000000       0.00000000 </v>
   <v>      -0.00000000       0.00000000      -0.00000000 </v>
   <v>      -0.00000000       0.00000000       0.00000000 </v>
   <v>      -0.00000000      -0.00000000      -0.00000000 </v>
   <v>      -0.00000000       0.00000000      -0.00000000 </v>
  </varray>
  <varray name="stress" >
   <v>      16.03448522      -0.00000000      -0.00000000 </v>
   <v>      -0.00000000      16.03448522      -0.00000000 </v>
   <v>       0.00000000      -0.00000000      16.03448522 </v>
  </varray>
  <energy>
   <i name="e_fr_energy">    -33.11984880 </i>
   <i name="e_wo_entrp">    -33.11984880 </i>
   <i name="e_0_energy">    -33.11984880 </i>
  </energy>
  <time name="totalsc">    3.27    3.42</time>
  <eigenvalues>
   <array>
    <dimension dim="1">band</dimension>
    <dimension dim="2">kpoint</dimension>
    <dimension dim="3">spin</dimension>
    <field>eigene</field>
    <field>occ</field>
    <set>
     <set comment="spin 1">
      <set comment="kpoint 1">
       <r>   -9.9926    1.0000 </r>
       <r>   -7.7597    1.0000 </r>
       <r>   -7.7597    1.0000 </r>
       <r>   -7.7597    1.0000 </r>
       <r>   -4.1541    1.0000 </r>
       <r>   -4.1541    1.0000 </r>
       <r>   -4.1541    1.0000 </r>
       <r>   -0.0693    1.0000 </r>
       <r>   -0.0693    1.0000 </r>
       <r>   -0.0693    1.0000 </r>
       <r>   -0.0693    1.0000 </r>
       <r>   -0.0693    1.0000 </r>
       <r>   -0.0693    1.0000 </r>
       <r>    2.4811    1.0000 </r>
       <r>    2.4811    1.0000 </r>
       <r>    2.4811    1.0000 </r>
       <r>    2.8136    0.0000 </r>
       <r>    4.0138    0.0000 </r>
       <r>    4.0138    0.0000 </r>
       <r>    4.0138    0.0000 </r>
       <r>    4.1736    0.0000 </r>
       <r>    4.1736    0.0000 </r>
       <r>    4.1736    0.0000 </r>
       <r>    6.2360    0.0000 </r>
      </set>
      <set comment="kpoint 2">
       <r>   -9.8542    1.0000 </r>
       <r>   -8.1304    1.0000 </r>
       <r>   -7.7465    1.0000 </r>
       <r>   -7.7465    1.0000 </r>
       <r>   -4.0951    1.0000 </r>
       <r>   -4.0951    1.0000 </r>
       <r>   -3.5932    1.0000 </r>
       <r>   -0.3921    1.0000 </r>
       <r>   -0.3921    1.0000 </r>
       <r>   -0.3174    1.0000 </r>
       <r>   -0.3174    1.0000 </r>
       <r>    0.0878    1.0000 </r>
       <r>    0.0878    1.0000 </r>
       <r>    0.8863    1.0000 </r>
       <r>    2.0509    1.0000 </r>
       <r>    2.0509    1.0000 </r>
       <r>    3.9661    0.0000 </r>
       <r>    4.3491    0.0000 </r>
       <r>    4.6198    0.0000 </r>
       <r>    4.7208    0.0000 </r>
       <r>    4.7208    0.0000 </r>
       <r>    4.8880    0.0000 </r>
       <r>    4.8880    0.0000 </r>
       <r>    5.7748    0.0000 </r>
      </set>
      <set comment="kpoint 3">
       <r>   -9.4509    1.0000 </r>
       <r>   -8.8296    1.0000 </r>
       <r>   -7.7249    1.0000 </r>
       <r>   -7.7249    1.0000 </r>
       <r>   -3.9888    1.0000 </r>
       <r>   -3.9888    1.0000 </r>
       <r>   -2.3314    1.0000 </r>
       <r>   -0.8358    1.0000 </r>
       <r>   -0.8358    1.0000 </r>
       <r>   -0.7889    1.0000 </r>
       <r>   -0.6439    1.0000 </r>
       <r>   -0.6439    1.0000 </r>
       <r>    0.5457    1.0000 </r>
       <r>    0.5457    1.0000 </r>
       <r>    1.2515    1.0000 </r>
       <r>    1.2515    1.0000 </r>
       <r>    4.2421    0.0000 </r>
       <r>    4.8165    0.0000 </r>
       <r>    5.3955    0.0000 </r>
       <r>    5.6797    0.0000 </r>
       <r>    6.3993    0.0000 </r>
       <r>    6.3993    0.0000 </r>
       <r>    6.4592    0.0000 </r>
       <r>    6.4592    0.0000 </r>
      </set>
      <set comment="kpoint 4">
       <r>   -9.7197    1.0000 </r>
       <r>   -8.0812    1.0000 </r>
       <r>   -8.0812    1.0000 </r>
       <r>   -7.7671    1.0000 </r>
       <r>   -4.0350    1.0000 </r>
       <r>   -3.6264    1.0000 </r>
       <r>   -3.6264    1.0000 </r>
       <r>   -1.0020    1.0000 </r>
       <r>   -0.3155    1.0000 </r>
       <r>   -0.3155    1.0000 </r>
       <r>   -0.0169    1.0000 </r>
       <r>   -0.0130    1.0000 </r>
       <r>   -0.0130    1.0000 </r>
       <r>    0.1906    1.0000 </r>
       <r>    1.5904    1.0000 </r>
       <r>    2.3185    1.0000 </r>
       <r>    4.3433    0.0000 </r>
       <r>    4.4307    0.0000 </r>
       <r>    4.7315    0.0000 </r>
       <r>    4.7315    0.0000 </r>
       <r>    5.2316    0.0000 </r>
       <r>    5.2316    0.0000 </r>
       <r>    6.2175    0.0000 </r>
       <r>    6.3812    0.0000 </r>
      </set>
      <set comment="kpoint 5">
       <r>   -9.3293    1.0000 </r>
       <r>   -8.7346    1.0000 </r>
       <r>   -7.9619    1.0000 </r>
       <r>   -7.8396    1.0000 </r>
       <r>   -3.8903    1.0000 </r>
       <r>   -3.7332    1.0000 </r>
       <r>   -2.5775    1.0000 </r>
       <r>   -1.3249    1.0000 </r>
       <r>   -1.2400    1.0000 </r>
       <r>   -0.9473    1.0000 </r>
       <r>   -0.0483    1.0000 </r>
       <r>    0.0833    1.0000 </r>
       <r>    0.1477    1.0000 </r>
       <r>    0.6864    1.0000 </r>
       <r>    0.7704    1.0000 </r>
       <r>    1.6250    1.0000 </r>
       <r>    5.0175    0.0000 </r>
       <r>    5.2283    0.0000 </r>
       <r>    5.2672    0.0000 </r>
       <r>    5.7874    0.0000 </r>
       <r>    5.8289    0.0000 </r>
       <r>    6.3120    0.0000 </r>
       <r>    6.6387    0.0000 </r>
       <r>    7.6182    0.0000 </r>
      </set>
      <set comment="kpoint 6">
       <r>   -8.9822    1.0000 </r>
       <r>   -8.4752    1.0000 </r>
       <r>   -8.4752    1.0000 </r>
       <r>   -8.1328    1.0000 </r>
       <r>   -3.5853    1.0000 </r>
       <r>   -3.0982    1.0000 </r>
       <r>   -3.0982    1.0000 </r>
       <r>   -2.2485    1.0000 </r>
       <r>   -1.1909    1.0000 </r>
       <r>   -0.6789    1.0000 </r>
       <r>   -0.6789    1.0000 </r>
       <r>   -0.0480    1.0000 </r>
       <r>    0.8881    1.0000 </r>
       <r>    0.9496    1.0000 </r>
       <r>    0.9496    1.0000 </r>
       <r>    1.7401    1.0000 </r>
       <r>    4.9510    0.0000 </r>
       <r>    5.1299    0.0000 </r>
       <r>    5.6909    0.0000 </r>
       <r>    5.6909    0.0000 </r>
       <r>    6.9013    0.0000 </r>
       <r>    6.9013    0.0000 </r>
       <r>    7.3699    0.0000 </r>
       <r>    7.4216    0.0000 </r>
      </set>
      <set comment="kpoint 7">
       <r>   -9.5898    1.0000 </r>
       <r>   -8.0583    1.0000 </r>
       <r>   -8.0583    1.0000 </r>
       <r>   -8.0583    1.0000 </r>
       <r>   -3.6893    1.0000 </r>
       <r>   -3.6893    1.0000 </r>
       <r>   -3.6893    1.0000 </r>
       <r>   -0.7792    1.0000 </r>
       <r>   -0.6960    1.0000 </r>
       <r>   -0.6960    1.0000 </r>
       <r>   -0.6960    1.0000 </r>
       <r>    0.3341    1.0000 </r>
       <r>    0.3341    1.0000 </r>
       <r>    0.3341    1.0000 </r>
       <r>    2.0063    1.0000 </r>
       <r>    2.0063    1.0000 </r>
       <r>    3.9859    0.0000 </r>
       <r>    4.5052    0.0000 </r>
       <r>    4.5052    0.0000 </r>
       <r>    4.5052    0.0000 </r>
       <r>    6.3667    0.0000 </r>
       <r>    6.3667    0.0000 </r>
       <r>    6.3667    0.0000 </r>
       <r>    6.9063    0.0000 </r>
      </set>
      <set comment="kpoint 8">
       <r>   -9.2153    1.0000 </r>
       <r>   -8.6542    1.0000 </r>
       <r>   -8.0201    1.0000 </r>
       <r>   -8.0201    1.0000 </r>
       <r>   -3.8003    1.0000 </r>
       <r>   -3.8003    1.0000 </r>
       <r>   -2.8970    1.0000 </r>
       <r>   -1.8970    1.0000 </r>
       <r>   -0.8870    1.0000 </r>
       <r>   -0.8870    1.0000 </r>
       <r>    0.1518    1.0000 </r>
       <r>    0.3674    1.0000 </r>
       <r>    0.3674    1.0000 </r>
       <r>    0.7464    1.0000 </r>
       <r>    1.3000    1.0000 </r>
       <r>    1.3605    1.0000 </r>
       <r>    4.6024    0.0000 </r>
       <r>    4.8611    0.0000 </r>
       <r>    5.3460    0.0000 </r>
       <r>    5.3460    0.0000 </r>
       <r>    6.4558    0.0000 </r>
       <r>    6.5280    0.0000 </r>
       <r>    7.2112    0.0000 </r>
       <r>    7.2112    0.0000 </r>
      </set>
      <set comment="kpoint 9">
       <r>   -8.8951    1.0000 </r>
       <r>   -8.4445    1.0000 </r>
       <r>   -8.4445    1.0000 </r>
       <r>   -8.1967    1.0000 </r>
       <r>   -3.7770    1.0000 </r>
       <r>   -3.4424    1.0000 </r>
       <r>   -3.4424    1.0000 </r>
       <r>   -2.7719    1.0000 </r>
       <r>   -0.5893    1.0000 </r>
       <r>   -0.1348    1.0000 </r>
       <r>   -0.1348    1.0000 </r>
       <r>    0.6529    1.0000 </r>
       <r>    0.9743    1.0000 </r>
       <r>    1.0140    1.0000 </r>
       <r>    1.0140    1.0000 </r>
       <r>    1.6711    1.0000 </r>
       <r>    4.3876    0.0000 </r>
       <r>    4.8970    0.0000 </r>
       <r>    5.0938    0.0000 </r>
       <r>    5.0938    0.0000 </r>
       <r>    6.7091    0.0000 </r>
       <r>    6.7091    0.0000 </r>
       <r>    7.2154    0.0000 </r>
       <r>    7.2380    0.0000 </r>
      </set>
      <set comment="kpoint 10">
       <r>   -8.6662    1.0000 </r>
       <r>   -8.3925    1.0000 </r>
       <r>   -8.3925    1.0000 </r>
       <r>   -8.3925    1.0000 </r>
       <r>   -3.8567    1.0000 </r>
       <r>   -3.8567    1.0000 </r>
       <r>   -3.8567    1.0000 </r>
       <r>   -3.4896    1.0000 </r>
       <r>    0.6379    1.0000 </r>
       <r>    0.6379    1.0000 </r>
       <r>    0.6379    1.0000 </r>
       <r>    1.2000    1.0000 </r>
       <r>    1.2000    1.0000 </r>
       <r>    1.2000    1.0000 </r>
       <r>    1.4708    1.0000 </r>
       <r>    1.4708    1.0000 </r>
       <r>    3.5083    0.0000 </r>
       <r>    4.2348    0.0000 </r>
       <r>    4.2348    0.0000 </r>
       <r>    4.2348    0.0000 </r>
       <r>    6.8743    0.0000 </r>
       <r>    6.8743    0.0000 </r>
       <r>    6.8743    0.0000 </r>
       <r>    7.1631    0.0000 </r>
      </set>
     </set>
    </set>
   </array>
  </eigenvalues>
  <separator name="orbital magnetization" >
   <v name="MAGDIPOLOUT">      0.00000000      0.00000000      0.00000000</v>
  </separator>
  <dielectricfunction comment="density-density">
   <imag>
    <array>
     <dimension dim="1">gridpoints</dimension>
     <field>energy</field>
     <field>xx</field>
     <field>yy</field>
     <field>zz</field>
     <field>xy</field>
     <field>yz</field>
     <field>zx</field>
     <set>
      <r>     0.0000     0.0000     0.0000     0.0000     0.0000     0.0000     0.0000 </r>
      <r>     0.0212     0.0252     0.0252     0.0252    -0.0000    -0.0000     0.0000 </r>
      <r>     0.0423     0.0506     0.0506     0.0506    -0.0000    -0.0000     0.0000 </r>
      <r>     0.0635     0.0762     0.0762     0.0762    -0.0000    -0.0000     0.0000 </r>
      <r>     0.0846     0.1021     0.1021     0.1021    -0.0000    -0.0000     0.0000 </r>
      <r>     0.1058     0.1285     0.1285     0.1285    -0.0000    -0.0000     0.0000 </r>
      <r>     0.1269     0.1554     0.1554     0.1554    -0.0000    -0.0000     0.0000 </r>
      <r>     0.1481     0.1831     0.1831     0.1831    -0.0000    -0.0000     0.0000 </r>
      <r>     0.1692     0.2117     0.2117     0.2117    -0.0000    -0.0000     0.0000 </r>
      <r>     0.1904     0.2414     0.2414     0.2414    -0.0000    -0.0000     0.0000 </r>
      <r>     0.2115     0.2725     0.2725     0.2725    -0.0000    -0.0000     0.0000 </r>
      <r>     0.2327     0.3051     0.3051     0.3051    -0.0000    -0.0000     0.0000 </r>
      <r>     0.2538     0.3398     0.3398     0.3398    -0.0000    -0.0000     0.0000 </r>
      <r>     0.2750     0.3768     0.3768     0.3768    -0.0000    -0.0000     0.0000 </r>
      <r>     0.2962     0.4166     0.4166     0.4166    -0.0000    -0.0000     0.0000 </r>
      <r>     0.3173     0.4599     0.4599     0.4599    -0.0000    -0.0000     0.0000 </r>
      <r>     0.3385     0.5074     0.5074     0.5074    -0.0000    -0.0000     0.0000 </r>
      <r>     0.3596     0.5597     0.5597     0.5597    -0.0000    -0.0000     0.0000 </r>
      <r>     0.3808     0.6176     0.6176     0.6176    -0.0000    -0.0000     0.0000 </r>
      <r>     0.4019     0.6817     0.6817     0.6817    -0.0000    -0.0000     0.0000 </r>
      <r>     0.4231     0.7525     0.7525     0.7525    -0.0000    -0.0000     0.0000 </r>
      <r>     0.4442     0.8304     0.8304     0.8304    -0.0000    -0.0000     0.0000 </r>
      <r>     0.4654     0.9159     0.9159     0.9159    -0.0000    -0.0000     0.0000 </r>
      <r>     0.4865     1.0092     1.0092     1.0092    -0.0000    -0.0000     0.0000 </r>
      <r>     0.5077     1.1105     1.1105     1.1105    -0.0000    -0.0000     0.0000 </r>
      <r>     0.5289     1.2200     1.2200     1.2200    -0.0000    -0.0000     0.0000 </r>
      <r>     0.5500     1.3379     1.3379     1.3379    -0.0000    -0.0000     0.0000 </r>
      <r>     0.5712     1.4643     1.4643     1.4643    -0.0000    -0.0000    -0.0000 </r>
      <r>     0.5923     1.5993     1.5993     1.5993    -0.0000    -0.0000    -0.0000 </r>
      <r>     0.6135     1.7431     1.7431     1.7431    -0.0000    -0.0000    -0.0000 </r>
      <r>     0.6346     1.8956     1.8956     1.8956    -0.0000    -0.0000    -0.0000 </r>
      <r>     0.6558     2.0569     2.0569     2.0569    -0.0000    -0.0000    -0.0000 </r>
      <r>     0.6769     2.2271     2.2271     2.2271    -0.0000    -0.0000    -0.0000 </r>
      <r>     0.6981     2.4062     2.4062     2.4062    -0.0000    -0.0000     0.0000 </r>
      <r>     0.7192     2.5943     2.5943     2.5943    -0.0000    -0.0000     0.0000 </r>
      <r>     0.7404     2.7914     2.7914     2.7914    -0.0000    -0.0000     0.0000 </r>
      <r>     0.7615     2.9975     2.9975     2.9975    -0.0000    -0.0000     0.0000 </r>
      <r>     0.7827     3.2126     3.2126     3.2126    -0.0000    -0.0000     0.0000 </r>
      <r>     0.8039     3.4368     3.4368     3.4368    -0.0000    -0.0000     0.0000 </r>
      <r>     0.8250     3.6699     3.6699     3.6699    -0.0000    -0.0000     0.0000 </r>
      <r>     0.8462     3.9121     3.9121     3.9121    -0.0000    -0.0000     0.0000 </r>
      <r>     0.8673     4.1634     4.1634     4.1634    -0.0000    -0.0000     0.0000 </r>
      <r>     0.8885     4.4237     4.4237     4.4237    -0.0000    -0.0000     0.0000 </r>
      <r>     0.9096     4.6929     4.6929     4.6929    -0.0000     0.0000     0.0000 </r>
      <r>     0.9308     4.9712     4.9712     4.9712    -0.0000     0.0000    -0.0000 </r>
      <r>     0.9519     5.2585     5.2585     5.2585    -0.0000     0.0000    -0.0000 </r>
      <r>     0.9731     5.5547     5.5547     5.5547    -0.0000     0.0000    -0.0000 </r>
      <r>     0.9942     5.8598     5.8598     5.8598    -0.0000     0.0000    -0.0000 </r>
      <r>     1.0154     6.1737     6.1737     6.1737    -0.0000     0.0000    -0.0000 </r>
      <r>     1.0366     6.4966     6.4966     6.4966    -0.0000     0.0000    -0.0000 </r>
      <r>     1.0577     6.8282     6.8282     6.8282    -0.0000     0.0000     0.0000 </r>
      <r>     1.0789     7.1685     7.1685     7.1685    -0.0000     0.0000     0.0000 </r>
      <r>     1.1000     7.5176     7.5176     7.5176    -0.0000    -0.0000     0.0000 </r>
      <r>     1.1212     7.8752     7.8752     7.8752    -0.0000    -0.0000     0.0000 </r>
      <r>     1.1423     8.2414     8.2414     8.2414    -0.0000    -0.0000     0.0000 </r>
      <r>     1.1635     8.6161     8.6161     8.6161    -0.0000    -0.0000     0.0000 </r>
      <r>     1.1846     8.9991     8.9991     8.9991    -0.0000     0.0000     0.0000 </r>
      <r>     1.2058     9.3904     9.3904     9.3904    -0.0000     0.0000     0.0000 </r>
      <r>     1.2269     9.7899     9.7899     9.7899    -0.0000     0.0000     0.0000 </r>
      <r>     1.2481    10.1974    10.1974    10.1974    -0.0000     0.0000     0.0000 </r>
      <r>     1.2692    10.6129    10.6129    10.6129    -0.0000     0.0000     0.0000 </r>
      <r>     1.2904    11.0361    11.0361    11.0361    -0.0000     0.0000     0.0000 </r>
      <r>     1.3116    11.4669    11.4669    11.4669    -0.0000     0.0000     0.0000 </r>
      <r>     1.3327    11.9052    11.9052    11.9052    -0.0000     0.0000     0.0000 </r>
      <r>     1.3539    12.3507    12.3507    12.3507    -0.0000     0.0000     0.0000 </r>
      <r>     1.3750    12.8031    12.8031    12.8031    -0.0000     0.0000     0.0000 </r>
      <r>     1.3962    13.2624    13.2624    13.2624    -0.0000     0.0000     0.0000 </r>
      <r>     1.4173    13.7280    13.7280    13.7280    -0.0000     0.0000     0.0000 </r>
      <r>     1.4385    14.1998    14.1998    14.1998    -0.0000     0.0000     0.0000 </r>
      <r>     1.4596    14.6774    14.6774    14.6774    -0.0000     0.0000     0.0000 </r>
      <r>     1.4808    15.1604    15.1604    15.1604    -0.0000    -0.0000     0.0000 </r>
      <r>     1.5019    15.6483    15.6483    15.6483    -0.0000    -0.0000     0.0000 </r>
      <r>     1.5231    16.1407    16.1407    16.1407    -0.0000    -0.0000     0.0000 </r>
      <r>     1.5442    16.6368    16.6368    16.6368    -0.0000    -0.0000     0.0000 </r>
      <r>     1.5654    17.1359    17.1359    17.1359    -0.0000    -0.0000     0.0000 </r>
      <r>     1.5866    17.6371    17.6371    17.6371    -0.0000    -0.0000     0.0000 </r>
      <r>     1.6077    18.1391    18.1391    18.1391    -0.0000    -0.0000     0.0000 </r>
      <r>     1.6289    18.6404    18.6404    18.6404    -0.0000    -0.0000     0.0000 </r>
      <r>     1.6500    19.1390    19.1390    19.1390    -0.0000    -0.0000    -0.0000 </r>
      <r>     1.6712    19.6327    19.6327    19.6327    -0.0000    -0.0000    -0.0000 </r>
      <r>     1.6923    20.1181    20.1181    20.1181    -0.0000    -0.0000    -0.0000 </r>
      <r>     1.7135    20.5916    20.5916    20.5916    -0.0000    -0.0000    -0.0000 </r>
      <r>     1.7346    21.0480    21.0480    21.0480    -0.0000    -0.0000    -0.0000 </r>
      <r>     1.7558    21.4808    21.4808    21.4808    -0.0000    -0.0000    -0.0000 </r>
      <r>     1.7769    21.8818    21.8818    21.8818    -0.0000     0.0000    -0.0000 </r>
      <r>     1.7981    22.2398    22.2398    22.2398    -0.0000     0.0000    -0.0000 </r>
      <r>     1.8193    22.5408    22.5408    22.5408    -0.0000     0.0000     0.0000 </r>
      <r>     1.8404    22.7671    22.7671    22.7671    -0.0000     0.0000     0.0000 </r>
      <r>     1.8616    22.8978    22.8978    22.8978    -0.0000     0.0000     0.0000 </r>
      <r>     1.8827    22.9121    22.9121    22.9121    -0.0000     0.0000     0.0000 </r>
      <r>     1.9039    22.7958    22.7958    22.7958    -0.0000    -0.0000     0.0000 </r>
      <r>     1.9250    22.5520    22.5520    22.5520    -0.0000    -0.0000     0.0000 </r>
      <r>     1.9462    22.2099    22.2099    22.2099    -0.0000    -0.0000     0.0000 </r>
      <r>     1.9673    21.8234    21.8234    21.8234    -0.0000    -0.0000     0.0000 </r>
      <r>     1.9885    21.4551    21.4551    21.4551    -0.0000     0.0000     0.0000 </r>
      <r>     2.0096    21.1487    21.1487    21.1487    -0.0000     0.0000     0.0000 </r>
      <r>     2.0308    20.9022    20.9022    20.9022    -0.0000     0.0000     0.0000 </r>
      <r>     2.0519    20.6705    20.6705    20.6705    -0.0000     0.0000     0.0000 </r>
      <r>     2.0731    20.4171    20.4171    20.4171    -0.0000     0.0000     0.0000 </r>
      <r>     2.0943    20.1577    20.1577    20.1577    -0.0000     0.0000     0.0000 </r>
      <r>     2.1154    19.9378    19.9378    19.9378    -0.0000     0.0000     0.0000 </r>
      <r>     2.1366    19.7840    19.7840    19.7840    -0.0000     0.0000     0.0000 </r>
      <r>     2.1577    19.6894    19.6894    19.6894    -0.0000     0.0000     0.0000 </r>
      <r>     2.1789    19.6270    19.6270    19.6270    -0.0000    -0.0000     0.0000 </r>
      <r>     2.2000    19.5671    19.5671    19.5671    -0.0000    -0.0000     0.0000 </r>
      <r>     2.2212    19.4883    19.4883    19.4883    -0.0000    -0.0000     0.0000 </r>
      <r>     2.2423    19.3813    19.3813    19.3813    -0.0000    -0.0000     0.0000 </r>
      <r>     2.2635    19.2490    19.2490    19.2490    -0.0000    -0.0000     0.0000 </r>
      <r>     2.2846    19.1039    19.1039    19.1039    -0.0000     0.0000     0.0000 </r>
      <r>     2.3058    18.9623    18.9623    18.9623    -0.0000     0.0000     0.0000 </r>
      <r>     2.3269    18.8388    18.8388    18.8388    -0.0000     0.0000     0.0000 </r>
      <r>     2.3481    18.7424    18.7424    18.7424    -0.0000     0.0000     0.0000 </r>
      <r>     2.3693    18.6764    18.6764    18.6764    -0.0000    -0.0000     0.0000 </r>
      <r>     2.3904    18.6404    18.6404    18.6404    -0.0000    -0.0000     0.0000 </r>
      <r>     2.4116    18.6327    18.6327    18.6327    -0.0000    -0.0000     0.0000 </r>
      <r>     2.4327    18.6508    18.6508    18.6508    -0.0000    -0.0000     0.0000 </r>
      <r>     2.4539    18.6923    18.6923    18.6923    -0.0000    -0.0000     0.0000 </r>
      <r>     2.4750    18.7547    18.7547    18.7547    -0.0000     0.0000     0.0000 </r>
      <r>     2.4962    18.8354    18.8354    18.8354    -0.0000     0.0000     0.0000 </r>
      <r>     2.5173    18.9319    18.9319    18.9319     0.0000     0.0000     0.0000 </r>
      <r>     2.5385    19.0417    19.0417    19.0417     0.0000     0.0000     0.0000 </r>
      <r>     2.5596    19.1625    19.1625    19.1625     0.0000     0.0000     0.0000 </r>
      <r>     2.5808    19.2921    19.2921    19.2921     0.0000     0.0000     0.0000 </r>
      <r>     2.6020    19.4287    19.4287    19.4287     0.0000     0.0000     0.0000 </r>
      <r>     2.6231    19.5706    19.5706    19.5706     0.0000     0.0000     0.0000 </r>
      <r>     2.6443    19.7162    19.7162    19.7162     0.0000     0.0000     0.0000 </r>
      <r>     2.6654    19.8640    19.8640    19.8640     0.0000    -0.0000     0.0000 </r>
      <r>     2.6866    20.0129    20.0129    20.0129    -0.0000    -0.0000     0.0000 </r>
      <r>     2.7077    20.1624    20.1624    20.1624    -0.0000    -0.0000     0.0000 </r>
      <r>     2.7289    20.3128    20.3128    20.3128    -0.0000    -0.0000     0.0000 </r>
      <r>     2.7500    20.4650    20.4650    20.4650    -0.0000    -0.0000     0.0000 </r>
      <r>     2.7712    20.6199    20.6199    20.6199    -0.0000    -0.0000     0.0000 </r>
      <r>     2.7923    20.7780    20.7780    20.7780    -0.0000    -0.0000     0.0000 </r>
      <r>     2.8135    20.9400    20.9400    20.9400    -0.0000    -0.0000     0.0000 </r>
      <r>     2.8346    21.1075    21.1075    21.1075    -0.0000    -0.0000     0.0000 </r>
      <r>     2.8558    21.2823    21.2823    21.2823    -0.0000    -0.0000     0.0000 </r>
      <r>     2.8770    21.4675    21.4675    21.4675    -0.0000    -0.0000     0.0000 </r>
      <r>     2.8981    21.6670    21.6670    21.6670    -0.0000    -0.0000     0.0000 </r>
      <r>     2.9193    21.8859    21.8859    21.8859    -0.0000    -0.0000     0.0000 </r>
      <r>     2.9404    22.1304    22.1304    22.1304    -0.0000    -0.0000     0.0000 </r>
      <r>     2.9616    22.4053    22.4053    22.4053    -0.0000    -0.0000     0.0000 </r>
      <r>     2.9827    22.7098    22.7098    22.7098    -0.0000    -0.0000     0.0000 </r>
      <r>     3.0039    23.0275    23.0275    23.0275    -0.0000    -0.0000     0.0000 </r>
      <r>     3.0250    23.3183    23.3183    23.3183    -0.0000    -0.0000     0.0000 </r>
      <r>     3.0462    23.5271    23.5271    23.5271    -0.0000    -0.0000     0.0000 </r>
      <r>     3.0673    23.6196    23.6196    23.6196    -0.0000    -0.0000     0.0000 </r>
      <r>     3.0885    23.6086    23.6086    23.6086    -0.0000    -0.0000     0.0000 </r>
      <r>     3.1097    23.5358    23.5358    23.5358    -0.0000    -0.0000     0.0000 </r>
      <r>     3.1308    23.4384    23.4384    23.4384    -0.0000    -0.0000     0.0000 </r>
      <r>     3.1520    23.3367    23.3367    23.3367    -0.0000    -0.0000     0.0000 </r>
      <r>     3.1731    23.2382    23.2382    23.2382    -0.0000    -0.0000     0.0000 </r>
      <r>     3.1943    23.1436    23.1436    23.1436    -0.0000    -0.0000     0.0000 </r>
      <r>     3.2154    23.0488    23.0488    23.0488    -0.0000    -0.0000     0.0000 </r>
      <r>     3.2366    22.9449    22.9449    22.9449    -0.0000    -0.0000     0.0000 </r>
      <r>     3.2577    22.8193    22.8193    22.8193    -0.0000    -0.0000     0.0000 </r>
      <r>     3.2789    22.6600    22.6600    22.6600    -0.0000    -0.0000     0.0000 </r>
      <r>     3.3000    22.4578    22.4578    22.4578    -0.0000    -0.0000     0.0000 </r>
      <r>     3.3212    22.2064    22.2064    22.2064    -0.0000    -0.0000     0.0000 </r>
      <r>     3.3423    21.9030    21.9030    21.9030    -0.0000    -0.0000     0.0000 </r>
      <r>     3.3635    21.5524    21.5524    21.5524    -0.0000    -0.0000     0.0000 </r>
      <r>     3.3847    21.1715    21.1715    21.1715    -0.0000    -0.0000     0.0000 </r>
      <r>     3.4058    20.7888    20.7888    20.7888    -0.0000    -0.0000     0.0000 </r>
      <r>     3.4270    20.4335    20.4335    20.4335    -0.0000    -0.0000     0.0000 </r>
      <r>     3.4481    20.1231    20.1231    20.1231    -0.0000    -0.0000     0.0000 </r>
      <r>     3.4693    19.8584    19.8584    19.8584    -0.0000    -0.0000     0.0000 </r>
      <r>     3.4904    19.6269    19.6269    19.6269    -0.0000    -0.0000     0.0000 </r>
      <r>     3.5116    19.4068    19.4068    19.4068    -0.0000    -0.0000     0.0000 </r>
      <r>     3.5327    19.1697    19.1697    19.1697    -0.0000    -0.0000     0.0000 </r>
      <r>     3.5539    18.8843    18.8843    18.8843    -0.0000    -0.0000     0.0000 </r>
      <r>     3.5750    18.5264    18.5264    18.5264    -0.0000    -0.0000     0.0000 </r>
      <r>     3.5962    18.0954    18.0954    18.0954    -0.0000    -0.0000     0.0000 </r>
      <r>     3.6173    17.6264    17.6264    17.6264    -0.0000    -0.0000     0.0000 </r>
      <r>     3.6385    17.1801    17.1801    17.1801    -0.0000    -0.0000     0.0000 </r>
      <r>     3.6597    16.8145    16.8145    16.8145    -0.0000    -0.0000     0.0000 </r>
      <r>     3.6808    16.5624    16.5624    16.5624    -0.0000    -0.0000     0.0000 </r>
      <r>     3.7020    16.4300    16.4300    16.4300    -0.0000    -0.0000     0.0000 </r>
      <r>     3.7231    16.4061    16.4061    16.4061    -0.0000    -0.0000     0.0000 </r>
      <r>     3.7443    16.4711    16.4711    16.4711    -0.0000     0.0000     0.0000 </r>
      <r>     3.7654    16.6036    16.6036    16.6036    -0.0000     0.0000     0.0000 </r>
      <r>     3.7866    16.7865    16.7865    16.7865    -0.0000     0.0000     0.0000 </r>
      <r>     3.8077    17.0092    17.0092    17.0092    -0.0000     0.0000     0.0000 </r>
      <r>     3.8289    17.2669    17.2669    17.2669    -0.0000     0.0000     0.0000 </r>
      <r>     3.8500    17.5584    17.5584    17.5584    -0.0000     0.0000     0.0000 </r>
      <r>     3.8712    17.8835    17.8835    17.8835    -0.0000     0.0000     0.0000 </r>
      <r>     3.8924    18.2406    18.2406    18.2406    -0.0000     0.0000     0.0000 </r>
      <r>     3.9135    18.6243    18.6243    18.6243    -0.0000     0.0000     0.0000 </r>
      <r>     3.9347    19.0262    19.0262    19.0262    -0.0000     0.0000     0.0000 </r>
      <r>     3.9558    19.4365    19.4365    19.4365    -0.0000     0.0000     0.0000 </r>
      <r>     3.9770    19.8465    19.8465    19.8465    -0.0000     0.0000     0.0000 </r>
      <r>     3.9981    20.2490    20.2490    20.2490    -0.0000     0.0000     0.0000 </r>
      <r>     4.0193    20.6342    20.6342    20.6342    -0.0000     0.0000     0.0000 </r>
      <r>     4.0404    20.9858    20.9858    20.9858    -0.0000     0.0000     0.0000 </r>
      <r>     4.0616    21.2835    21.2835    21.2835    -0.0000     0.0000     0.0000 </r>
      <r>     4.0827    21.5132    21.5132    21.5132    -0.0000     0.0000     0.0000 </r>
      <r>     4.1039    21.6751    21.6751    21.6751    -0.0000     0.0000     0.0000 </r>
      <r>     4.1250    21.7784    21.7784    21.7784    -0.0000     0.0000     0.0000 </r>
      <r>     4.1462    21.8309    21.8309    21.8309    -0.0000     0.0000     0.0000 </r>
      <r>     4.1674    21.8347    21.8347    21.8347    -0.0000     0.0000     0.0000 </r>
      <r>     4.1885    21.7866    21.7866    21.7866    -0.0000     0.0000     0.0000 </r>
      <r>     4.2097    21.6812    21.6812    21.6812    -0.0000     0.0000     0.0000 </r>
      <r>     4.2308    21.5141    21.5141    21.5141    -0.0000     0.0000     0.0000 </r>
      <r>     4.2520    21.2858    21.2858    21.2858    -0.0000     0.0000     0.0000 </r>
      <r>     4.2731    21.0026    21.0026    21.0026    -0.0000     0.0000     0.0000 </r>
      <r>     4.2943    20.6764    20.6764    20.6764    -0.0000    -0.0000     0.0000 </r>
      <r>     4.3154    20.3223    20.3223    20.3223    -0.0000    -0.0000     0.0000 </r>
      <r>     4.3366    19.9569    19.9569    19.9569    -0.0000    -0.0000     0.0000 </r>
      <r>     4.3577    19.5951    19.5951    19.5951    -0.0000    -0.0000     0.0000 </r>
      <r>     4.3789    19.2470    19.2470    19.2470    -0.0000    -0.0000     0.0000 </r>
      <r>     4.4000    18.9179    18.9179    18.9179    -0.0000    -0.0000     0.0000 </r>
      <r>     4.4212    18.6102    18.6102    18.6102    -0.0000    -0.0000     0.0000 </r>
      <r>     4.4424    18.3251    18.3251    18.3251     0.0000    -0.0000     0.0000 </r>
      <r>     4.4635    18.0635    18.0635    18.0635     0.0000    -0.0000     0.0000 </r>
      <r>     4.4847    17.8259    17.8259    17.8259     0.0000    -0.0000     0.0000 </r>
      <r>     4.5058    17.6110    17.6110    17.6110     0.0000    -0.0000     0.0000 </r>
      <r>     4.5270    17.4159    17.4159    17.4159     0.0000    -0.0000     0.0000 </r>
      <r>     4.5481    17.2362    17.2362    17.2362     0.0000    -0.0000     0.0000 </r>
      <r>     4.5693    17.0662    17.0662    17.0662     0.0000    -0.0000     0.0000 </r>
      <r>     4.5904    16.8987    16.8987    16.8987     0.0000    -0.0000     0.0000 </r>
      <r>     4.6116    16.7261    16.7261    16.7261     0.0000    -0.0000     0.0000 </r>
      <r>     4.6327    16.5411    16.5411    16.5411    -0.0000    -0.0000     0.0000 </r>
      <r>     4.6539    16.3383    16.3383    16.3383    -0.0000    -0.0000     0.0000 </r>
      <r>     4.6751    16.1142    16.1142    16.1142    -0.0000    -0.0000     0.0000 </r>
      <r>     4.6962    15.8688    15.8688    15.8688    -0.0000    -0.0000     0.0000 </r>
      <r>     4.7174    15.6063    15.6063    15.6063    -0.0000    -0.0000     0.0000 </r>
      <r>     4.7385    15.3353    15.3353    15.3353    -0.0000    -0.0000     0.0000 </r>
      <r>     4.7597    15.0677    15.0677    15.0677    -0.0000    -0.0000    -0.0000 </r>
      <r>     4.7808    14.8150    14.8150    14.8150    -0.0000    -0.0000    -0.0000 </r>
      <r>     4.8020    14.5854    14.5854    14.5854    -0.0000    -0.0000    -0.0000 </r>
      <r>     4.8231    14.3829    14.3829    14.3829    -0.0000    -0.0000    -0.0000 </r>
      <r>     4.8443    14.2073    14.2073    14.2073    -0.0000    -0.0000    -0.0000 </r>
      <r>     4.8654    14.0547    14.0547    14.0547    -0.0000    -0.0000    -0.0000 </r>
      <r>     4.8866    13.9171    13.9171    13.9171    -0.0000    -0.0000    -0.0000 </r>
      <r>     4.9077    13.7827    13.7827    13.7827    -0.0000    -0.0000    -0.0000 </r>
      <r>     4.9289    13.6404    13.6404    13.6404    -0.0000    -0.0000    -0.0000 </r>
      <r>     4.9501    13.4842    13.4842    13.4842    -0.0000    -0.0000    -0.0000 </r>
      <r>     4.9712    13.3150    13.3150    13.3150    -0.0000    -0.0000    -0.0000 </r>
      <r>     4.9924    13.1346    13.1346    13.1346    -0.0000    -0.0000    -0.0000 </r>
      <r>     5.0135    12.9400    12.9400    12.9400     0.0000    -0.0000    -0.0000 </r>
      <r>     5.0347    12.7190    12.7190    12.7190     0.0000    -0.0000    -0.0000 </r>
      <r>     5.0558    12.4508    12.4508    12.4508     0.0000    -0.0000    -0.0000 </r>
      <r>     5.0770    12.1147    12.1147    12.1147     0.0000    -0.0000    -0.0000 </r>
      <r>     5.0981    11.7019    11.7019    11.7019     0.0000    -0.0000    -0.0000 </r>
      <r>     5.1193    11.2248    11.2248    11.2248     0.0000    -0.0000    -0.0000 </r>
      <r>     5.1404    10.7156    10.7156    10.7156     0.0000    -0.0000    -0.0000 </r>
      <r>     5.1616    10.2157    10.2157    10.2157     0.0000    -0.0000     0.0000 </r>
      <r>     5.1828     9.7596     9.7596     9.7596     0.0000    -0.0000     0.0000 </r>
      <r>     5.2039     9.3647     9.3647     9.3647     0.0000    -0.0000     0.0000 </r>
      <r>     5.2251     9.0334     9.0334     9.0334     0.0000    -0.0000     0.0000 </r>
      <r>     5.2462     8.7609     8.7609     8.7609     0.0000    -0.0000     0.0000 </r>
      <r>     5.2674     8.5417     8.5417     8.5417     0.0000    -0.0000     0.0000 </r>
      <r>     5.2885     8.3710     8.3710     8.3710     0.0000    -0.0000     0.0000 </r>
      <r>     5.3097     8.2442     8.2442     8.2442     0.0000    -0.0000     0.0000 </r>
      <r>     5.3308     8.1573     8.1573     8.1573     0.0000    -0.0000     0.0000 </r>
      <r>     5.3520     8.1071     8.1071     8.1071     0.0000    -0.0000     0.0000 </r>
      <r>     5.3731     8.0912     8.0912     8.0912     0.0000    -0.0000     0.0000 </r>
      <r>     5.3943     8.1078     8.1078     8.1078     0.0000    -0.0000     0.0000 </r>
      <r>     5.4154     8.1553     8.1553     8.1553     0.0000    -0.0000     0.0000 </r>
      <r>     5.4366     8.2320     8.2320     8.2320     0.0000    -0.0000     0.0000 </r>
      <r>     5.4578     8.3375     8.3375     8.3375     0.0000    -0.0000     0.0000 </r>
      <r>     5.4789     8.4728     8.4728     8.4728     0.0000    -0.0000     0.0000 </r>
      <r>     5.5001     8.6406     8.6406     8.6406     0.0000    -0.0000     0.0000 </r>
      <r>     5.5212     8.8436     8.8436     8.8436     0.0000    -0.0000     0.0000 </r>
      <r>     5.5424     9.0822     9.0822     9.0822     0.0000    -0.0000     0.0000 </r>
      <r>     5.5635     9.3502     9.3502     9.3502     0.0000    -0.0000     0.0000 </r>
      <r>     5.5847     9.6321     9.6321     9.6321     0.0000    -0.0000     0.0000 </r>
      <r>     5.6058     9.9066     9.9066     9.9066     0.0000    -0.0000     0.0000 </r>
      <r>     5.6270    10.1513    10.1513    10.1513     0.0000    -0.0000     0.0000 </r>
      <r>     5.6481    10.3393    10.3393    10.3393     0.0000    -0.0000     0.0000 </r>
      <r>     5.6693    10.4280    10.4280    10.4280     0.0000    -0.0000     0.0000 </r>
      <r>     5.6904    10.3632    10.3632    10.3632     0.0000    -0.0000     0.0000 </r>
      <r>     5.7116    10.1134    10.1134    10.1134     0.0000    -0.0000     0.0000 </r>
      <r>     5.7328     9.7026     9.7026     9.7026     0.0000    -0.0000     0.0000 </r>
      <r>     5.7539     9.1959     9.1959     9.1959     0.0000    -0.0000     0.0000 </r>
      <r>     5.7751     8.6593     8.6593     8.6593     0.0000    -0.0000     0.0000 </r>
      <r>     5.7962     8.1349     8.1349     8.1349     0.0000    -0.0000     0.0000 </r>
      <r>     5.8174     7.6419     7.6419     7.6419     0.0000    -0.0000     0.0000 </r>
      <r>     5.8385     7.1854     7.1854     7.1854     0.0000    -0.0000     0.0000 </r>
      <r>     5.8597     6.7643     6.7643     6.7643     0.0000    -0.0000     0.0000 </r>
      <r>     5.8808     6.3755     6.3755     6.3755    -0.0000    -0.0000     0.0000 </r>
      <r>     5.9020     6.0157     6.0157     6.0157    -0.0000     0.0000     0.0000 </r>
      <r>     5.9231     5.6828     5.6828     5.6828    -0.0000     0.0000     0.0000 </r>
      <r>     5.9443     5.3767     5.3767     5.3767    -0.0000     0.0000     0.0000 </r>
      <r>     5.9655     5.0992     5.0992     5.0992    -0.0000     0.0000     0.0000 </r>
      <r>     5.9866     4.8526     4.8526     4.8526    -0.0000     0.0000     0.0000 </r>
      <r>     6.0078     4.6374     4.6374     4.6374    -0.0000     0.0000     0.0000 </r>
      <r>     6.0289     4.4519     4.4519     4.4519    -0.0000     0.0000     0.0000 </r>
      <r>     6.0501     4.2935     4.2935     4.2935    -0.0000     0.0000     0.0000 </r>
      <r>     6.0712     4.1595     4.1595     4.1595     0.0000     0.0000     0.0000 </r>
      <r>     6.0924     4.0483     4.0483     4.0483     0.0000     0.0000     0.0000 </r>
      <r>     6.1135     3.9589     3.9589     3.9589     0.0000     0.0000     0.0000 </r>
      <r>     6.1347     3.8908     3.8908     3.8908     0.0000     0.0000     0.0000 </r>
      <r>     6.1558     3.8439     3.8439     3.8439     0.0000     0.0000     0.0000 </r>
      <r>     6.1770     3.8173     3.8173     3.8173     0.0000     0.0000     0.0000 </r>
      <r>     6.1981     3.8089     3.8089     3.8089     0.0000     0.0000     0.0000 </r>
      <r>     6.2193     3.8136     3.8136     3.8136     0.0000     0.0000     0.0000 </r>
      <r>     6.2405     3.8247     3.8247     3.8247     0.0000     0.0000     0.0000 </r>
      <r>     6.2616     3.8383     3.8383     3.8383     0.0000     0.0000     0.0000 </r>
      <r>     6.2828     3.8569     3.8569     3.8569     0.0000     0.0000     0.0000 </r>
      <r>     6.3039     3.8856     3.8856     3.8856     0.0000     0.0000     0.0000 </r>
      <r>     6.3251     3.9261     3.9261     3.9261     0.0000     0.0000     0.0000 </r>
      <r>     6.3462     3.9741     3.9741     3.9741     0.0000     0.0000     0.0000 </r>
      <r>     6.3674     4.0203     4.0203     4.0203     0.0000     0.0000     0.0000 </r>
      <r>     6.3885     4.0567     4.0567     4.0567     0.0000     0.0000     0.0000 </r>
      <r>     6.4097     4.0814     4.0814     4.0814     0.0000     0.0000     0.0000 </r>
      <r>     6.4308     4.0979     4.0979     4.0979     0.0000     0.0000     0.0000 </r>
      <r>     6.4520     4.1104     4.1104     4.1104    -0.0000     0.0000     0.0000 </r>
      <r>     6.4731     4.1218     4.1218     4.1218    -0.0000     0.0000     0.0000 </r>
      <r>     6.4943     4.1338     4.1338     4.1338    -0.0000     0.0000     0.0000 </r>
      <r>     6.5155     4.1471     4.1471     4.1471    -0.0000     0.0000     0.0000 </r>
      <r>     6.5366     4.1618     4.1618     4.1618    -0.0000     0.0000     0.0000 </r>
      <r>     6.5578     4.1761     4.1761     4.1761    -0.0000     0.0000     0.0000 </r>
      <r>     6.5789     4.1872     4.1872     4.1872    -0.0000     0.0000     0.0000 </r>
      <r>     6.6001     4.1915     4.1915     4.1915    -0.0000     0.0000     0.0000 </r>
      <r>     6.6212     4.1866     4.1866     4.1866    -0.0000     0.0000     0.0000 </r>
      <r>     6.6424     4.1714     4.1714     4.1714    -0.0000     0.0000     0.0000 </r>
      <r>     6.6635     4.1459     4.1459     4.1459    -0.0000     0.0000     0.0000 </r>
      <r>     6.6847     4.1107     4.1107     4.1107    -0.0000     0.0000     0.0000 </r>
      <r>     6.7058     4.0658     4.0658     4.0658    -0.0000     0.0000     0.0000 </r>
      <r>     6.7270     4.0114     4.0114     4.0114    -0.0000     0.0000     0.0000 </r>
      <r>     6.7482     3.9480     3.9480     3.9480    -0.0000     0.0000     0.0000 </r>
      <r>     6.7693     3.8768     3.8768     3.8768    -0.0000     0.0000    -0.0000 </r>
      <r>     6.7905     3.7992     3.7992     3.7992    -0.0000     0.0000    -0.0000 </r>
      <r>     6.8116     3.7174     3.7174     3.7174    -0.0000     0.0000    -0.0000 </r>
      <r>     6.8328     3.6337     3.6337     3.6337    -0.0000     0.0000    -0.0000 </r>
      <r>     6.8539     3.5507     3.5507     3.5507    -0.0000     0.0000    -0.0000 </r>
      <r>     6.8751     3.4710     3.4710     3.4710    -0.0000     0.0000    -0.0000 </r>
      <r>     6.8962     3.3960     3.3960     3.3960    -0.0000     0.0000    -0.0000 </r>
      <r>     6.9174     3.3262     3.3262     3.3262    -0.0000    -0.0000    -0.0000 </r>
      <r>     6.9385     3.2612     3.2612     3.2612    -0.0000    -0.0000    -0.0000 </r>
      <r>     6.9597     3.2001     3.2001     3.2001    -0.0000    -0.0000    -0.0000 </r>
      <r>     6.9808     3.1420     3.1420     3.1420    -0.0000    -0.0000    -0.0000 </r>
      <r>     7.0020     3.0857     3.0857     3.0857    -0.0000    -0.0000    -0.0000 </r>
      <r>     7.0232     3.0302     3.0302     3.0302    -0.0000    -0.0000    -0.0000 </r>
      <r>     7.0443     2.9751     2.9751     2.9751    -0.0000    -0.0000    -0.0000 </r>
      <r>     7.0655     2.9205     2.9205     2.9205    -0.0000    -0.0000    -0.0000 </r>
      <r>     7.0866     2.8669     2.8669     2.8669    -0.0000    -0.0000    -0.0000 </r>
      <r>     7.1078     2.8149     2.8149     2.8149    -0.0000    -0.0000    -0.0000 </r>
      <r>     7.1289     2.7646     2.7646     2.7646    -0.0000    -0.0000    -0.0000 </r>
      <r>     7.1501     2.7156     2.7156     2.7156    -0.0000    -0.0000    -0.0000 </r>
      <r>     7.1712     2.6667     2.6667     2.6667    -0.0000    -0.0000    -0.0000 </r>
      <r>     7.1924     2.6166     2.6166     2.6166    -0.0000    -0.0000    -0.0000 </r>
      <r>     7.2135     2.5644     2.5644     2.5644    -0.0000    -0.0000    -0.0000 </r>
      <r>     7.2347     2.5088     2.5088     2.5088    -0.0000    -0.0000    -0.0000 </r>
      <r>     7.2559     2.4490     2.4490     2.4490    -0.0000    -0.0000    -0.0000 </r>
      <r>     7.2770     2.3845     2.3845     2.3845    -0.0000    -0.0000    -0.0000 </r>
      <r>     7.2982     2.3156     2.3156     2.3156    -0.0000    -0.0000    -0.0000 </r>
      <r>     7.3193     2.2435     2.2435     2.2435    -0.0000    -0.0000    -0.0000 </r>
      <r>     7.3405     2.1695     2.1695     2.1695    -0.0000     0.0000     0.0000 </r>
      <r>     7.3616     2.0948     2.0948     2.0948    -0.0000     0.0000     0.0000 </r>
      <r>     7.3828     2.0204     2.0204     2.0204    -0.0000     0.0000     0.0000 </r>
      <r>     7.4039     1.9470     1.9470     1.9470    -0.0000     0.0000     0.0000 </r>
      <r>     7.4251     1.8749     1.8749     1.8749    -0.0000     0.0000     0.0000 </r>
      <r>     7.4462     1.8047     1.8047     1.8047    -0.0000     0.0000     0.0000 </r>
      <r>     7.4674     1.7366     1.7366     1.7366    -0.0000     0.0000     0.0000 </r>
      <r>     7.4885     1.6712     1.6712     1.6712    -0.0000     0.0000     0.0000 </r>
      <r>     7.5097     1.6089     1.6089     1.6089    -0.0000    -0.0000    -0.0000 </r>
      <r>     7.5309     1.5500     1.5500     1.5500    -0.0000    -0.0000    -0.0000 </r>
      <r>     7.5520     1.4948     1.4948     1.4948    -0.0000    -0.0000    -0.0000 </r>
      <r>     7.5732     1.4431     1.4431     1.4431    -0.0000    -0.0000    -0.0000 </r>
      <r>     7.5943     1.3948     1.3948     1.3948    -0.0000    -0.0000    -0.0000 </r>
      <r>     7.6155     1.3499     1.3499     1.3499    -0.0000    -0.0000    -0.0000 </r>
      <r>     7.6366     1.3084     1.3084     1.3084    -0.0000    -0.0000    -0.0000 </r>
      <r>     7.6578     1.2704     1.2704     1.2704    -0.0000    -0.0000    -0.0000 </r>
      <r>     7.6789     1.2362     1.2362     1.2362    -0.0000    -0.0000    -0.0000 </r>
      <r>     7.7001     1.2062     1.2062     1.2062    -0.0000    -0.0000    -0.0000 </r>
      <r>     7.7212     1.1806     1.1806     1.1806    -0.0000    -0.0000    -0.0000 </r>
      <r>     7.7424     1.1594     1.1594     1.1594    -0.0000    -0.0000    -0.0000 </r>
      <r>     7.7635     1.1417     1.1417     1.1417    -0.0000    -0.0000    -0.0000 </r>
      <r>     7.7847     1.1268     1.1268     1.1268    -0.0000    -0.0000    -0.0000 </r>
      <r>     7.8059     1.1133     1.1133     1.1133    -0.0000    -0.0000    -0.0000 </r>
      <r>     7.8270     1.1005     1.1005     1.1005    -0.0000    -0.0000    -0.0000 </r>
      <r>     7.8482     1.0877     1.0877     1.0877    -0.0000    -0.0000    -0.0000 </r>
      <r>     7.8693     1.0745     1.0745     1.0745    -0.0000    -0.0000    -0.0000 </r>
      <r>     7.8905     1.0607     1.0607     1.0607    -0.0000    -0.0000    -0.0000 </r>
      <r>     7.9116     1.0461     1.0461     1.0461    -0.0000    -0.0000    -0.0000 </r>
      <r>     7.9328     1.0305     1.0305     1.0305    -0.0000    -0.0000    -0.0000 </r>
      <r>     7.9539     1.0142     1.0142     1.0142    -0.0000    -0.0000    -0.0000 </r>
      <r>     7.9751     0.9975     0.9975     0.9975    -0.0000    -0.0000    -0.0000 </r>
      <r>     7.9962     0.9809     0.9809     0.9809    -0.0000    -0.0000    -0.0000 </r>
      <r>     8.0174     0.9650     0.9650     0.9650    -0.0000    -0.0000    -0.0000 </r>
      <r>     8.0386     0.9505     0.9505     0.9505    -0.0000    -0.0000    -0.0000 </r>
      <r>     8.0597     0.9379     0.9379     0.9379    -0.0000    -0.0000    -0.0000 </r>
      <r>     8.0809     0.9276     0.9276     0.9276    -0.0000    -0.0000    -0.0000 </r>
      <r>     8.1020     0.9198     0.9198     0.9198    -0.0000    -0.0000    -0.0000 </r>
      <r>     8.1232     0.9145     0.9145     0.9145    -0.0000    -0.0000    -0.0000 </r>
      <r>     8.1443     0.9120     0.9120     0.9120    -0.0000    -0.0000    -0.0000 </r>
      <r>     8.1655     0.9122     0.9122     0.9122    -0.0000    -0.0000    -0.0000 </r>
      <r>     8.1866     0.9149     0.9149     0.9149    -0.0000    -0.0000    -0.0000 </r>
      <r>     8.2078     0.9190     0.9190     0.9190    -0.0000    -0.0000    -0.0000 </r>
      <r>     8.2289     0.9229     0.9229     0.9229    -0.0000    -0.0000    -0.0000 </r>
      <r>     8.2501     0.9249     0.9249     0.9249    -0.0000    -0.0000    -0.0000 </r>
      <r>     8.2712     0.9234     0.9234     0.9234     0.0000    -0.0000    -0.0000 </r>
      <r>     8.2924     0.9171     0.9171     0.9171     0.0000    -0.0000    -0.0000 </r>
      <r>     8.3136     0.9051     0.9051     0.9051     0.0000    -0.0000    -0.0000 </r>
      <r>     8.3347     0.8867     0.8867     0.8867     0.0000    -0.0000     0.0000 </r>
      <r>     8.3559     0.8623     0.8623     0.8623     0.0000    -0.0000     0.0000 </r>
      <r>     8.3770     0.8336     0.8336     0.8336     0.0000    -0.0000     0.0000 </r>
      <r>     8.3982     0.8033     0.8033     0.8033     0.0000    -0.0000     0.0000 </r>
      <r>     8.4193     0.7735     0.7735     0.7735     0.0000    -0.0000     0.0000 </r>
      <r>     8.4405     0.7454     0.7454     0.7454     0.0000    -0.0000     0.0000 </r>
      <r>     8.4616     0.7194     0.7194     0.7194     0.0000    -0.0000     0.0000 </r>
      <r>     8.4828     0.6951     0.6951     0.6951    -0.0000    -0.0000     0.0000 </r>
      <r>     8.5039     0.6722     0.6722     0.6722    -0.0000    -0.0000     0.0000 </r>
      <r>     8.5251     0.6507     0.6507     0.6507    -0.0000    -0.0000     0.0000 </r>
      <r>     8.5462     0.6304     0.6304     0.6304    -0.0000    -0.0000     0.0000 </r>
      <r>     8.5674     0.6117     0.6117     0.6117    -0.0000    -0.0000     0.0000 </r>
      <r>     8.5886     0.5949     0.5949     0.5949    -0.0000    -0.0000     0.0000 </r>
      <r>     8.6097     0.5799     0.5799     0.5799    -0.0000     0.0000     0.0000 </r>
      <r>     8.6309     0.5666     0.5666     0.5666    -0.0000     0.0000     0.0000 </r>
      <r>     8.6520     0.5542     0.5542     0.5542    -0.0000     0.0000     0.0000 </r>
      <r>     8.6732     0.5417     0.5417     0.5417    -0.0000     0.0000     0.0000 </r>
      <r>     8.6943     0.5284     0.5284     0.5284    -0.0000     0.0000     0.0000 </r>
      <r>     8.7155     0.5146     0.5146     0.5146    -0.0000     0.0000     0.0000 </r>
      <r>     8.7366     0.5009     0.5009     0.5009     0.0000     0.0000     0.0000 </r>
      <r>     8.7578     0.4878     0.4878     0.4878     0.0000     0.0000     0.0000 </r>
      <r>     8.7789     0.4756     0.4756     0.4756     0.0000     0.0000     0.0000 </r>
      <r>     8.8001     0.4639     0.4639     0.4639     0.0000     0.0000     0.0000 </r>
      <r>     8.8213     0.4528     0.4528     0.4528     0.0000     0.0000     0.0000 </r>
      <r>     8.8424     0.4421     0.4421     0.4421     0.0000     0.0000     0.0000 </r>
      <r>     8.8636     0.4319     0.4319     0.4319     0.0000     0.0000     0.0000 </r>
      <r>     8.8847     0.4224     0.4224     0.4224     0.0000     0.0000     0.0000 </r>
      <r>     8.9059     0.4138     0.4138     0.4138     0.0000     0.0000     0.0000 </r>
      <r>     8.9270     0.4060     0.4060     0.4060     0.0000     0.0000     0.0000 </r>
      <r>     8.9482     0.3989     0.3989     0.3989     0.0000     0.0000     0.0000 </r>
      <r>     8.9693     0.3923     0.3923     0.3923    -0.0000     0.0000     0.0000 </r>
      <r>     8.9905     0.3862     0.3862     0.3862    -0.0000     0.0000     0.0000 </r>
      <r>     9.0116     0.3804     0.3804     0.3804    -0.0000     0.0000     0.0000 </r>
      <r>     9.0328     0.3749     0.3749     0.3749    -0.0000     0.0000     0.0000 </r>
      <r>     9.0539     0.3697     0.3697     0.3697    -0.0000     0.0000     0.0000 </r>
      <r>     9.0751     0.3646     0.3646     0.3646    -0.0000     0.0000     0.0000 </r>
      <r>     9.0963     0.3597     0.3597     0.3597    -0.0000     0.0000     0.0000 </r>
      <r>     9.1174     0.3548     0.3548     0.3548    -0.0000     0.0000     0.0000 </r>
      <r>     9.1386     0.3494     0.3494     0.3494    -0.0000     0.0000     0.0000 </r>
      <r>     9.1597     0.3432     0.3432     0.3432     0.0000     0.0000     0.0000 </r>
      <r>     9.1809     0.3358     0.3358     0.3358     0.0000     0.0000     0.0000 </r>
      <r>     9.2020     0.3273     0.3273     0.3273     0.0000     0.0000     0.0000 </r>
      <r>     9.2232     0.3183     0.3183     0.3183     0.0000     0.0000     0.0000 </r>
      <r>     9.2443     0.3091     0.3091     0.3091     0.0000     0.0000     0.0000 </r>
      <r>     9.2655     0.3003     0.3003     0.3003     0.0000     0.0000     0.0000 </r>
      <r>     9.2866     0.2920     0.2920     0.2920     0.0000     0.0000     0.0000 </r>
      <r>     9.3078     0.2845     0.2845     0.2845     0.0000     0.0000     0.0000 </r>
      <r>     9.3290     0.2777     0.2777     0.2777     0.0000     0.0000     0.0000 </r>
      <r>     9.3501     0.2715     0.2715     0.2715     0.0000     0.0000     0.0000 </r>
      <r>     9.3713     0.2660     0.2660     0.2660     0.0000     0.0000     0.0000 </r>
      <r>     9.3924     0.2611     0.2611     0.2611     0.0000     0.0000     0.0000 </r>
      <r>     9.4136     0.2568     0.2568     0.2568     0.0000     0.0000     0.0000 </r>
      <r>     9.4347     0.2529     0.2529     0.2529     0.0000     0.0000     0.0000 </r>
      <r>     9.4559     0.2494     0.2494     0.2494     0.0000     0.0000     0.0000 </r>
      <r>     9.4770     0.2462     0.2462     0.2462     0.0000     0.0000     0.0000 </r>
      <r>     9.4982     0.2434     0.2434     0.2434     0.0000     0.0000     0.0000 </r>
      <r>     9.5193     0.2409     0.2409     0.2409     0.0000     0.0000     0.0000 </r>
      <r>     9.5405     0.2388     0.2388     0.2388     0.0000     0.0000     0.0000 </r>
      <r>     9.5616     0.2369     0.2369     0.2369     0.0000    -0.0000     0.0000 </r>
[...]
     <r>     7.1505     0.0657     0.0657     0.0657     0.0000     0.0000     0.0000 </r>
     <r>     7.1605     0.0664     0.0664     0.0664     0.0000     0.0000     0.0000 </r>
     <r>     7.1705     0.0738     0.0738     0.0738     0.0000     0.0000     0.0000 </r>
     <r>     7.1805     0.0806     0.0806     0.0806    -0.0000    -0.0000     0.0000 </r>
     <r>     7.1905     0.0895     0.0895     0.0895     0.0000     0.0000    -0.0000 </r>
     <r>     7.2005     0.0999     0.0999     0.0999     0.0000    -0.0000     0.0000 </r>
     <r>     7.2106     0.1117     0.1117     0.1117    -0.0000     0.0000    -0.0000 </r>
     <r>     7.2206     0.2450     0.2450     0.2450    -0.0000     0.0000    -0.0000 </r>
     <r>     7.2306     0.1511     0.1511     0.1511    -0.0000     0.0000     0.0000 </r>
     <r>     7.2406     0.0824     0.0824     0.0824    -0.0000    -0.0000     0.0000 </r>
     <r>     7.2506     0.0797     0.0797     0.0797    -0.0000     0.0000    -0.0000 </r>
     <r>     7.2606     0.0770     0.0770     0.0770     0.0000     0.0000     0.0000 </r>
     <r>     7.2706     0.0744     0.0744     0.0744     0.0000     0.0000     0.0000 </r>
     <r>     7.2806     0.0718     0.0718     0.0718     0.0000     0.0000     0.0000 </r>
     <r>     7.2906     0.0693     0.0693     0.0693     0.0000     0.0000     0.0000 </r>
     <r>     7.3006     0.0669     0.0669     0.0669    -0.0000     0.0000     0.0000 </r>
     <r>     7.3107     0.0645     0.0645     0.0645     0.0000    -0.0000    -0.0000 </r>
     <r>     7.3207     0.0622     0.0622     0.0622    -0.0000    -0.0000     0.0000 </r>
     <r>     7.3307     0.0599     0.0599     0.0599     0.0000     0.0000    -0.0000 </r>
     <r>     7.3407     0.0577     0.0577     0.0577    -0.0000     0.0000     0.0000 </r>
     <r>     7.3507     0.0556     0.0556     0.0556    -0.0000     0.0000     0.0000 </r>
     <r>     7.3607     0.0535     0.0535     0.0535     0.0000     0.0000    -0.0000 </r>
     <r>     7.3707     0.0453     0.0453     0.0453     0.0000     0.0000    -0.0000 </r>
     <r>     7.3807     0.0448     0.0448     0.0448     0.0000     0.0000     0.0000 </r>
     <r>     7.3907     0.0444     0.0444     0.0444    -0.0000     0.0000    -0.0000 </r>
     <r>     7.4007     0.0439     0.0439     0.0439    -0.0000     0.0000     0.0000 </r>
     <r>     7.4108     0.0434     0.0434     0.0434    -0.0000     0.0000    -0.0000 </r>
     <r>     7.4208     0.0429     0.0429     0.0429     0.0000     0.0000    -0.0000 </r>
     <r>     7.4308     0.0372     0.0372     0.0372    -0.0000     0.0000     0.0000 </r>
     <r>     7.4408     0.0358     0.0358     0.0358    -0.0000    -0.0000     0.0000 </r>
     <r>     7.4508     0.0344     0.0344     0.0344    -0.0000     0.0000    -0.0000 </r>
     <r>     7.4608     0.0330     0.0330     0.0330    -0.0000    -0.0000     0.0000 </r>
     <r>     7.4708     0.0315     0.0315     0.0315    -0.0000     0.0000     0.0000 </r>
     <r>     7.4808     0.0300     0.0300     0.0300     0.0000     0.0000     0.0000 </r>
     <r>     7.4908     0.0285     0.0285     0.0285     0.0000     0.0000     0.0000 </r>
     <r>     7.5008     0.0270     0.0270     0.0270    -0.0000     0.0000    -0.0000 </r>
     <r>     7.5109     0.0255     0.0255     0.0255     0.0000     0.0000     0.0000 </r>
     <r>     7.5209     0.0239     0.0239     0.0239     0.0000     0.0000     0.0000 </r>
     <r>     7.5309     0.0223     0.0223     0.0223     0.0000     0.0000     0.0000 </r>
     <r>     7.5409     0.0207     0.0207     0.0207     0.0000     0.0000     0.0000 </r>
    </set>
   </array>
  </conductivity>
  <dos>
   <i name="efermi">      2.54088724 </i>
   <total>
    <array>
     <dimension dim="1">gridpoints</dimension>
     <dimension dim="2">spin</dimension>
     <field>energy</field>
     <field>total</field>
     <field>integrated</field>
     <set>
      <set comment="spin 1">
       <r>   -10.9926     0.0000     0.0000 </r>
       <r>   -10.9272     0.0000     0.0000 </r>
       <r>   -10.8619     0.0000     0.0000 </r>
       <r>   -10.7965     0.0000     0.0000 </r>
       <r>   -10.7311     0.0000     0.0000 </r>
       <r>   -10.6657     0.0000     0.0000 </r>
       <r>   -10.6004     0.0000     0.0000 </r>
       <r>   -10.5350     0.0000     0.0000 </r>
       <r>   -10.4696     0.0000     0.0000 </r>
       <r>   -10.4043     0.0000     0.0000 </r>
       <r>   -10.3389     0.0000     0.0000 </r>
       <r>   -10.2735     0.0000     0.0000 </r>
       <r>   -10.2082     0.0000     0.0000 </r>
       <r>   -10.1428     0.0000     0.0000 </r>
       <r>   -10.0774     0.0000     0.0000 </r>
       <r>   -10.0121     0.0000     0.0000 </r>
       <r>    -9.9467     0.0520     0.0008 </r>
       <r>    -9.8813     0.3056     0.0113 </r>
       <r>    -9.8159     0.7081     0.0446 </r>
       <r>    -9.7506     0.9390     0.0996 </r>
       <r>    -9.6852     0.9874     0.1630 </r>
       <r>    -9.6198     1.0823     0.2302 </r>
       <r>    -9.5545     1.2545     0.3063 </r>
       <r>    -9.4891     1.4478     0.3946 </r>
       <r>    -9.4237     1.9873     0.5005 </r>
       <r>    -9.3584     2.7986     0.6585 </r>
       <r>    -9.2930     2.8099     0.8515 </r>
       <r>    -9.2276     2.3367     1.0190 </r>
       <r>    -9.1623     2.2570     1.1673 </r>
       <r>    -9.0969     2.2208     1.3138 </r>
       <r>    -9.0315     2.1495     1.4569 </r>
       <r>    -8.9661     2.9342     1.6101 </r>
       <r>    -8.9008     2.0406     1.7720 </r>
       <r>    -8.8354     1.1069     1.8582 </r>
       <r>    -8.7700     2.2527     1.9625 </r>
       <r>    -8.7047     3.4569     2.1574 </r>
       <r>    -8.6393     3.6737     2.3987 </r>
       <r>    -8.5739     4.0302     2.6431 </r>
       <r>    -8.5086     4.5070     2.9229 </r>
       <r>    -8.4432    13.9958     3.4172 </r>
       <r>    -8.3778     4.7153     3.9833 </r>
       <r>    -8.3125     4.3044     4.2536 </r>
       <r>    -8.2471     4.7081     4.5478 </r>
       <r>    -8.1817     6.5455     4.8890 </r>
       <r>    -8.1163     7.7657     5.3651 </r>
       <r>    -8.0510     8.7668     5.9037 </r>
       <r>    -7.9856     8.9349     6.5178 </r>
       <r>    -7.9202     6.4791     6.9994 </r>
       <r>    -7.8549     5.8311     7.4016 </r>
       <r>    -7.7895     4.9328     7.7622 </r>
       <r>    -7.7241     0.9791     8.0000 </r>
       <r>    -7.6588     0.0000     8.0000 </r>
       <r>    -7.5934     0.0000     8.0000 </r>
       <r>    -7.5280     0.0000     8.0000 </r>
       <r>    -7.4627     0.0000     8.0000 </r>
       <r>    -7.3973     0.0000     8.0000 </r>
       <r>    -7.3319     0.0000     8.0000 </r>
       <r>    -7.2665     0.0000     8.0000 </r>
       <r>    -7.2012     0.0000     8.0000 </r>
       <r>    -7.1358     0.0000     8.0000 </r>
       <r>    -7.0704     0.0000     8.0000 </r>
       <r>    -7.0051     0.0000     8.0000 </r>
       <r>    -6.9397     0.0000     8.0000 </r>
       <r>    -6.8743     0.0000     8.0000 </r>
       <r>    -6.8090     0.0000     8.0000 </r>
       <r>    -6.7436     0.0000     8.0000 </r>
       <r>    -6.6782     0.0000     8.0000 </r>
       <r>    -6.6128     0.0000     8.0000 </r>
       <r>    -6.5475     0.0000     8.0000 </r>
       <r>    -6.4821     0.0000     8.0000 </r>
       <r>    -6.4167     0.0000     8.0000 </r>
       <r>    -6.3514     0.0000     8.0000 </r>
       <r>    -6.2860     0.0000     8.0000 </r>
       <r>    -6.2206     0.0000     8.0000 </r>
       <r>    -6.1553     0.0000     8.0000 </r>
       <r>    -6.0899     0.0000     8.0000 </r>
       <r>    -6.0245     0.0000     8.0000 </r>
       <r>    -5.9592     0.0000     8.0000 </r>
       <r>    -5.8938     0.0000     8.0000 </r>
       <r>    -5.8284     0.0000     8.0000 </r>
       <r>    -5.7630     0.0000     8.0000 </r>
       <r>    -5.6977     0.0000     8.0000 </r>
       <r>    -5.6323     0.0000     8.0000 </r>
       <r>    -5.5669     0.0000     8.0000 </r>
       <r>    -5.5016     0.0000     8.0000 </r>
       <r>    -5.4362     0.0000     8.0000 </r>
       <r>    -5.3708     0.0000     8.0000 </r>
       <r>    -5.3055     0.0000     8.0000 </r>
       <r>    -5.2401     0.0000     8.0000 </r>
       <r>    -5.1747     0.0000     8.0000 </r>
       <r>    -5.1094     0.0000     8.0000 </r>
       <r>    -5.0440     0.0000     8.0000 </r>
       <r>    -4.9786     0.0000     8.0000 </r>
       <r>    -4.9132     0.0000     8.0000 </r>
       <r>    -4.8479     0.0000     8.0000 </r>
       <r>    -4.7825     0.0000     8.0000 </r>
       <r>    -4.7171     0.0000     8.0000 </r>
       <r>    -4.6518     0.0000     8.0000 </r>
       <r>    -4.5864     0.0000     8.0000 </r>
       <r>    -4.5210     0.0000     8.0000 </r>
       <r>    -4.4557     0.0000     8.0000 </r>
       <r>    -4.3903     0.0000     8.0000 </r>
       <r>    -4.3249     0.0000     8.0000 </r>
       <r>    -4.2596     0.0000     8.0000 </r>
       <r>    -4.1942     0.0000     8.0000 </r>
       <r>    -4.1288     0.2049     8.0017 </r>
       <r>    -4.0634     1.7776     8.0694 </r>
       <r>    -3.9981     2.5327     8.2025 </r>
       <r>    -3.9327     5.0536     8.4465 </r>
       <r>    -3.8673     6.9912     8.8498 </r>
       <r>    -3.8020    16.1832     9.6231 </r>
       <r>    -3.7366    13.5478    10.5501 </r>
       <r>    -3.6712     7.5344    11.1497 </r>
       <r>    -3.6059     6.2787    11.5864 </r>
       <r>    -3.5405     3.7050    11.8603 </r>
       <r>    -3.4751     3.8831    12.1136 </r>
       <r>    -3.4098     3.0548    12.3317 </r>
       <r>    -3.3444     2.9823    12.5289 </r>
       <r>    -3.2790     2.9159    12.7217 </r>
       <r>    -3.2136     2.8556    12.9103 </r>
       <r>    -3.1483     2.8014    13.0952 </r>
       <r>    -3.0829     2.1963    13.2681 </r>
       <r>    -3.0175     2.1489    13.4102 </r>
       <r>    -2.9522     2.0920    13.5489 </r>
       <r>    -2.8868     2.0213    13.6835 </r>
       <r>    -2.8214     1.9148    13.8122 </r>
       <r>    -2.7561     1.8218    13.9339 </r>
       <r>    -2.6907     1.6969    14.0490 </r>
       <r>    -2.6253     1.5587    14.1555 </r>
       <r>    -2.5600     1.4782    14.2539 </r>
       <r>    -2.4946     1.2695    14.3436 </r>
       <r>    -2.4292     1.0870    14.4205 </r>
       <r>    -2.3638     0.9309    14.4863 </r>
       <r>    -2.2985     0.8955    14.5443 </r>
       <r>    -2.2331     0.7652    14.6021 </r>
       <r>    -2.1677     0.7753    14.6525 </r>
       <r>    -2.1024     0.7837    14.7034 </r>
       <r>    -2.0370     0.7902    14.7549 </r>
       <r>    -1.9716     0.7949    14.8067 </r>
       <r>    -1.9063     0.7978    14.8588 </r>
       <r>    -1.8409     0.8082    14.9112 </r>
       <r>    -1.7755     0.8234    14.9645 </r>
       <r>    -1.7102     0.8421    15.0189 </r>
       <r>    -1.6448     0.8645    15.0747 </r>
       <r>    -1.5794     0.8904    15.1320 </r>
       <r>    -1.5140     0.9199    15.1912 </r>
       <r>    -1.4487     0.9530    15.2524 </r>
       <r>    -1.3833     0.9897    15.3158 </r>
       <r>    -1.3179     1.0504    15.3820 </r>
       <r>    -1.2526     1.0213    15.4497 </r>
       <r>    -1.1872     2.9470    15.5810 </r>
       <r>    -1.1218     3.1167    15.7790 </r>
       <r>    -1.0565     3.3090    15.9889 </r>
       <r>    -0.9911     3.5048    16.2120 </r>
       <r>    -0.9257     6.4906    16.4994 </r>
       <r>    -0.8604     7.3590    16.9802 </r>
       <r>    -0.7950     5.9029    17.4125 </r>
       <r>    -0.7296     5.2633    17.7745 </r>
       <r>    -0.6642     5.1507    18.1070 </r>
       <r>    -0.5989     4.9427    18.4363 </r>
       <r>    -0.5335     4.5796    18.7392 </r>
       <r>    -0.4681     4.5950    19.0389 </r>
       <r>    -0.4028     4.6394    19.3406 </r>
       <r>    -0.3374     5.2499    19.6758 </r>
       <r>    -0.2720     5.0953    20.0157 </r>
       <r>    -0.2067     4.6865    20.3194 </r>
       <r>    -0.1413     4.7771    20.6286 </r>
       <r>    -0.0759     5.5706    20.9748 </r>
       <r>    -0.0106     7.0995    21.3897 </r>
       <r>     0.0548     9.4906    21.9725 </r>
       <r>     0.1202     7.2334    22.5109 </r>
       <r>     0.1856     6.9041    22.9717 </r>
       <r>     0.2509     6.5828    23.4113 </r>
       <r>     0.3163     6.3561    23.8338 </r>
       <r>     0.3817     5.7768    24.2348 </r>
       <r>     0.4470     5.2747    24.5954 </r>
       <r>     0.5124     4.8885    24.9269 </r>
       <r>     0.5778     5.0700    25.2444 </r>
       <r>     0.6431     6.0724    25.6421 </r>
       <r>     0.7085     6.0828    26.0173 </r>
       <r>     0.7739     5.3953    26.3721 </r>
       <r>     0.8392     5.7414    26.7353 </r>
       <r>     0.9046     7.2280    27.1432 </r>
       <r>     0.9700     9.6342    27.6730 </r>
       <r>     1.0354     6.1398    28.1860 </r>
       <r>     1.1007     5.3300    28.5610 </r>
       <r>     1.1661     4.4947    28.8823 </r>
       <r>     1.2315     3.5143    29.1651 </r>
       <r>     1.2968     2.2558    29.3315 </r>
       <r>     1.3622     2.3702    29.4805 </r>
       <r>     1.4276     3.4555    29.6705 </r>
       <r>     1.4929     5.2763    29.9707 </r>
       <r>     1.5583     5.5674    30.3102 </r>
       <r>     1.6237     6.1816    30.6948 </r>
       <r>     1.6890     5.4790    31.0775 </r>
       <r>     1.7544     1.9727    31.3328 </r>
       <r>     1.8198     1.7317    31.4539 </r>
       <r>     1.8852     1.4943    31.5593 </r>
       <r>     1.9505     1.2605    31.6493 </r>
       <r>     2.0159     1.0329    31.7242 </r>
       <r>     2.0813     1.0499    31.7897 </r>
       <r>     2.1466     1.0796    31.8604 </r>
       <r>     2.2120     0.9067    31.9264 </r>
       <r>     2.2774     0.5311    31.9745 </r>
       <r>     2.3427     0.1382    31.9936 </r>
       <r>     2.4081     0.0384    31.9991 </r>
       <r>     2.4735     0.0004    32.0000 </r>
       <r>     2.5388     0.0000    32.0000 </r>
       <r>     2.6042     0.0000    32.0000 </r>
       <r>     2.6696     0.0000    32.0000 </r>
       <r>     2.7350     0.0000    32.0000 </r>
       <r>     2.8003     0.0000    32.0000 </r>
       <r>     2.8657     0.0003    32.0000 </r>
       <r>     2.9311     0.0013    32.0001 </r>
       <r>     2.9964     0.0031    32.0002 </r>
       <r>     3.0618     0.0058    32.0005 </r>
       <r>     3.1272     0.0092    32.0010 </r>
       <r>     3.1925     0.0135    32.0017 </r>
       <r>     3.2579     0.0185    32.0027 </r>
       <r>     3.3233     0.0243    32.0041 </r>
       <r>     3.3886     0.0310    32.0059 </r>
       <r>     3.4540     0.0384    32.0082 </r>
       <r>     3.5194     0.4042    32.0282 </r>
       <r>     3.5848     0.1915    32.0397 </r>
       <r>     3.6501     0.2271    32.0533 </r>
       <r>     3.7155     0.2663    32.0694 </r>
       <r>     3.7809     0.3090    32.0882 </r>
       <r>     3.8462     0.3553    32.1099 </r>
       <r>     3.9116     0.4051    32.1347 </r>
       <r>     3.9770     0.4788    32.1630 </r>
       <r>     4.0423     0.7991    32.2048 </r>
       <r>     4.1077     1.1040    32.2671 </r>
       <r>     4.1731     1.3924    32.3488 </r>
       <r>     4.2384     2.7751    32.4982 </r>
       <r>     4.3038     2.4684    32.6453 </r>
       <r>     4.3692     3.3236    32.8260 </r>
       <r>     4.4346     4.4698    33.0948 </r>
       <r>     4.4999     4.6236    33.3892 </r>
       <r>     4.5653     5.1429    33.7075 </r>
       <r>     4.6307     5.9902    34.0663 </r>
       <r>     4.6960     6.8437    34.4926 </r>
       <r>     4.7614     6.9327    34.9554 </r>
       <r>     4.8268     6.9058    35.3886 </r>
       <r>     4.8921    11.1222    35.9438 </r>
       <r>     4.9575     8.0591    36.5022 </r>
       <r>     5.0229     6.6253    36.9908 </r>
       <r>     5.0882     6.5874    37.4229 </r>
       <r>     5.1536     6.9267    37.8914 </r>
       <r>     5.2190     6.2988    38.3253 </r>
       <r>     5.2844     7.6962    38.7450 </r>
       <r>     5.3497     5.9870    39.1996 </r>
       <r>     5.4151     3.9876    39.5076 </r>
       <r>     5.4805     3.7689    39.7610 </r>
       <r>     5.5458     3.5791    40.0010 </r>
       <r>     5.6112     3.4181    40.2295 </r>
       <r>     5.6766     3.2860    40.4485 </r>
       <r>     5.7419     2.7083    40.6410 </r>
       <r>     5.8073     1.3383    40.7831 </r>
       <r>     5.8727     1.8373    40.8906 </r>
       <r>     5.9380     2.0028    41.0162 </r>
       <r>     6.0034     2.1662    41.1524 </r>
       <r>     6.0688     2.3275    41.2993 </r>
       <r>     6.1342     2.4867    41.4567 </r>
       <r>     6.1995     2.6439    41.6244 </r>
       <r>     6.2649     2.8905    41.8044 </r>
       <r>     6.3303     4.7338    42.0310 </r>
       <r>     6.3956     5.4033    42.3639 </r>
       <r>     6.4610     4.9863    42.7011 </r>
       <r>     6.5264     5.3427    43.0388 </r>
       <r>     6.5917     6.1987    43.4172 </r>
       <r>     6.6571     6.3551    43.8354 </r>
       <r>     6.7225     8.4772    44.2865 </r>
       <r>     6.7878     6.5426    44.7757 </r>
       <r>     6.8532     4.9231    45.1487 </r>
       <r>     6.9186     3.2707    45.4339 </r>
       <r>     6.9840     2.8745    45.6103 </r>
       <r>     7.0493     3.2862    45.8113 </r>
       <r>     7.1147     3.7714    46.0416 </r>
       <r>     7.1801     7.1219    46.3542 </r>
       <r>     7.2454     7.9608    47.0559 </r>
       <r>     7.3108     4.4259    47.3804 </r>
       <r>     7.3762     2.8574    47.6324 </r>
       <r>     7.4415     1.9597    47.7989 </r>
       <r>     7.5069     1.3513    47.9071 </r>
       <r>     7.5723     0.7443    47.9756 </r>
       <r>     7.6376     0.0000    48.0000 </r>
       <r>     7.7030     0.0000    48.0000 </r>
       <r>     7.7684     0.0000    48.0000 </r>
       <r>     7.8338     0.0000    48.0000 </r>
       <r>     7.8991     0.0000    48.0000 </r>
       <r>     7.9645     0.0000    48.0000 </r>
       <r>     8.0299     0.0000    48.0000 </r>
       <r>     8.0952     0.0000    48.0000 </r>
       <r>     8.1606     0.0000    48.0000 </r>
       <r>     8.2260     0.0000    48.0000 </r>
       <r>     8.2913     0.0000    48.0000 </r>
       <r>     8.3567     0.0000    48.0000 </r>
       <r>     8.4221     0.0000    48.0000 </r>
       <r>     8.4874     0.0000    48.0000 </r>
       <r>     8.5528     0.0000    48.0000 </r>
       <r>     8.6182     0.0000    48.0000 </r>
      </set>
     </set>
    </array>
   </total>
  </dos>
 </calculation>
 <structure name="finalpos" >
  <crystal>
   <varray name="basis" >
    <v>       5.71566280       0.00000000       0.00000000 </v>
    <v>       0.00000000       5.71566280       0.00000000 </v>
    <v>       0.00000000       0.00000000       5.71566280 </v>
   </varray>
   <i name="volume">    186.72385246 </i>
   <varray name="rec_basis" >
    <v>       0.17495784       0.00000000       0.00000000 </v>
    <v>       0.00000000       0.17495784       0.00000000 </v>
    <v>       0.00000000       0.00000000       0.17495784 </v>
   </varray>
  </crystal>
  <varray name="positions" >
   <v>       0.00000000       0.00000000       0.00000000 </v>
   <v>       0.50000000       0.50000000       0.00000000 </v>
   <v>       0.50000000       0.00000000       0.50000000 </v>
   <v>       0.00000000       0.50000000       0.50000000 </v>
   <v>       0.25000000       0.25000000       0.25000000 </v>
   <v>       0.75000000       0.25000000       0.75000000 </v>
   <v>       0.75000000       0.75000000       0.25000000 </v>
   <v>       0.25000000       0.75000000       0.75000000 </v>
  </varray>
 </structure>
</modeling>
