GaAs                                    
   4.50000000000000     
     1.218067    0.000000   -0.000000
    -0.000000    1.218067   -0.000000
     0.000000   -0.000000    1.218067
   As   Ga
     4     4
Direct
  0.000000  0.000000  0.000000
  0.500000  0.500000  0.000000
  0.500000  0.000000  0.500000
  0.000000  0.500000  0.500000
  0.250000  0.250000  0.250000
  0.750000  0.250000  0.750000
  0.750000  0.750000  0.250000
  0.250000  0.750000  0.750000
 
   56   56   56
 -63.071     -54.185     -29.799      4.0866      39.784      70.252      90.798      99.713      97.970      88.397    
  74.711      60.625      48.461      38.372      30.174      23.647      18.548      14.620      11.612      9.3124    
  7.5532      6.2131      5.2027      4.4532      3.9094      3.5271      3.2734      3.1279      3.0803      3.1279    
  3.2734      3.5271      3.9094      4.4532      5.2027      6.2131      7.5532      9.3124      11.612      14.620    
  18.548      23.647      30.174      38.372      48.461      60.625      74.711      88.397      97.970      99.713    
  90.798      70.252      39.784      4.0866     -29.799     -54.185     -54.185     -45.676     -22.340      10.043    
  44.068      72.954      92.188      100.15      97.804      87.945      74.213      60.235      48.192      38.197    
  30.069      23.595      18.533      14.630      11.639      9.3489      7.5956      6.2588      5.2501      4.5014    
  3.9577      3.5751      3.3213      3.1755      3.1279      3.1755      3.3213      3.5751      3.9577      4.5014    
  5.2501      6.2588      7.5956      9.3489      11.639      14.630      18.533      23.595      30.069      38.197    
  48.192      60.235      74.213      87.945      97.804      100.15      92.188      72.954      44.068      10.043    
 -22.340     -45.676     -29.799     -22.340     -1.9207      26.289      55.668      80.162      95.761      101.08    
  97.113      86.508      72.705      59.077      47.395      37.677      29.759      23.440      18.489      14.661    
  11.719      9.4594      7.7241      6.3976      5.3945      4.6482      4.1051      3.7222      3.4676      3.3213    
  3.2734      3.3213      3.4676      3.7222      4.1051      4.6482      5.3945      6.3976      7.7241      9.4594    
  11.719      14.661      18.489      23.440      29.759      37.677      47.395      59.077      72.705      86.508    
  97.113      101.08      95.761      80.162      55.668      26.289     -1.9207     -22.340      4.0866      10.043    
  26.289      48.530      71.271      89.502      99.947      101.57      95.405      83.898      70.180      57.196    
  46.095      36.827      29.253      23.188      18.419      14.716      11.856      9.6478      7.9439      6.6359    
  5.6432      4.9022      4.3609      3.9777      3.7222      3.5751      3.5271      3.5751      3.7222      3.9777    
  4.3609      4.9022      5.6432      6.6359      7.9439      9.6478      11.856      14.716      18.419      23.188    
  29.253      36.827      46.095      57.196      70.180      83.898      95.405      101.57      99.947      89.502    
  71.271      48.530      26.289      10.043      39.784      44.068      55.668      71.271      86.646      97.960    
  102.78      100.48      92.131      79.956      66.704      54.664      44.338      35.676      28.566      22.849    
  18.331      14.801      12.056      9.9216      8.2646      6.9859      6.0109      5.2797      4.7428      4.3609    
  4.1051      3.9577      3.9094      3.9577      4.1051      4.3609      4.7428      5.2797      6.0109      6.9859    
  8.2646      9.9216      12.056      14.801      18.331      22.849      28.566      35.676      44.338      54.664    
  66.704      79.956      92.131      100.48      102.78      97.960      86.646      71.271      55.668      44.068    
  70.252      72.954      80.162      89.502      97.960      102.85      102.57      96.906      86.956      74.712    
  62.476      51.591      42.195      34.269      27.728      22.441      18.236      14.925      12.329      10.294    
  8.7026      7.4676      6.5209      5.8070      5.2797      4.9022      4.6482      4.5014      4.4532      4.5014    
  4.6482      4.9022      5.2797      5.8070      6.5209      7.4676      8.7026      10.294      12.329      14.925    
  18.236      22.441      27.728      34.269      42.195      51.591      62.476      74.712      86.956      96.906    
  102.57      102.85      97.960      89.502      80.162      72.954      90.798      92.188      95.761      99.947    
  102.78      102.57      98.435      90.533      79.976      68.494      57.718      48.111      39.758      32.666    
  26.779      21.989      18.152      15.104      12.692      10.784      9.2827      8.1102      7.2065      6.5209    
  6.0109      5.6432      5.3945      5.2501      5.2027      5.2501      5.3945      5.6432      6.0109      6.5209    
  7.2065      8.1102      9.2827      10.784      12.692      15.104      18.152      21.989      26.779      32.666    
  39.758      48.111      57.718      68.494      79.976      90.533      98.435      102.57      102.78      99.947    
  95.761      92.188      99.713      100.15      101.08      101.57      100.48      96.906      90.533      81.798    
  71.781      61.844      52.647      44.377      37.131      30.939      25.766      21.529      18.105      15.361    
  13.169      11.422      10.038      8.9518      8.1102      7.4676      6.9859      6.6359      6.3976      6.2588    
  6.2131      6.2588      6.3976      6.6359      6.9859      7.4676      8.1102      8.9518      10.038      11.422    
  13.169      15.361      18.105      21.529      25.766      30.939      37.131      44.377      52.647      61.844    
  71.781      81.798      90.533      96.906      100.48      101.57      101.08      100.15      97.970      97.804    
  97.113      95.405      92.131      86.956      79.976      71.781      63.303      55.119      47.476      40.545    
  34.429      29.168      24.746      21.098      18.127      15.725      13.791      12.241      11.008      10.038    
  9.2827      8.7026      8.2646      7.9439      7.7241      7.5956      7.5532      7.5956      7.7241      7.9439    
  8.2646      8.7026      9.2827      10.038      11.008      12.241      13.791      15.725      18.127      21.098    
  24.746      29.168      34.429      40.545      47.476      55.119      63.303      71.781      79.976      86.956    
  92.131      95.405      97.113      97.804      88.397      87.945      86.508      83.898      79.956      74.712    
  68.494      61.844      55.119      48.570      42.401      36.765      31.760      27.433      23.776      20.741    
  18.253      16.231      14.596      13.284      12.241      11.422      10.784      10.294      9.9216      9.6478    
  9.4594      9.3489      9.3124      9.3489      9.4594      9.6478      9.9216      10.294      10.784      11.422    
  12.241      13.284      14.596      16.231      18.253      20.741      23.776      27.433      31.760      36.765    
  42.401      48.570      55.119      61.844      68.494      74.712      79.956      83.898      86.508      87.945    
  74.711      74.213      72.705      70.180      66.704      62.476      57.718      52.647      47.476      42.401    
  37.588      33.166      29.225      25.806      22.908      20.498      18.520      16.913      15.622      14.596    
  13.791      13.169      12.692      12.329      12.056      11.856      11.719      11.639      11.612      11.639    
  11.719      11.856      12.056      12.329      12.692      13.169      13.791      14.596      15.622      16.913    
  18.520      20.498      22.908      25.806      29.225      33.166      37.588      42.401      47.476      52.647    
  57.718      62.476      66.704      70.180      72.705      74.213      60.625      60.235      59.077      57.196    
  54.664      51.591      48.111      44.377      40.545      36.765      33.166      29.855      26.903      24.347    
  22.189      20.406      18.961      17.810      16.913      16.231      15.725      15.361      15.104      14.925    
  14.801      14.716      14.661      14.630      14.620      14.630      14.661      14.716      14.801      14.925    
  15.104      15.361      15.725      16.231      16.913      17.810      18.961      20.406      22.189      24.347    
  26.903      29.855      33.166      36.765      40.545      44.377      48.111      51.591      54.664      57.196    
  59.077      60.235      48.461      48.192      47.395      46.095      44.338      42.195      39.758      37.131    
  34.429      31.760      29.225      26.903      24.852      23.100      21.653      20.498      19.610      18.961    
  18.520      18.253      18.127      18.105      18.152      18.236      18.331      18.419      18.489      18.533    
  18.548      18.533      18.489      18.419      18.331      18.236      18.152      18.105      18.127      18.253    
  18.520      18.961      19.610      20.498      21.653      23.100      24.852      26.903      29.225      31.760    
  34.429      37.131      39.758      42.195      44.338      46.095      47.395      48.192      38.372      38.197    
  37.677      36.827      35.676      34.269      32.666      30.939      29.168      27.433      25.806      24.347    
  23.100      22.090      21.323      20.797      20.498      20.406      20.498      20.741      21.098      21.529    
  21.989      22.441      22.849      23.188      23.440      23.595      23.647      23.595      23.440      23.188    
  22.849      22.441      21.989      21.529      21.098      20.741      20.498      20.406      20.498      20.797    
  21.323      22.090      23.100      24.347      25.806      27.433      29.168      30.939      32.666      34.269    
  35.676      36.827      37.677      38.197      30.174      30.069      29.759      29.253      28.566      27.728    
  26.779      25.766      24.746      23.776      22.908      22.189      21.653      21.323      21.212      21.323    
  21.653      22.189      22.908      23.776      24.746      25.766      26.779      27.728      28.566      29.253    
  29.759      30.069      30.174      30.069      29.759      29.253      28.566      27.728      26.779      25.766    
  24.746      23.776      22.908      22.189      21.653      21.323      21.212      21.323      21.653      22.189    
  22.908      23.776      24.746      25.766      26.779      27.728      28.566      29.253      29.759      30.069    
  23.647      23.595      23.440      23.188      22.849      22.441      21.989      21.529      21.098      20.741    
  20.498      20.406      20.498      20.797      21.323      22.090      23.100      24.347      25.806      27.433    
  29.168      30.939      32.666      34.269      35.676      36.827      37.677      38.197      38.372      38.197    
  37.677      36.827      35.676      34.269      32.666      30.939      29.168      27.433      25.806      24.347    
  23.100      22.090      21.323      20.797      20.498      20.406      20.498      20.741      21.098      21.529    
  21.989      22.441      22.849      23.188      23.440      23.595      18.548      18.533      18.489      18.419    
  18.331      18.236      18.152      18.105      18.127      18.253      18.520      18.961      19.610      20.498    
  21.653      23.100      24.852      26.903      29.225      31.760      34.429      37.131      39.758      42.195    
  44.338      46.095      47.395      48.192      48.461      48.192      47.395      46.095      44.338      42.195    
  39.758      37.131      34.429      31.760      29.225      26.903      24.852      23.100      21.653      20.498    
  19.610      18.961      18.520      18.253      18.127      18.105      18.152      18.236      18.331      18.419    
  18.489      18.533      14.620      14.630      14.661      14.716      14.801      14.925      15.104      15.361    
  15.725      16.231      16.913      17.810      18.961      20.406      22.189      24.347      26.903      29.855    
  33.166      36.765      40.545      44.377      48.111      51.591      54.664      57.196      59.077      60.235    
  60.625      60.235      59.077      57.196      54.664      51.591      48.111      44.377      40.545      36.765    
  33.166      29.855      26.903      24.347      22.189      20.406      18.961      17.810      16.913      16.231    
  15.725      15.361      15.104      14.925      14.801      14.716      14.661      14.630      11.612      11.639    
  11.719      11.856      12.056      12.329      12.692      13.169      13.791      14.596      15.622      16.913    
  18.520      20.498      22.908      25.806      29.225      33.166      37.588      42.401      47.476      52.647    
  57.718      62.476      66.704      70.180      72.705      74.213      74.711      74.213      72.705      70.180    
  66.704      62.476      57.718      52.647      47.476      42.401      37.588      33.166      29.225      25.806    
  22.908      20.498      18.520      16.913      15.622      14.596      13.791      13.169      12.692      12.329    
  12.056      11.856      11.719      11.639      9.3124      9.3489      9.4594      9.6478      9.9216      10.294    
  10.784      11.422      12.241      13.284      14.596      16.231      18.253      20.741      23.776      27.433    
  31.760      36.765      42.401      48.570      55.119      61.844      68.494      74.712      79.956      83.898    
  86.508      87.945      88.397      87.945      86.508      83.898      79.956      74.712      68.494      61.844    
  55.119      48.570      42.401      36.765      31.760      27.433      23.776      20.741      18.253      16.231    
  14.596      13.284      12.241      11.422      10.784      10.294      9.9216      9.6478      9.4594      9.3489    
  7.5532      7.5956      7.7241      7.9439      8.2646      8.7026      9.2827      10.038      11.008      12.241    
  13.791      15.725      18.127      21.098      24.746      29.168      34.429      40.545      47.476      55.119    
  63.303      71.781      79.976      86.956      92.131      95.405      97.113      97.804      97.970      97.804    
  97.113      95.405      92.131      86.956      79.976      71.781      63.303      55.119      47.476      40.545    
  34.429      29.168      24.746      21.098      18.127      15.725      13.791      12.241      11.008      10.038    
  9.2827      8.7026      8.2646      7.9439      7.7241      7.5956      6.2131      6.2588      6.3976      6.6359    
  6.9859      7.4676      8.1102      8.9518      10.038      11.422      13.169      15.361      18.105      21.529    
  25.766      30.939      37.131      44.377      52.647      61.844      71.781      81.798      90.533      96.906    
  100.48      101.57      101.08      100.15      99.713      100.15      101.08      101.57      100.48      96.906    
  90.533      81.798      71.781      61.844      52.647      44.377      37.131      30.939      25.766      21.529    
  18.105      15.361      13.169      11.422      10.038      8.9518      8.1102      7.4676      6.9859      6.6359    
  6.3976      6.2588      5.2027      5.2501      5.3945      5.6432      6.0109      6.5209      7.2065      8.1102    
  9.2827      10.784      12.692      15.104      18.152      21.989      26.779      32.666      39.758      48.111    
  57.718      68.494      79.976      90.533      98.435      102.57      102.78      99.947      95.761      92.188    
  90.798      92.188      95.761      99.947      102.78      102.57      98.435      90.533      79.976      68.494    
  57.718      48.111      39.758      32.666      26.779      21.989      18.152      15.104      12.692      10.784    
  9.2827      8.1102      7.2065      6.5209      6.0109      5.6432      5.3945      5.2501      4.4532      4.5014    
  4.6482      4.9022      5.2797      5.8070      6.5209      7.4676      8.7026      10.294      12.329      14.925    
  18.236      22.441      27.728      34.269      42.195      51.591      62.476      74.712      86.956      96.906    
  102.57      102.85      97.960      89.502      80.162      72.954      70.252      72.954      80.162      89.502    
  97.960      102.85      102.57      96.906      86.956      74.712      62.476      51.591      42.195      34.269    
  27.728      22.441      18.236      14.925      12.329      10.294      8.7026      7.4676      6.5209      5.8070    
  5.2797      4.9022      4.6482      4.5014      3.9094      3.9577      4.1051      4.3609      4.7428      5.2797    
  6.0109      6.9859      8.2646      9.9216      12.056      14.801      18.331      22.849      28.566      35.676    
  44.338      54.664      66.704      79.956      92.131      100.48      102.78      97.960      86.646      71.271    
  55.668      44.068      39.784      44.068      55.668      71.271      86.646      97.960      102.78      100.48    
  92.131      79.956      66.704      54.664      44.338      35.676      28.566      22.849      18.331      14.801    
  12.056      9.9216      8.2646      6.9859      6.0109      5.2797      4.7428      4.3609      4.1051      3.9577    
  3.5271      3.5751      3.7222      3.9777      4.3609      4.9022      5.6432      6.6359      7.9439      9.6478    
  11.856      14.716      18.419      23.188      29.253      36.827      46.095      57.196      70.180      83.898    
  95.405      101.57      99.947      89.502      71.271      48.530      26.289      10.043      4.0866      10.043    
  26.289      48.530      71.271      89.502      99.947      101.57      95.405      83.898      70.180      57.196    
  46.095      36.827      29.253      23.188      18.419      14.716      11.856      9.6478      7.9439      6.6359    
  5.6432      4.9022      4.3609      3.9777      3.7222      3.5751      3.2734      3.3213      3.4676      3.7222    
  4.1051      4.6482      5.3945      6.3976      7.7241      9.4594      11.719      14.661      18.489      23.440    
  29.759      37.677      47.395      59.077      72.705      86.508      97.113      101.08      95.761      80.162    
  55.668      26.289     -1.9207     -22.340     -29.799     -22.340     -1.9207      26.289      55.668      80.162    
  95.761      101.08      97.113      86.508      72.705      59.077      47.395      37.677      29.759      23.440    
  18.489      14.661      11.719      9.4594      7.7241      6.3976      5.3945      4.6482      4.1051      3.7222    
  3.4676      3.3213      3.1279      3.1755      3.3213      3.5751      3.9577      4.5014      5.2501      6.2588    
  7.5956      9.3489      11.639      14.630      18.533      23.595      30.069      38.197      48.192      60.235    
  74.213      87.945      97.804      100.15      92.188      72.954      44.068      10.043     -22.340     -45.676    
 -54.185     -45.676     -22.340      10.043      44.068      72.954      92.188      100.15      97.804      87.945    
  74.213      60.235      48.192      38.197      30.069      23.595      18.533      14.630      11.639      9.3489    
  7.5956      6.2588      5.2501      4.5014      3.9577      3.5751      3.3213      3.1755      3.0803      3.1279    
  3.2734      3.5271      3.9094      4.4532      5.2027      6.2131      7.5532      9.3124      11.612      14.620    
  18.548      23.647      30.174      38.372      48.461      60.625      74.711      88.397      97.970      99.713    
  90.798      70.252      39.784      4.0866     -29.799     -54.185     -63.071     -54.185     -29.799      4.0866    
  39.784      70.252      90.798      99.713      97.970      88.397      74.711      60.625      48.461      38.372    
  30.174      23.647      18.548      14.620      11.612      9.3124      7.5532      6.2131      5.2027      4.4532    
  3.9094      3.5271      3.2734      3.1279      3.1279      3.1755      3.3213      3.5751      3.9577      4.5014    
  5.2501      6.2588      7.5956      9.3489      11.639      14.630      18.533      23.595      30.069      38.197    
  48.192      60.235      74.213      87.945      97.804      100.15      92.188      72.954      44.068      10.043    
 -22.340     -45.676     -54.185     -45.676     -22.340      10.043      44.068      72.954      92.188      100.15    
  97.804      87.945      74.213      60.235      48.192      38.197      30.069      23.595      18.533      14.630    
  11.639      9.3489      7.5956      6.2588      5.2501      4.5014      3.9577      3.5751      3.3213      3.1755    
  3.2734      3.3213      3.4676      3.7222      4.1051      4.6482      5.3945      6.3976      7.7241      9.4594    
  11.719      14.661      18.489      23.440      29.759      37.677      47.395      59.077      72.705      86.508    
  97.113      101.08      95.761      80.162      55.668      26.289     -1.9207     -22.340     -29.799     -22.340    
 -1.9207      26.289      55.668      80.162      95.761      101.08      97.113      86.508      72.705      59.077    
  47.395      37.677      29.759      23.440      18.489      14.661      11.719      9.4594      7.7241      6.3976    
  5.3945      4.6482      4.1051      3.7222      3.4676      3.3213      3.5271      3.5751      3.7222      3.9777    
  4.3609      4.9022      5.6432      6.6359      7.9439      9.6478      11.856      14.716      18.419      23.188    
  29.253      36.827      46.095      57.196      70.180      83.898      95.405      101.57      99.947      89.502    
  71.271      48.530      26.289      10.043      4.0866      10.043      26.289      48.530      71.271      89.502    
  99.947      101.57      95.405      83.898      70.180      57.196      46.095      36.827      29.253      23.188    
  18.419      14.716      11.856      9.6478      7.9439      6.6359      5.6432      4.9022      4.3609      3.9777    
  3.7222      3.5751      3.9094      3.9577      4.1051      4.3609      4.7428      5.2797      6.0109      6.9859    
  8.2646      9.9216      12.056      14.801      18.331      22.849      28.566      35.676      44.338      54.664    
  66.704      79.956      92.131      100.48      102.78      97.960      86.646      71.271      55.668      44.068    
  39.784      44.068      55.668      71.271      86.646      97.960      102.78      100.48      92.131      79.956    
  66.704      54.664      44.338      35.676      28.566      22.849      18.331      14.801      12.056      9.9216    
  8.2646      6.9859      6.0109      5.2797      4.7428      4.3609      4.1051      3.9577      4.4532      4.5014    
  4.6482      4.9022      5.2797      5.8070      6.5209      7.4676      8.7026      10.294      12.329      14.925    
  18.236      22.441      27.728      34.269      42.195      51.591      62.476      74.712      86.956      96.906    
  102.57      102.85      97.960      89.502      80.162      72.954      70.252      72.954      80.162      89.502    
  97.960      102.85      102.57      96.906      86.956      74.712      62.476      51.591      42.195      34.269    
  27.728      22.441      18.236      14.925      12.329      10.294      8.7026      7.4676      6.5209      5.8070    
  5.2797      4.9022      4.6482      4.5014      5.2027      5.2501      5.3945      5.6432      6.0109      6.5209    
  7.2065      8.1102      9.2827      10.784      12.692      15.104      18.152      21.989      26.779      32.666    
  39.758      48.111      57.718      68.494      79.976      90.533      98.435      102.57      102.78      99.947    
  95.761      92.188      90.798      92.188      95.761      99.947      102.78      102.57      98.435      90.533    
  79.976      68.494      57.718      48.111      39.758      32.666      26.779      21.989      18.152      15.104    
  12.692      10.784      9.2827      8.1102      7.2065      6.5209      6.0109      5.6432      5.3945      5.2501    
  6.2131      6.2588      6.3976      6.6359      6.9859      7.4676      8.1102      8.9518      10.038      11.422    
  13.169      15.361      18.105      21.529      25.766      30.939      37.131      44.377      52.647      61.844    
  71.781      81.798      90.533      96.906      100.48      101.57      101.08      100.15      99.713      100.15    
  101.08      101.57      100.48      96.906      90.533      81.798      71.781      61.844      52.647      44.377    
  37.131      30.939      25.766      21.529      18.105      15.361      13.169      11.422      10.038      8.9518    
  8.1102      7.4676      6.9859      6.6359      6.3976      6.2588      7.5532      7.5956      7.7241      7.9439    
  8.2646      8.7026      9.2827      10.038      11.008      12.241      13.791      15.725      18.127      21.098    
  24.746      29.168      34.429      40.545      47.476      55.119      63.303      71.781      79.976      86.956    
  92.131      95.405      97.113      97.804      97.970      97.804      97.113      95.405      92.131      86.956    
  79.976      71.781      63.303      55.119      47.476      40.545      34.429      29.168      24.746      21.098    
  18.127      15.725      13.791      12.241      11.008      10.038      9.2827      8.7026      8.2646      7.9439    
  7.7241      7.5956      9.3124      9.3489      9.4594      9.6478      9.9216      10.294      10.784      11.422    
  12.241      13.284      14.596      16.231      18.253      20.741      23.776      27.433      31.760      36.765    
  42.401      48.570      55.119      61.844      68.494      74.712      79.956      83.898      86.508      87.945    
  88.397      87.945      86.508      83.898      79.956      74.712      68.494      61.844      55.119      48.570    
  42.401      36.765      31.760      27.433      23.776      20.741      18.253      16.231      14.596      13.284    
  12.241      11.422      10.784      10.294      9.9216      9.6478      9.4594      9.3489      11.612      11.639    
  11.719      11.856      12.056      12.329      12.692      13.169      13.791      14.596      15.622      16.913    
  18.520      20.498      22.908      25.806      29.225      33.166      37.588      42.401      47.476      52.647    
  57.718      62.476      66.704      70.180      72.705      74.213      74.711      74.213      72.705      70.180    
  66.704      62.476      57.718      52.647      47.476      42.401      37.588      33.166      29.225      25.806    
  22.908      20.498      18.520      16.913      15.622      14.596      13.791      13.169      12.692      12.329    
  12.056      11.856      11.719      11.639      14.620      14.630      14.661      14.716      14.801      14.925    
  15.104      15.361      15.725      16.231      16.913      17.810      18.961      20.406      22.189      24.347    
  26.903      29.855      33.166      36.765      40.545      44.377      48.111      51.591      54.664      57.196    
  59.077      60.235      60.625      60.235      59.077      57.196      54.664      51.591      48.111      44.377    
  40.545      36.765      33.166      29.855      26.903      24.347      22.189      20.406      18.961      17.810    
  16.913      16.231      15.725      15.361      15.104      14.925      14.801      14.716      14.661      14.630    
  18.548      18.533      18.489      18.419      18.331      18.236      18.152      18.105      18.127      18.253    
  18.520      18.961      19.610      20.498      21.653      23.100      24.852      26.903      29.225      31.760    
  34.429      37.131      39.758      42.195      44.338      46.095      47.395      48.192      48.461      48.192    
  47.395      46.095      44.338      42.195      39.758      37.131      34.429      31.760      29.225      26.903    
  24.852      23.100      21.653      20.498      19.610      18.961      18.520      18.253      18.127      18.105    
  18.152      18.236      18.331      18.419      18.489      18.533      23.647      23.595      23.440      23.188    
  22.849      22.441      21.989      21.529      21.098      20.741      20.498      20.406      20.498      20.797    
  21.323      22.090      23.100      24.347      25.806      27.433      29.168      30.939      32.666      34.269    
  35.676      36.827      37.677      38.197      38.372      38.197      37.677      36.827      35.676      34.269    
  32.666      30.939      29.168      27.433      25.806      24.347      23.100      22.090      21.323      20.797    
  20.498      20.406      20.498      20.741      21.098      21.529      21.989      22.441      22.849      23.188    
  23.440      23.595      30.174      30.069      29.759      29.253      28.566      27.728      26.779      25.766    
  24.746      23.776      22.908      22.189      21.653      21.323      21.212      21.323      21.653      22.189    
  22.908      23.776      24.746      25.766      26.779      27.728      28.566      29.253      29.759      30.069    
  30.174      30.069      29.759      29.253      28.566      27.728      26.779      25.766      24.746      23.776    
  22.908      22.189      21.653      21.323      21.212      21.323      21.653      22.189      22.908      23.776    
  24.746      25.766      26.779      27.728      28.566      29.253      29.759      30.069      38.372      38.197    
  37.677      36.827      35.676      34.269      32.666      30.939      29.168      27.433      25.806      24.347    
  23.100      22.090      21.323      20.797      20.498      20.406      20.498      20.741      21.098      21.529    