GaAs                                    
   4.50000000000000     
     1.211973    0.000000   -0.000000
    -0.000000    1.211973   -0.000000
     0.000000   -0.000000    1.211973
   As   Ga
     4     4
Direct
  0.000000  0.000000  0.000000
  0.500000  0.500000  0.000000
  0.500000  0.000000  0.500000
  0.000000  0.500000  0.500000
  0.250000  0.250000  0.250000
  0.750000  0.250000  0.750000
  0.750000  0.750000  0.250000
  0.250000  0.750000  0.750000
 
   56   56   56
 -.62369194770E+02 -.53792835884E+02 -.30216900299E+02 0.26556712144E+01 0.37480405074E+02
 0.67470503213E+02 0.88030127293E+02 0.97395865813E+02 0.96379651632E+02 0.87597740444E+02
 0.74559451694E+02 0.60825178775E+02 0.48819909126E+02 0.38805870641E+02 0.30621997008E+02
 0.24070690233E+02 0.18927498466E+02 0.14949130901E+02 0.11895028400E+02 0.95540758312E+01
 0.77603117885E+01 0.63915122897E+01 0.53577262763E+01 0.45897514000E+01 0.40320339386E+01
 0.36399089715E+01 0.33798979710E+01 0.32306839052E+01 0.31818868502E+01 0.32306839052E+01
 0.33798979710E+01 0.36399089715E+01 0.40320339386E+01 0.45897514000E+01 0.53577262763E+01
 0.63915122897E+01 0.77603117885E+01 0.95540758312E+01 0.11895028400E+02 0.14949130901E+02
 0.18927498466E+02 0.24070690233E+02 0.30621997008E+02 0.38805870641E+02 0.48819909126E+02
 0.60825178775E+02 0.74559451694E+02 0.87597740444E+02 0.96379651632E+02 0.97395865813E+02
 0.88030127293E+02 0.67470503213E+02 0.37480405074E+02 0.26556712144E+01 -.30216900299E+02
 -.53792835884E+02 -.53792835884E+02 -.45573960762E+02 -.22993251234E+02 0.84509859954E+01
 0.41678362581E+02 0.70148383720E+02 0.89438903057E+02 0.97870091727E+02 0.96261022434E+02
 0.87185550907E+02 0.74085449867E+02 0.60443630459E+02 0.48555757487E+02 0.38632634622E+02
 0.30517831090E+02 0.24017953612E+02 0.18911806021E+02 0.14958906736E+02 0.11921432555E+02
 0.95908228965E+01 0.78032159544E+01 0.64379232556E+01 0.54060186559E+01 0.46389194129E+01
 0.40814358214E+01 0.36891797193E+01 0.34289284438E+01 0.32795389777E+01 0.32306839052E+01
 0.32795389777E+01 0.34289284438E+01 0.36891797193E+01 0.40814358214E+01 0.46389194129E+01
 0.54060186559E+01 0.64379232556E+01 0.78032159544E+01 0.95908228965E+01 0.11921432555E+02
 0.14958906736E+02 0.18911806021E+02 0.24017953612E+02 0.30517831090E+02 0.38632634622E+02
 0.48555757487E+02 0.60443630459E+02 0.74085449867E+02 0.87185550907E+02 0.96261022434E+02
 0.97870091727E+02 0.89438903057E+02 0.70148383720E+02 0.41678362581E+02 0.84509859954E+01
 -.22993251234E+02 -.45573960762E+02 -.30216900299E+02 -.22993251234E+02 -.31830136188E+01
 0.24285800187E+02 0.53069042406E+02 0.77313702924E+02 0.93083943804E+02 0.98935849014E+02
 0.95710634791E+02 0.85863813552E+02 0.72645426405E+02 0.59310902227E+02 0.47770334454E+02
 0.38116835926E+02 0.30207509100E+02 0.23861016693E+02 0.18865566363E+02 0.14988940986E+02
 0.12001449830E+02 0.97021377353E+01 0.79333785936E+01 0.65790145830E+01 0.55531170244E+01
 0.47889152216E+01 0.42323093820E+01 0.38397614986E+01 0.35788348666E+01 0.34289284438E+01
 0.33798979710E+01 0.34289284438E+01 0.35788348666E+01 0.38397614986E+01 0.42323093820E+01
 0.47889152216E+01 0.55531170244E+01 0.65790145830E+01 0.79333785936E+01 0.97021377353E+01
 0.12001449830E+02 0.14988940986E+02 0.18865566363E+02 0.23861016693E+02 0.30207509100E+02
 0.38116835926E+02 0.47770334454E+02 0.59310902227E+02 0.72645426405E+02 0.85863813552E+02
 0.95710634791E+02 0.98935849014E+02 0.93083943804E+02 0.77313702924E+02 0.53069042406E+02
 0.24285800187E+02 -.31830136188E+01 -.22993251234E+02 0.26556712144E+01 0.84509859954E+01
 0.24285800187E+02 0.46052719351E+02 0.68468104593E+02 0.86671994295E+02 0.97435568986E+02
 0.99663180677E+02 0.94233711981E+02 0.83430284310E+02 0.70214885206E+02 0.57465116529E+02
 0.46486692048E+02 0.37271829385E+02 0.29698774331E+02 0.23604507708E+02 0.18791802206E+02
 0.15041711431E+02 0.12137831757E+02 0.98916454298E+01 0.81556647221E+01 0.68210085437E+01
 0.58064911999E+01 0.50482177211E+01 0.44938941928E+01 0.41014425070E+01 0.38397614986E+01
 0.36891797193E+01 0.36399089715E+01 0.36891797193E+01 0.38397614986E+01 0.41014425070E+01
 0.44938941928E+01 0.50482177211E+01 0.58064911999E+01 0.68210085437E+01 0.81556647221E+01
 0.98916454298E+01 0.12137831757E+02 0.15041711431E+02 0.18791802206E+02 0.23604507708E+02
 0.29698774331E+02 0.37271829385E+02 0.46486692048E+02 0.57465116529E+02 0.70214885206E+02
 0.83430284310E+02 0.94233711981E+02 0.99663180677E+02 0.97435568986E+02 0.86671994295E+02
 0.68468104593E+02 0.46052719351E+02 0.24285800187E+02 0.84509859954E+01 0.37480405074E+02
 0.41678362581E+02 0.53069042406E+02 0.68468104593E+02 0.83787500415E+02 0.95292419175E+02
 0.10056314841E+03 0.98910621200E+02 0.91263220028E+02 0.79701478663E+02 0.66836360958E+02
 0.54975291268E+02 0.44748106893E+02 0.36124094702E+02 0.29007787716E+02 0.23258405495E+02
 0.18697101594E+02 0.15122560588E+02 0.12336363493E+02 0.10166773487E+02 0.84798347271E+01
 0.71762118965E+01 0.61808327913E+01 0.54335486299E+01 0.48845638465E+01 0.44938941928E+01
 0.42323093820E+01 0.40814358214E+01 0.40320339386E+01 0.40814358214E+01 0.42323093820E+01
 0.44938941928E+01 0.48845638465E+01 0.54335486299E+01 0.61808327913E+01 0.71762118965E+01
 0.84798347271E+01 0.10166773487E+02 0.12336363493E+02 0.15122560588E+02 0.18697101594E+02
 0.23258405495E+02 0.29007787716E+02 0.36124094702E+02 0.44748106893E+02 0.54975291268E+02
 0.66836360958E+02 0.79701478663E+02 0.91263220028E+02 0.98910621200E+02 0.10056314841E+03
 0.95292419175E+02 0.83787500415E+02 0.68468104593E+02 0.53069042406E+02 0.41678362581E+02
 0.67470503213E+02 0.70148383720E+02 0.77313702924E+02 0.86671994295E+02 0.95292419175E+02
 0.10053739353E+03 0.10078613821E+03 0.95758354060E+02 0.86432280145E+02 0.74670791478E+02
 0.62689971265E+02 0.51943211694E+02 0.42620912313E+02 0.34716293862E+02 0.28161796188E+02
 0.22840187733E+02 0.18593429080E+02 0.15241415384E+02 0.12607659223E+02 0.10540675912E+02
 0.89225578859E+01 0.76650416402E+01 0.67000264042E+01 0.59717410093E+01 0.54335486299E+01
 0.50482177211E+01 0.47889152216E+01 0.46389194129E+01 0.45897514000E+01 0.46389194129E+01
 0.47889152216E+01 0.50482177211E+01 0.54335486299E+01 0.59717410093E+01 0.67000264042E+01
 0.76650416402E+01 0.89225578859E+01 0.10540675912E+02 0.12607659223E+02 0.15241415384E+02
 0.18593429080E+02 0.22840187733E+02 0.28161796188E+02 0.34716293862E+02 0.42620912313E+02
 0.51943211694E+02 0.62689971265E+02 0.74670791478E+02 0.86432280145E+02 0.95758354060E+02
 0.10078613821E+03 0.10053739353E+03 0.95292419175E+02 0.86671994295E+02 0.77313702924E+02
 0.70148383720E+02 0.88030127293E+02 0.89438903057E+02 0.93083943804E+02 0.97435568986E+02
 0.10056314841E+03 0.10078613821E+03 0.97188549196E+02 0.89851714560E+02 0.79784643886E+02
 0.68619788897E+02 0.58006682703E+02 0.48498988453E+02 0.40193194382E+02 0.33107485291E+02
 0.27199997663E+02 0.22376066896E+02 0.18499680886E+02 0.15414593189E+02 0.12969069431E+02
 0.11034045888E+02 0.95089480966E+01 0.83171654255E+01 0.73978563516E+01 0.67000264042E+01
 0.61808327913E+01 0.58064911999E+01 0.55531170244E+01 0.54060186559E+01 0.53577262763E+01
 0.54060186559E+01 0.55531170244E+01 0.58064911999E+01 0.61808327913E+01 0.67000264042E+01
 0.73978563516E+01 0.83171654255E+01 0.95089480966E+01 0.11034045888E+02 0.12969069431E+02
 0.15414593189E+02 0.18499680886E+02 0.22376066896E+02 0.27199997663E+02 0.33107485291E+02
 0.40193194382E+02 0.48498988453E+02 0.58006682703E+02 0.68619788897E+02 0.79784643886E+02
 0.89851714560E+02 0.97188549196E+02 0.10078613821E+03 0.10056314841E+03 0.97435568986E+02
 0.93083943804E+02 0.89438903057E+02 0.97395865813E+02 0.97870091727E+02 0.98935849014E+02
 0.99663180677E+02 0.98910621200E+02 0.95758354060E+02 0.89851714560E+02 0.81549092254E+02
 0.71848475382E+02 0.62082817620E+02 0.52997180143E+02 0.44790922252E+02 0.37569148432E+02
 0.31369972764E+02 0.26172001115E+02 0.21900653327E+02 0.18442202117E+02 0.15665753664E+02
 0.13445629643E+02 0.11675711247E+02 0.10272623697E+02 0.91710330860E+01 0.83171654255E+01
 0.76650416402E+01 0.71762118965E+01 0.68210085437E+01 0.65790145830E+01 0.64379232556E+01
 0.63915122897E+01 0.64379232556E+01 0.65790145830E+01 0.68210085437E+01 0.71762118965E+01
 0.76650416402E+01 0.83171654255E+01 0.91710330860E+01 0.10272623697E+02 0.11675711247E+02
 0.13445629643E+02 0.15665753664E+02 0.18442202117E+02 0.21900653327E+02 0.26172001115E+02
 0.31369972764E+02 0.37569148432E+02 0.44790922252E+02 0.52997180143E+02 0.62082817620E+02
 0.71848475382E+02 0.81549092254E+02 0.89851714560E+02 0.95758354060E+02 0.98910621200E+02
 0.99663180677E+02 0.98935849014E+02 0.97870091727E+02 0.96379651632E+02 0.96261022434E+02
 0.95710634791E+02 0.94233711981E+02 0.91263220028E+02 0.86432280145E+02 0.79784643886E+02
 0.71848475382E+02 0.63522792446E+02 0.55445171257E+02 0.47870910377E+02 0.40973114121E+02
 0.34860837585E+02 0.29583705898E+02 0.25134240380E+02 0.21454906239E+02 0.18453715018E+02
 0.16025219906E+02 0.14069314342E+02 0.12501601525E+02 0.11254438129E+02 0.10272623697E+02
 0.95089480966E+01 0.89225578859E+01 0.84798347271E+01 0.81556647221E+01 0.79333785936E+01
 0.78032159544E+01 0.77603117885E+01 0.78032159544E+01 0.79333785936E+01 0.81556647221E+01
 0.84798347271E+01 0.89225578859E+01 0.95089480966E+01 0.10272623697E+02 0.11254438129E+02
 0.12501601525E+02 0.14069314342E+02 0.16025219906E+02 0.18453715018E+02 0.21454906239E+02
 0.25134240380E+02 0.29583705898E+02 0.34860837585E+02 0.40973114121E+02 0.47870910377E+02
 0.55445171257E+02 0.63522792446E+02 0.71848475382E+02 0.79784643886E+02 0.86432280145E+02
 0.91263220028E+02 0.94233711981E+02 0.95710634791E+02 0.96261022434E+02 0.87597740444E+02
 0.87185550907E+02 0.85863813552E+02 0.83430284310E+02 0.79701478663E+02 0.74670791478E+02
 0.68619788897E+02 0.62082817620E+02 0.55445171257E+02 0.48956732240E+02 0.42821277154E+02
 0.37193869395E+02 0.32179221433E+02 0.27829502940E+02 0.24145115354E+02 0.21082715081E+02
 0.18570755215E+02 0.16527806116E+02 0.14877077309E+02 0.13553143275E+02 0.12501601525E+02
 0.11675711247E+02 0.11034045888E+02 0.10540675912E+02 0.10166773487E+02 0.98916454298E+01
 0.97021377353E+01 0.95908228965E+01 0.95540758312E+01 0.95908228965E+01 0.97021377353E+01
 0.98916454298E+01 0.10166773487E+02 0.10540675912E+02 0.11034045888E+02 0.11675711247E+02
 0.12501601525E+02 0.13553143275E+02 0.14877077309E+02 0.16527806116E+02 0.18570755215E+02
 0.21082715081E+02 0.24145115354E+02 0.27829502940E+02 0.32179221433E+02 0.37193869395E+02
 0.42821277154E+02 0.48956732240E+02 0.55445171257E+02 0.62082817620E+02 0.68619788897E+02
 0.74670791478E+02 0.79701478663E+02 0.83430284310E+02 0.85863813552E+02 0.87185550907E+02
 0.74559451694E+02 0.74085449867E+02 0.72645426405E+02 0.70214885206E+02 0.66836360958E+02
 0.62689971265E+02 0.58006682703E+02 0.52997180143E+02 0.47870910377E+02 0.42821277154E+02
 0.38015215575E+02 0.33585728036E+02 0.29625402058E+02 0.26182053546E+02 0.23259712651E+02
 0.20826913573E+02 0.18830549909E+02 0.17210403308E+02 0.15909334648E+02 0.14877077309E+02
 0.14069314342E+02 0.13445629643E+02 0.12969069431E+02 0.12607659223E+02 0.12336363493E+02
 0.12137831757E+02 0.12001449830E+02 0.11921432555E+02 0.11895028400E+02 0.11921432555E+02
 0.12001449830E+02 0.12137831757E+02 0.12336363493E+02 0.12607659223E+02 0.12969069431E+02
 0.13445629643E+02 0.14069314342E+02 0.14877077309E+02 0.15909334648E+02 0.17210403308E+02
 0.18830549909E+02 0.20826913573E+02 0.23259712651E+02 0.26182053546E+02 0.29625402058E+02
 0.33585728036E+02 0.38015215575E+02 0.42821277154E+02 0.47870910377E+02 0.52997180143E+02
 0.58006682703E+02 0.62689971265E+02 0.66836360958E+02 0.70214885206E+02 0.72645426405E+02
 0.74085449867E+02 0.60825178775E+02 0.60443630459E+02 0.59310902227E+02 0.57465116529E+02
 0.54975291268E+02 0.51943211694E+02 0.48498988453E+02 0.44790922252E+02 0.40973114121E+02
 0.37193869395E+02 0.33585728036E+02 0.30256640131E+02 0.27282583569E+02 0.24703541605E+02
 0.22525075280E+02 0.20725861519E+02 0.19268707187E+02 0.18110876041E+02 0.17210403308E+02
 0.16527806116E+02 0.16025219906E+02 0.15665753664E+02 0.15414593189E+02 0.15241415384E+02
 0.15122560588E+02 0.15041711431E+02 0.14988940986E+02 0.14958906736E+02 0.14949130901E+02
 0.14958906736E+02 0.14988940986E+02 0.15041711431E+02 0.15122560588E+02 0.15241415384E+02
 0.15414593189E+02 0.15665753664E+02 0.16025219906E+02 0.16527806116E+02 0.17210403308E+02
 0.18110876041E+02 0.19268707187E+02 0.20725861519E+02 0.22525075280E+02 0.24703541605E+02
 0.27282583569E+02 0.30256640131E+02 0.33585728036E+02 0.37193869395E+02 0.40973114121E+02
 0.44790922252E+02 0.48498988453E+02 0.51943211694E+02 0.54975291268E+02 0.57465116529E+02
 0.59310902227E+02 0.60443630459E+02 0.48819909126E+02 0.48555757487E+02 0.47770334454E+02
 0.46486692048E+02 0.44748106893E+02 0.42620912313E+02 0.40193194382E+02 0.37569148432E+02
 0.34860837585E+02 0.32179221433E+02 0.29625402058E+02 0.27282583569E+02 0.25209787425E+02
 0.23439014851E+02 0.21977081847E+02 0.20811587839E+02 0.19918557587E+02 0.19268707187E+02
 0.18830549909E+02 0.18570755215E+02 0.18453715018E+02 0.18442202117E+02 0.18499680886E+02
 0.18593429080E+02 0.18697101594E+02 0.18791802206E+02 0.18865566363E+02 0.18911806021E+02
 0.18927498466E+02 0.18911806021E+02 0.18865566363E+02 0.18791802206E+02 0.18697101594E+02
 0.18593429080E+02 0.18499680886E+02 0.18442202117E+02 0.18453715018E+02 0.18570755215E+02
 0.18830549909E+02 0.19268707187E+02 0.19918557587E+02 0.20811587839E+02 0.21977081847E+02
 0.23439014851E+02 0.25209787425E+02 0.27282583569E+02 0.29625402058E+02 0.32179221433E+02
 0.34860837585E+02 0.37569148432E+02 0.40193194382E+02 0.42620912313E+02 0.44748106893E+02
 0.46486692048E+02 0.47770334454E+02 0.48555757487E+02 0.38805870641E+02 0.38632634622E+02
 0.38116835926E+02 0.37271829385E+02 0.36124094702E+02 0.34716293862E+02 0.33107485291E+02
 0.31369972764E+02 0.29583705898E+02 0.27829502940E+02 0.26182053546E+02 0.24703541605E+02
 0.23439014851E+02 0.22414693773E+02 0.21639623534E+02 0.21109642990E+02 0.20811587839E+02
 0.20725861519E+02 0.20826913573E+02 0.21082715081E+02 0.21454906239E+02 0.21900653327E+02
 0.22376066896E+02 0.22840187733E+02 0.23258405495E+02 0.23604507708E+02 0.23861016693E+02
 0.24017953612E+02 0.24070690233E+02 0.24017953612E+02 0.23861016693E+02 0.23604507708E+02
 0.23258405495E+02 0.22840187733E+02 0.22376066896E+02 0.21900653327E+02 0.21454906239E+02
 0.21082715081E+02 0.20826913573E+02 0.20725861519E+02 0.20811587839E+02 0.21109642990E+02
 0.21639623534E+02 0.22414693773E+02 0.23439014851E+02 0.24703541605E+02 0.26182053546E+02
 0.27829502940E+02 0.29583705898E+02 0.31369972764E+02 0.33107485291E+02 0.34716293862E+02
 0.36124094702E+02 0.37271829385E+02 0.38116835926E+02 0.38632634622E+02 0.30621997008E+02
 0.30517831090E+02 0.30207509100E+02 0.29698774331E+02 0.29007787716E+02 0.28161796188E+02
 0.27199997663E+02 0.26172001115E+02 0.25134240380E+02 0.24145115354E+02 0.23259712651E+02
 0.22525075280E+02 0.21977081847E+02 0.21639623534E+02 0.21525778065E+02 0.21639623534E+02
 0.21977081847E+02 0.22525075280E+02 0.23259712651E+02 0.24145115354E+02 0.25134240380E+02
 0.26172001115E+02 0.27199997663E+02 0.28161796188E+02 0.29007787716E+02 0.29698774331E+02
 0.30207509100E+02 0.30517831090E+02 0.30621997008E+02 0.30517831090E+02 0.30207509100E+02
 0.29698774331E+02 0.29007787716E+02 0.28161796188E+02 0.27199997663E+02 0.26172001115E+02
 0.25134240380E+02 0.24145115354E+02 0.23259712651E+02 0.22525075280E+02 0.21977081847E+02
 0.21639623534E+02 0.21525778065E+02 0.21639623534E+02 0.21977081847E+02 0.22525075280E+02
 0.23259712651E+02 0.24145115354E+02 0.25134240380E+02 0.26172001115E+02 0.27199997663E+02
 0.28161796188E+02 0.29007787716E+02 0.29698774331E+02 0.30207509100E+02 0.30517831090E+02
 0.24070690233E+02 0.24017953612E+02 0.23861016693E+02 0.23604507708E+02 0.23258405495E+02
 0.22840187733E+02 0.22376066896E+02 0.21900653327E+02 0.21454906239E+02 0.21082715081E+02
 0.20826913573E+02 0.20725861519E+02 0.20811587839E+02 0.21109642990E+02 0.21639623534E+02
 0.22414693773E+02 0.23439014851E+02 0.24703541605E+02 0.26182053546E+02 0.27829502940E+02
 0.29583705898E+02 0.31369972764E+02 0.33107485291E+02 0.34716293862E+02 0.36124094702E+02
 0.37271829385E+02 0.38116835926E+02 0.38632634622E+02 0.38805870641E+02 0.38632634622E+02
 0.38116835926E+02 0.37271829385E+02 0.36124094702E+02 0.34716293862E+02 0.33107485291E+02
 0.31369972764E+02 0.29583705898E+02 0.27829502940E+02 0.26182053546E+02 0.24703541605E+02
 0.23439014851E+02 0.22414693773E+02 0.21639623534E+02 0.21109642990E+02 0.20811587839E+02
 0.20725861519E+02 0.20826913573E+02 0.21082715081E+02 0.21454906239E+02 0.21900653327E+02
 0.22376066896E+02 0.22840187733E+02 0.23258405495E+02 0.23604507708E+02 0.23861016693E+02
 0.24017953612E+02 0.18927498466E+02 0.18911806021E+02 0.18865566363E+02 0.18791802206E+02
 0.18697101594E+02 0.18593429080E+02 0.18499680886E+02 0.18442202117E+02 0.18453715018E+02
 0.18570755215E+02 0.18830549909E+02 0.19268707187E+02 0.19918557587E+02 0.20811587839E+02
 0.21977081847E+02 0.23439014851E+02 0.25209787425E+02 0.27282583569E+02 0.29625402058E+02
 0.32179221433E+02 0.34860837585E+02 0.37569148432E+02 0.40193194382E+02 0.42620912313E+02
 0.44748106893E+02 0.46486692048E+02 0.47770334454E+02 0.48555757487E+02 0.48819909126E+02
 0.48555757487E+02 0.47770334454E+02 0.46486692048E+02 0.44748106893E+02 0.42620912313E+02
 0.40193194382E+02 0.37569148432E+02 0.34860837585E+02 0.32179221433E+02 0.29625402058E+02
 0.27282583569E+02 0.25209787425E+02 0.23439014851E+02 0.21977081847E+02 0.20811587839E+02
 0.19918557587E+02 0.19268707187E+02 0.18830549909E+02 0.18570755215E+02 0.18453715018E+02
 0.18442202117E+02 0.18499680886E+02 0.18593429080E+02 0.18697101594E+02 0.18791802206E+02
 0.18865566363E+02 0.18911806021E+02 0.14949130901E+02 0.14958906736E+02 0.14988940986E+02
 0.15041711431E+02 0.15122560588E+02 0.15241415384E+02 0.15414593189E+02 0.15665753664E+02
 0.16025219906E+02 0.16527806116E+02 0.17210403308E+02 0.18110876041E+02 0.19268707187E+02
 0.20725861519E+02 0.22525075280E+02 0.24703541605E+02 0.27282583569E+02 0.30256640131E+02
 0.33585728036E+02 0.37193869395E+02 0.40973114121E+02 0.44790922252E+02 0.48498988453E+02
 0.51943211694E+02 0.54975291268E+02 0.57465116529E+02 0.59310902227E+02 0.60443630459E+02
 0.60825178775E+02 0.60443630459E+02 0.59310902227E+02 0.57465116529E+02 0.54975291268E+02
 0.51943211694E+02 0.48498988453E+02 0.44790922252E+02 0.40973114121E+02 0.37193869395E+02
 0.33585728036E+02 0.30256640131E+02 0.27282583569E+02 0.24703541605E+02 0.22525075280E+02
 0.20725861519E+02 0.19268707187E+02 0.18110876041E+02 0.17210403308E+02 0.16527806116E+02
 0.16025219906E+02 0.15665753664E+02 0.15414593189E+02 0.15241415384E+02 0.15122560588E+02
 0.15041711431E+02 0.14988940986E+02 0.14958906736E+02 0.11895028400E+02 0.11921432555E+02
 0.12001449830E+02 0.12137831757E+02 0.12336363493E+02 0.12607659223E+02 0.12969069431E+02
 0.13445629643E+02 0.14069314342E+02 0.14877077309E+02 0.15909334648E+02 0.17210403308E+02
 0.18830549909E+02 0.20826913573E+02 0.23259712651E+02 0.26182053546E+02 0.29625402058E+02
 0.33585728036E+02 0.38015215575E+02 0.42821277154E+02 0.47870910377E+02 0.52997180143E+02
 0.58006682703E+02 0.62689971265E+02 0.66836360958E+02 0.70214885206E+02 0.72645426405E+02
 0.74085449867E+02 0.74559451694E+02 0.74085449867E+02 0.72645426405E+02 0.70214885206E+02
 0.66836360958E+02 0.62689971265E+02 0.58006682703E+02 0.52997180143E+02 0.47870910377E+02
 0.42821277154E+02 0.38015215575E+02 0.33585728036E+02 0.29625402058E+02 0.26182053546E+02
 0.23259712651E+02 0.20826913573E+02 0.18830549909E+02 0.17210403308E+02 0.15909334648E+02
 0.14877077309E+02 0.14069314342E+02 0.13445629643E+02 0.12969069431E+02 0.12607659223E+02
 0.12336363493E+02 0.12137831757E+02 0.12001449830E+02 0.11921432555E+02 0.95540758312E+01
 0.95908228965E+01 0.97021377353E+01 0.98916454298E+01 0.10166773487E+02 0.10540675912E+02
 0.11034045888E+02 0.11675711247E+02 0.12501601525E+02 0.13553143275E+02 0.14877077309E+02
 0.16527806116E+02 0.18570755215E+02 0.21082715081E+02 0.24145115354E+02 0.27829502940E+02
 0.32179221433E+02 0.37193869395E+02 0.42821277154E+02 0.48956732240E+02 0.55445171257E+02
 0.62082817620E+02 0.68619788897E+02 0.74670791478E+02 0.79701478663E+02 0.83430284310E+02
 0.85863813552E+02 0.87185550907E+02 0.87597740444E+02 0.87185550907E+02 0.85863813552E+02
 0.83430284310E+02 0.79701478663E+02 0.74670791478E+02 0.68619788897E+02 0.62082817620E+02
 0.55445171257E+02 0.48956732240E+02 0.42821277154E+02 0.37193869395E+02 0.32179221433E+02
 0.27829502940E+02 0.24145115354E+02 0.21082715081E+02 0.18570755215E+02 0.16527806116E+02
 0.14877077309E+02 0.13553143275E+02 0.12501601525E+02 0.11675711247E+02 0.11034045888E+02
 0.10540675912E+02 0.10166773487E+02 0.98916454298E+01 0.97021377353E+01 0.95908228965E+01
 0.77603117885E+01 0.78032159544E+01 0.79333785936E+01 0.81556647221E+01 0.84798347271E+01
 0.89225578859E+01 0.95089480966E+01 0.10272623697E+02 0.11254438129E+02 0.12501601525E+02
 0.14069314342E+02 0.16025219906E+02 0.18453715018E+02 0.21454906239E+02 0.25134240380E+02
 0.29583705898E+02 0.34860837585E+02 0.40973114121E+02 0.47870910377E+02 0.55445171257E+02
 0.63522792446E+02 0.71848475382E+02 0.79784643886E+02 0.86432280145E+02 0.91263220028E+02
 0.94233711981E+02 0.95710634791E+02 0.96261022434E+02 0.96379651632E+02 0.96261022434E+02
 0.95710634791E+02 0.94233711981E+02 0.91263220028E+02 0.86432280145E+02 0.79784643886E+02
 0.71848475382E+02 0.63522792446E+02 0.55445171257E+02 0.47870910377E+02 0.40973114121E+02
 0.34860837585E+02 0.29583705898E+02 0.25134240380E+02 0.21454906239E+02 0.18453715018E+02
 0.16025219906E+02 0.14069314342E+02 0.12501601525E+02 0.11254438129E+02 0.10272623697E+02
 0.95089480966E+01 0.89225578859E+01 0.84798347271E+01 0.81556647221E+01 0.79333785936E+01
 0.78032159544E+01 0.63915122897E+01 0.64379232556E+01 0.65790145830E+01 0.68210085437E+01
 0.71762118965E+01 0.76650416402E+01 0.83171654255E+01 0.91710330860E+01 0.10272623697E+02
 0.11675711247E+02 0.13445629643E+02 0.15665753664E+02 0.18442202117E+02 0.21900653327E+02
 0.26172001115E+02 0.31369972764E+02 0.37569148432E+02 0.44790922252E+02 0.52997180143E+02
 0.62082817620E+02 0.71848475382E+02 0.81549092254E+02 0.89851714560E+02 0.95758354060E+02
 0.98910621200E+02 0.99663180677E+02 0.98935849014E+02 0.97870091727E+02 0.97395865813E+02
 0.97870091727E+02 0.98935849014E+02 0.99663180677E+02 0.98910621200E+02 0.95758354060E+02
 0.89851714560E+02 0.81549092254E+02 0.71848475382E+02 0.62082817620E+02 0.52997180143E+02
 0.44790922252E+02 0.37569148432E+02 0.31369972764E+02 0.26172001115E+02 0.21900653327E+02
 0.18442202117E+02 0.15665753664E+02 0.13445629643E+02 0.11675711247E+02 0.10272623697E+02
 0.91710330860E+01 0.83171654255E+01 0.76650416402E+01 0.71762118965E+01 0.68210085437E+01
 0.65790145830E+01 0.64379232556E+01 0.53577262763E+01 0.54060186559E+01 0.55531170244E+01
 0.58064911999E+01 0.61808327913E+01 0.67000264042E+01 0.73978563516E+01 0.83171654255E+01
 0.95089480966E+01 0.11034045888E+02 0.12969069431E+02 0.15414593189E+02 0.18499680886E+02
 0.22376066896E+02 0.27199997663E+02 0.33107485291E+02 0.40193194382E+02 0.48498988453E+02
 0.58006682703E+02 0.68619788897E+02 0.79784643886E+02 0.89851714560E+02 0.97188549196E+02
 0.10078613821E+03 0.10056314841E+03 0.97435568986E+02 0.93083943804E+02 0.89438903057E+02
 0.88030127293E+02 0.89438903057E+02 0.93083943804E+02 0.97435568986E+02 0.10056314841E+03
 0.10078613821E+03 0.97188549196E+02 0.89851714560E+02 0.79784643886E+02 0.68619788897E+02
 0.58006682703E+02 0.48498988453E+02 0.40193194382E+02 0.33107485291E+02 0.27199997663E+02
 0.22376066896E+02 0.18499680886E+02 0.15414593189E+02 0.12969069431E+02 0.11034045888E+02
 0.95089480966E+01 0.83171654255E+01 0.73978563516E+01 0.67000264042E+01 0.61808327913E+01
 0.58064911999E+01 0.55531170244E+01 0.54060186559E+01 0.45897514000E+01 0.46389194129E+01
 0.47889152216E+01 0.50482177211E+01 0.54335486299E+01 0.59717410093E+01 0.67000264042E+01
 0.76650416402E+01 0.89225578859E+01 0.10540675912E+02 0.12607659223E+02 0.15241415384E+02
 0.18593429080E+02 0.22840187733E+02 0.28161796188E+02 0.34716293862E+02 0.42620912313E+02
 0.51943211694E+02 0.62689971265E+02 0.74670791478E+02 0.86432280145E+02 0.95758354060E+02
 0.10078613821E+03 0.10053739353E+03 0.95292419175E+02 0.86671994295E+02 0.77313702924E+02
 0.70148383720E+02 0.67470503213E+02 0.70148383720E+02 0.77313702924E+02 0.86671994295E+02
 0.95292419175E+02 0.10053739353E+03 0.10078613821E+03 0.95758354060E+02 0.86432280145E+02
 0.74670791478E+02 0.62689971265E+02 0.51943211694E+02 0.42620912313E+02 0.34716293862E+02
 0.28161796188E+02 0.22840187733E+02 0.18593429080E+02 0.15241415384E+02 0.12607659223E+02
 0.10540675912E+02 0.89225578859E+01 0.76650416402E+01 0.67000264042E+01 0.59717410093E+01
 0.54335486299E+01 0.50482177211E+01 0.47889152216E+01 0.46389194129E+01 0.40320339386E+01
 0.40814358214E+01 0.42323093820E+01 0.44938941928E+01 0.48845638465E+01 0.54335486299E+01
 0.61808327913E+01 0.71762118965E+01 0.84798347271E+01 0.10166773487E+02 0.12336363493E+02
 0.15122560588E+02 0.18697101594E+02 0.23258405495E+02 0.29007787716E+02 0.36124094702E+02
 0.44748106893E+02 0.54975291268E+02 0.66836360958E+02 0.79701478663E+02 0.91263220028E+02
 0.98910621200E+02 0.10056314841E+03 0.95292419175E+02 0.83787500415E+02 0.68468104593E+02
 0.53069042406E+02 0.41678362581E+02 0.37480405074E+02 0.41678362581E+02 0.53069042406E+02
 0.68468104593E+02 0.83787500415E+02 0.95292419175E+02 0.10056314841E+03 0.98910621200E+02
 0.91263220028E+02 0.79701478663E+02 0.66836360958E+02 0.54975291268E+02 0.44748106893E+02
 0.36124094702E+02 0.29007787716E+02 0.23258405495E+02 0.18697101594E+02 0.15122560588E+02
 0.12336363493E+02 0.10166773487E+02 0.84798347271E+01 0.71762118965E+01 0.61808327913E+01
 0.54335486299E+01 0.48845638465E+01 0.44938941928E+01 0.42323093820E+01 0.40814358214E+01
 0.36399089715E+01 0.36891797193E+01 0.38397614986E+01 0.41014425070E+01 0.44938941928E+01
 0.50482177211E+01 0.58064911999E+01 0.68210085437E+01 0.81556647221E+01 0.98916454298E+01
 0.12137831757E+02 0.15041711431E+02 0.18791802206E+02 0.23604507708E+02 0.29698774331E+02
 0.37271829385E+02 0.46486692048E+02 0.57465116529E+02 0.70214885206E+02 0.83430284310E+02
 0.94233711981E+02 0.99663180677E+02 0.97435568986E+02 0.86671994295E+02 0.68468104593E+02
 0.46052719351E+02 0.24285800187E+02 0.84509859954E+01 0.26556712144E+01 0.84509859954E+01
 0.24285800187E+02 0.46052719351E+02 0.68468104593E+02 0.86671994295E+02 0.97435568986E+02
 0.99663180677E+02 0.94233711981E+02 0.83430284310E+02 0.70214885206E+02 0.57465116529E+02
 0.46486692048E+02 0.37271829385E+02 0.29698774331E+02 0.23604507708E+02 0.18791802206E+02
 0.15041711431E+02 0.12137831757E+02 0.98916454298E+01 0.81556647221E+01 0.68210085437E+01
 0.58064911999E+01 0.50482177211E+01 0.44938941928E+01 0.41014425070E+01 0.38397614986E+01
 0.36891797193E+01 0.33798979710E+01 0.34289284438E+01 0.35788348666E+01 0.38397614986E+01
 0.42323093820E+01 0.47889152216E+01 0.55531170244E+01 0.65790145830E+01 0.79333785936E+01
 0.97021377353E+01 0.12001449830E+02 0.14988940986E+02 0.18865566363E+02 0.23861016693E+02
 0.30207509100E+02 0.38116835926E+02 0.47770334454E+02 0.59310902227E+02 0.72645426405E+02
 0.85863813552E+02 0.95710634791E+02 0.98935849014E+02 0.93083943804E+02 0.77313702924E+02
 0.53069042406E+02 0.24285800187E+02 -.31830136188E+01 -.22993251234E+02 -.30216900299E+02
 -.22993251234E+02 -.31830136188E+01 0.24285800187E+02 0.53069042406E+02 0.77313702924E+02
 0.93083943804E+02 0.98935849014E+02 0.95710634791E+02 0.85863813552E+02 0.72645426405E+02
 0.59310902227E+02 0.47770334454E+02 0.38116835926E+02 0.30207509100E+02 0.23861016693E+02
 0.18865566363E+02 0.14988940986E+02 0.12001449830E+02 0.97021377353E+01 0.79333785936E+01
 0.65790145830E+01 0.55531170244E+01 0.47889152216E+01 0.42323093820E+01 0.38397614986E+01
 0.35788348666E+01 0.34289284438E+01 0.32306839052E+01 0.32795389777E+01 0.34289284438E+01
 0.36891797193E+01 0.40814358214E+01 0.46389194129E+01 0.54060186559E+01 0.64379232556E+01
 0.78032159544E+01 0.95908228965E+01 0.11921432555E+02 0.14958906736E+02 0.18911806021E+02
 0.24017953612E+02 0.30517831090E+02 0.38632634622E+02 0.48555757487E+02 0.60443630459E+02
 0.74085449867E+02 0.87185550907E+02 0.96261022434E+02 0.97870091727E+02 0.89438903057E+02
 0.70148383720E+02 0.41678362581E+02 0.84509859954E+01 -.22993251234E+02 -.45573960762E+02
 -.53792835884E+02 -.45573960762E+02 -.22993251234E+02 0.84509859954E+01 0.41678362581E+02
 0.70148383720E+02 0.89438903057E+02 0.97870091727E+02 0.96261022434E+02 0.87185550907E+02
 0.74085449867E+02 0.60443630459E+02 0.48555757487E+02 0.38632634622E+02 0.30517831090E+02
 0.24017953612E+02 0.18911806021E+02 0.14958906736E+02 0.11921432555E+02 0.95908228965E+01
 0.78032159544E+01 0.64379232556E+01 0.54060186559E+01 0.46389194129E+01 0.40814358214E+01
 0.36891797193E+01 0.34289284438E+01 0.32795389777E+01 0.31818868502E+01 0.32306839052E+01
 0.33798979710E+01 0.36399089715E+01 0.40320339386E+01 0.45897514000E+01 0.53577262763E+01
 0.63915122897E+01 0.77603117885E+01 0.95540758312E+01 0.11895028400E+02 0.14949130901E+02
 0.18927498466E+02 0.24070690233E+02 0.30621997008E+02 0.38805870641E+02 0.48819909126E+02
 0.60825178775E+02 0.74559451694E+02 0.87597740444E+02 0.96379651632E+02 0.97395865813E+02
 0.88030127293E+02 0.67470503213E+02 0.37480405074E+02 0.26556712144E+01 -.30216900299E+02
 -.53792835884E+02 -.62369194770E+02 -.53792835884E+02 -.30216900299E+02 0.26556712144E+01
 0.37480405074E+02 0.67470503213E+02 0.88030127293E+02 0.97395865813E+02 0.96379651632E+02
 0.87597740444E+02 0.74559451694E+02 0.60825178775E+02 0.48819909126E+02 0.38805870641E+02
 0.30621997008E+02 0.24070690233E+02 0.18927498466E+02 0.14949130901E+02 0.11895028400E+02
 0.95540758312E+01 0.77603117885E+01 0.63915122897E+01 0.53577262763E+01 0.45897514000E+01