   8   8   0   0
  0.2082684E+02  0.5502640E-09  0.5502640E-09  0.5502640E-09  0.1000000E-15
  1.000000000000000E-004
  CAR 
 GaAs                                    
      9.95723501    -10.83814560  301      3.72078701      1.00000000
    -10.838  0.0000E+00  0.0000E+00
    -10.769  0.0000E+00  0.0000E+00
    -10.700  0.0000E+00  0.0000E+00
    -10.630  0.0000E+00  0.0000E+00
    -10.561  0.0000E+00  0.0000E+00
    -10.492  0.0000E+00  0.0000E+00
    -10.422  0.0000E+00  0.0000E+00
    -10.353  0.0000E+00  0.0000E+00
    -10.284  0.0000E+00  0.0000E+00
    -10.214  0.0000E+00  0.0000E+00
    -10.145  0.0000E+00  0.0000E+00
    -10.076  0.0000E+00  0.0000E+00
    -10.006  0.0000E+00  0.0000E+00
     -9.937  0.0000E+00  0.0000E+00
     -9.868  0.0000E+00  0.0000E+00
     -9.798  0.2323E-03  0.3079E-05
     -9.729  0.1748E-02  0.6355E-04
     -9.660  0.4637E-02  0.2779E-03
     -9.590  0.7077E-02  0.6922E-03
     -9.521  0.8078E-02  0.1226E-02
     -9.452  0.8340E-02  0.1792E-02
     -9.382  0.9141E-02  0.2395E-02
     -9.313  0.1041E-01  0.3071E-02
     -9.244  0.1179E-01  0.3840E-02
     -9.175  0.1470E-01  0.4720E-02
     -9.105  0.2098E-01  0.5967E-02
     -9.036  0.2504E-01  0.7587E-02
     -8.967  0.2120E-01  0.9186E-02
     -8.897  0.1827E-01  0.1054E-01
     -8.828  0.1817E-01  0.1181E-01
     -8.759  0.1787E-01  0.1306E-01
     -8.689  0.1737E-01  0.1428E-01
     -8.620  0.1666E-01  0.1546E-01
     -8.551  0.1932E-01  0.1697E-01
     -8.481  0.1023E-01  0.1803E-01
     -8.412  0.1118E-01  0.1870E-01
     -8.343  0.1982E-01  0.1976E-01
     -8.273  0.2685E-01  0.2145E-01
     -8.204  0.2836E-01  0.2337E-01
     -8.135  0.3117E-01  0.2541E-01
     -8.065  0.3200E-01  0.2753E-01
     -7.996  0.3453E-01  0.2983E-01
     -7.927  0.6965E-01  0.3402E-01
     -7.857  0.5372E-01  0.3844E-01
     -7.788  0.3851E-01  0.4140E-01
     -7.719  0.3391E-01  0.4367E-01
     -7.650  0.3668E-01  0.4611E-01
     -7.580  0.5103E-01  0.4890E-01
     -7.511  0.6045E-01  0.5297E-01
     -7.442  0.6140E-01  0.5724E-01
     -7.372  0.7131E-01  0.6188E-01
     -7.303  0.6280E-01  0.6660E-01
     -7.234  0.4723E-01  0.7008E-01
     -7.164  0.4358E-01  0.7322E-01
     -7.095  0.4043E-01  0.7616E-01
     -7.026  0.3678E-01  0.7872E-01
     -6.956  0.0000E+00  0.8000E-01
     -6.887  0.0000E+00  0.8000E-01
     -6.818  0.0000E+00  0.8000E-01
     -6.748  0.0000E+00  0.8000E-01
     -6.679  0.0000E+00  0.8000E-01
     -6.610  0.0000E+00  0.8000E-01
     -6.540  0.0000E+00  0.8000E-01
     -6.471  0.0000E+00  0.8000E-01
     -6.402  0.0000E+00  0.8000E-01
     -6.332  0.0000E+00  0.8000E-01
     -6.263  0.0000E+00  0.8000E-01
     -6.194  0.0000E+00  0.8000E-01
     -6.125  0.0000E+00  0.8000E-01
     -6.055  0.0000E+00  0.8000E-01
     -5.986  0.0000E+00  0.8000E-01
     -5.917  0.0000E+00  0.8000E-01
     -5.847  0.0000E+00  0.8000E-01
     -5.778  0.0000E+00  0.8000E-01
     -5.709  0.0000E+00  0.8000E-01
     -5.639  0.0000E+00  0.8000E-01
     -5.570  0.0000E+00  0.8000E-01
     -5.501  0.0000E+00  0.8000E-01
     -5.431  0.0000E+00  0.8000E-01
     -5.362  0.0000E+00  0.8000E-01
     -5.293  0.0000E+00  0.8000E-01
     -5.223  0.0000E+00  0.8000E-01
     -5.154  0.0000E+00  0.8000E-01
     -5.085  0.0000E+00  0.8000E-01
     -5.015  0.0000E+00  0.8000E-01
     -4.946  0.0000E+00  0.8000E-01
     -4.877  0.0000E+00  0.8000E-01
     -4.807  0.0000E+00  0.8000E-01
     -4.738  0.0000E+00  0.8000E-01
     -4.669  0.0000E+00  0.8000E-01
     -4.600  0.0000E+00  0.8000E-01
     -4.530  0.0000E+00  0.8000E-01
     -4.461  0.0000E+00  0.8000E-01
     -4.392  0.0000E+00  0.8000E-01
     -4.322  0.0000E+00  0.8000E-01
     -4.253  0.0000E+00  0.8000E-01
     -4.184  0.0000E+00  0.8000E-01
     -4.114  0.0000E+00  0.8000E-01
     -4.045  0.0000E+00  0.8000E-01
     -3.976  0.0000E+00  0.8000E-01
     -3.906  0.0000E+00  0.8000E-01
     -3.837  0.0000E+00  0.8000E-01
     -3.768  0.0000E+00  0.8000E-01
     -3.698  0.0000E+00  0.8000E-01
     -3.629  0.0000E+00  0.8000E-01
     -3.560  0.4890E-02  0.8010E-01
     -3.490  0.1442E-01  0.8083E-01
     -3.421  0.1969E-01  0.8194E-01
     -3.352  0.6301E-01  0.8507E-01
     -3.282  0.9134E-01  0.9018E-01
     -3.213  0.1143E+00  0.9849E-01
     -3.144  0.7907E-01  0.1039E+00
     -3.075  0.8244E-01  0.1095E+00
     -3.005  0.5613E-01  0.1140E+00
     -2.936  0.4668E-01  0.1176E+00
     -2.867  0.3502E-01  0.1203E+00
     -2.797  0.2494E-01  0.1222E+00
     -2.728  0.2431E-01  0.1239E+00
     -2.659  0.2371E-01  0.1256E+00
     -2.589  0.2315E-01  0.1272E+00
     -2.520  0.2262E-01  0.1288E+00
     -2.451  0.2214E-01  0.1303E+00
     -2.381  0.2169E-01  0.1318E+00
     -2.312  0.1757E-01  0.1333E+00
     -2.243  0.1730E-01  0.1345E+00
     -2.173  0.1699E-01  0.1357E+00
     -2.104  0.1656E-01  0.1368E+00
     -2.035  0.1607E-01  0.1380E+00
     -1.965  0.1548E-01  0.1391E+00
     -1.896  0.1484E-01  0.1401E+00
     -1.827  0.1416E-01  0.1411E+00
     -1.757  0.1342E-01  0.1421E+00
     -1.688  0.1264E-01  0.1430E+00
     -1.619  0.1242E-01  0.1439E+00
     -1.550  0.1137E-01  0.1447E+00
     -1.480  0.1047E-01  0.1454E+00
     -1.411  0.9727E-02  0.1461E+00
     -1.342  0.7879E-02  0.1468E+00
     -1.272  0.8387E-02  0.1474E+00
     -1.203  0.8942E-02  0.1480E+00
     -1.134  0.9543E-02  0.1486E+00
     -1.064  0.1019E-01  0.1493E+00
     -0.995  0.1101E-01  0.1500E+00
     -0.926  0.1258E-01  0.1508E+00
     -0.856  0.1462E-01  0.1518E+00
     -0.787  0.1383E-01  0.1528E+00
     -0.718  0.1434E-01  0.1538E+00
     -0.648  0.1615E-01  0.1548E+00
     -0.579  0.1875E-01  0.1560E+00
     -0.510  0.2201E-01  0.1574E+00
     -0.440  0.2490E-01  0.1591E+00
     -0.371  0.4402E-01  0.1619E+00
     -0.302  0.4545E-01  0.1651E+00
     -0.233  0.7481E-01  0.1698E+00
     -0.163  0.6162E-01  0.1746E+00
     -0.094  0.5000E-01  0.1783E+00
     -0.025  0.4665E-01  0.1816E+00
      0.045  0.4334E-01  0.1848E+00
      0.114  0.3852E-01  0.1876E+00
      0.183  0.3715E-01  0.1902E+00
      0.253  0.4046E-01  0.1928E+00
      0.322  0.4900E-01  0.1959E+00
      0.391  0.3579E-01  0.1984E+00
      0.461  0.3710E-01  0.2009E+00
      0.530  0.3970E-01  0.2036E+00
      0.599  0.4309E-01  0.2064E+00
      0.669  0.5723E-01  0.2101E+00
      0.738  0.7278E-01  0.2147E+00
      0.807  0.6548E-01  0.2196E+00
      0.877  0.7100E-01  0.2240E+00
      0.946  0.6783E-01  0.2290E+00
      1.015  0.5996E-01  0.2335E+00
      1.085  0.5115E-01  0.2373E+00
      1.154  0.4172E-01  0.2405E+00
      1.223  0.4148E-01  0.2434E+00
      1.292  0.4037E-01  0.2462E+00
      1.362  0.4152E-01  0.2490E+00
      1.431  0.4758E-01  0.2521E+00
      1.500  0.5211E-01  0.2556E+00
      1.570  0.5542E-01  0.2598E+00
      1.639  0.4886E-01  0.2631E+00
      1.708  0.5130E-01  0.2666E+00
      1.778  0.6235E-01  0.2703E+00
      1.847  0.8303E-01  0.2748E+00
      1.916  0.6513E-01  0.2799E+00
      1.986  0.4658E-01  0.2834E+00
      2.055  0.4089E-01  0.2864E+00
      2.124  0.3533E-01  0.2890E+00
      2.194  0.3026E-01  0.2914E+00
      2.263  0.2224E-01  0.2930E+00
      2.332  0.2158E-01  0.2945E+00
      2.402  0.2782E-01  0.2962E+00
      2.471  0.3440E-01  0.2983E+00
      2.540  0.4694E-01  0.3014E+00
      2.610  0.4693E-01  0.3045E+00
      2.679  0.4646E-01  0.3078E+00
      2.748  0.4418E-01  0.3112E+00
      2.817  0.1635E-01  0.3134E+00
      2.887  0.1449E-01  0.3145E+00
      2.956  0.1268E-01  0.3154E+00
      3.025  0.1092E-01  0.3162E+00
      3.095  0.9200E-02  0.3169E+00
      3.164  0.8324E-02  0.3175E+00
      3.233  0.8917E-02  0.3181E+00
      3.303  0.8499E-02  0.3188E+00
      3.372  0.7070E-02  0.3193E+00
      3.441  0.4630E-02  0.3197E+00
      3.511  0.1357E-02  0.3199E+00
      3.580  0.5448E-03  0.3200E+00
      3.649  0.9691E-04  0.3200E+00
      3.719  0.0000E+00  0.3200E+00
      3.788  0.0000E+00  0.3200E+00
      3.857  0.0000E+00  0.3200E+00
      3.927  0.0000E+00  0.3200E+00
      3.996  0.0000E+00  0.3200E+00
      4.065  0.0000E+00  0.3200E+00
      4.135  0.0000E+00  0.3200E+00
      4.204  0.0000E+00  0.3200E+00
      4.273  0.0000E+00  0.3200E+00
      4.342  0.0000E+00  0.3200E+00
      4.412  0.0000E+00  0.3200E+00
      4.481  0.0000E+00  0.3200E+00
      4.550  0.0000E+00  0.3200E+00
      4.620  0.0000E+00  0.3200E+00
      4.689  0.0000E+00  0.3200E+00
      4.758  0.0000E+00  0.3200E+00
      4.828  0.0000E+00  0.3200E+00
      4.897  0.0000E+00  0.3200E+00
      4.966  0.2134E-02  0.3200E+00
      5.036  0.2688E-02  0.3202E+00
      5.105  0.3396E-02  0.3204E+00
      5.174  0.7664E-02  0.3208E+00
      5.244  0.6657E-02  0.3213E+00
      5.313  0.8214E-02  0.3218E+00
      5.382  0.9812E-02  0.3224E+00
      5.452  0.1097E-01  0.3231E+00
      5.521  0.1242E-01  0.3239E+00
      5.590  0.1442E-01  0.3249E+00
      5.660  0.1770E-01  0.3260E+00
      5.729  0.2533E-01  0.3274E+00
      5.798  0.4350E-01  0.3298E+00
      5.867  0.3304E-01  0.3324E+00
      5.937  0.4917E-01  0.3355E+00
      6.006  0.4780E-01  0.3386E+00
      6.075  0.5418E-01  0.3422E+00
      6.145  0.1014E+00  0.3480E+00
      6.214  0.1134E+00  0.3554E+00
      6.283  0.5050E-01  0.3598E+00
      6.353  0.6653E-01  0.3644E+00
      6.422  0.5270E-01  0.3681E+00
      6.491  0.5060E-01  0.3717E+00
      6.561  0.4374E-01  0.3750E+00
      6.630  0.4252E-01  0.3780E+00
      6.699  0.4173E-01  0.3809E+00
      6.769  0.9384E-01  0.3869E+00
      6.838  0.5768E-01  0.3914E+00
      6.907  0.3815E-01  0.3944E+00
      6.977  0.3657E-01  0.3969E+00
      7.046  0.3554E-01  0.3994E+00
      7.115  0.3468E-01  0.4019E+00
      7.185  0.3387E-01  0.4043E+00
      7.254  0.3311E-01  0.4066E+00
      7.323  0.2945E-01  0.4088E+00
      7.392  0.2573E-01  0.4106E+00
      7.462  0.2500E-01  0.4123E+00
      7.531  0.2519E-01  0.4140E+00
      7.600  0.2730E-01  0.4159E+00
      7.670  0.3007E-01  0.4179E+00
      7.739  0.4320E-01  0.4204E+00
      7.808  0.3926E-01  0.4231E+00
      7.878  0.5788E-01  0.4264E+00
      7.947  0.9059E-01  0.4312E+00
      8.016  0.8180E-01  0.4372E+00
      8.086  0.7042E-01  0.4424E+00
      8.155  0.5525E-01  0.4468E+00
      8.224  0.3988E-01  0.4497E+00
      8.294  0.3227E-01  0.4522E+00
      8.363  0.2862E-01  0.4542E+00
      8.432  0.3269E-01  0.4563E+00
      8.502  0.5316E-01  0.4595E+00
      8.571  0.6418E-01  0.4635E+00
      8.640  0.5572E-01  0.4674E+00
      8.710  0.5140E-01  0.4712E+00
      8.779  0.4369E-01  0.4745E+00
      8.848  0.2958E-01  0.4770E+00
      8.917  0.3062E-01  0.4791E+00
      8.987  0.0000E+00  0.4800E+00
      9.056  0.0000E+00  0.4800E+00
      9.125  0.0000E+00  0.4800E+00
      9.195  0.0000E+00  0.4800E+00
      9.264  0.0000E+00  0.4800E+00
      9.333  0.0000E+00  0.4800E+00
      9.403  0.0000E+00  0.4800E+00
      9.472  0.0000E+00  0.4800E+00
      9.541  0.0000E+00  0.4800E+00
      9.611  0.0000E+00  0.4800E+00
      9.680  0.0000E+00  0.4800E+00
      9.749  0.0000E+00  0.4800E+00
      9.819  0.0000E+00  0.4800E+00
      9.888  0.0000E+00  0.4800E+00
      9.957  0.0000E+00  0.4800E+00
