       N       E                     dE             d eps       ncg     rms          rms(c)
DAV:   1    -0.323434142773E+02   -0.32343E+02   -0.26077E-01   544   0.224E+00    0.825E-01
DAV:   2    -0.323374574206E+02    0.59569E-02   -0.14003E-02   504   0.524E-01    0.492E-01
DAV:   3    -0.323355068144E+02    0.19506E-02   -0.94626E-03   512   0.355E-01    0.556E-02
DAV:   4    -0.323353783172E+02    0.12850E-03   -0.56449E-04   504   0.109E-01    0.315E-02
DAV:   5    -0.323353632584E+02    0.15059E-04   -0.70178E-05   240   0.338E-02
   1 F= -.16736463E+02 E0= -.16736463E+02  d E =-.167365E+02
       N       E                     dE             d eps       ncg     rms          rms(c)
DAV:   1    -0.321899434420E+02    0.14543E+00   -0.13280E-01   544   0.159E+00    0.392E-01
DAV:   2    -0.321854964756E+02    0.44470E-02   -0.79282E-03   504   0.397E-01    0.205E-01
DAV:   3    -0.321839835188E+02    0.15130E-02   -0.54827E-03   520   0.273E-01    0.671E-02
DAV:   4    -0.321839371390E+02    0.46380E-04   -0.19751E-04   384   0.684E-02
   2 F= -.16765790E+02 E0= -.16765790E+02  d E =-.293272E-01
       N       E                     dE             d eps       ncg     rms          rms(c)
DAV:   1    -0.319763185077E+02    0.20767E+00   -0.21810E-01   544   0.204E+00    0.498E-01
DAV:   2    -0.319690592140E+02    0.72593E-02   -0.12987E-02   504   0.510E-01    0.261E-01
DAV:   3    -0.319665577592E+02    0.25015E-02   -0.89709E-03   520   0.351E-01    0.881E-02
DAV:   4    -0.319664846460E+02    0.73113E-04   -0.32017E-04   464   0.869E-02
   3 F= -.16778604E+02 E0= -.16778604E+02  d E =-.421419E-01
