<?xml version="1.0" encoding="ISO-8859-1"?>
<modeling>
 <generator>
  <i name="program" type="string">vasp </i>
  <i name="version" type="string">6.4.3  </i>
  <i name="subversion" type="string">19Mar24 (build Aug 29 2024 15:27:20) complex                          parallel </i>
  <i name="platform" type="string">LinuxIFC </i>
  <i name="date" type="string">2025 03 19 </i>
  <i name="time" type="string">10:24:22 </i>
 </generator>
 <incar>
  <i type="string" name="SYSTEM">GaAs</i>
  <i type="string" name="PREC">Normal</i>
  <i type="int" name="IBRION">     2</i>
  <i type="int" name="NFREE">     2</i>
  <i type="int" name="NSW">   100</i>
  <i type="int" name="ISIF">     3</i>
  <i name="ENCUT">    400.00000000</i>
  <i name="POTIM">      0.10000000</i>
  <i type="int" name="ISMEAR">    -5</i>
  <i name="SIGMA">      0.10000000</i>
  <i name="PSTRESS">    150.00000000</i>
 </incar>
 <primitive_cell>
  <structure name="primitive_cell" >
   <crystal>
    <varray name="basis" >
     <v>       2.75132003      -2.75132003       0.00000000 </v>
     <v>       2.75132003       0.00000000       2.75132003 </v>
     <v>       0.00000000      -2.75132003       2.75132003 </v>
    </varray>
    <i name="volume">     41.65367512 </i>
    <varray name="rec_basis" >
     <v>       0.18173095      -0.18173095      -0.18173095 </v>
     <v>       0.18173095       0.18173095       0.18173095 </v>
     <v>      -0.18173095      -0.18173095       0.18173095 </v>
    </varray>
   </crystal>
   <varray name="positions" >
    <v>       0.00000000       0.00000000       0.00000000 </v>
    <v>       0.75000000       0.75000000       0.75000000 </v>
   </varray>
  </structure>
  <varray name="primitive_index" >
   <v type="int" >        1 </v>
   <v type="int" >        5 </v>
  </varray>
 </primitive_cell>
 <kpoints>
  <generation param="Gamma">
   <v type="int" name="divisions">       5        5        5 </v>
   <v name="usershift">      0.00000000       0.00000000       0.00000000 </v>
   <v name="genvec1">      0.20000000       0.00000000       0.00000000 </v>
   <v name="genvec2">      0.00000000       0.20000000       0.00000000 </v>
   <v name="genvec3">      0.00000000       0.00000000       0.20000000 </v>
   <v name="shift">      0.00000000       0.00000000       0.00000000 </v>
  </generation>
  <varray name="kpointlist" >
   <v>       0.00000000       0.00000000       0.00000000 </v>
   <v>       0.20000000       0.00000000       0.00000000 </v>
   <v>       0.40000000       0.00000000       0.00000000 </v>
   <v>       0.20000000       0.20000000       0.00000000 </v>
   <v>       0.40000000       0.20000000       0.00000000 </v>
   <v>       0.40000000       0.40000000       0.00000000 </v>
   <v>       0.20000000       0.20000000       0.20000000 </v>
   <v>       0.40000000       0.20000000       0.20000000 </v>
   <v>       0.40000000       0.40000000       0.20000000 </v>
   <v>       0.40000000       0.40000000       0.40000000 </v>
  </varray>
  <varray name="weights" >
   <v>       0.00800000 </v>
   <v>       0.04800000 </v>
   <v>       0.04800000 </v>
   <v>       0.09600000 </v>
   <v>       0.19200000 </v>
   <v>       0.09600000 </v>
   <v>       0.06400000 </v>
   <v>       0.19200000 </v>
   <v>       0.19200000 </v>
   <v>       0.06400000 </v>
  </varray>
  <varray name="tetrahedronlist"  type="int" >
   <v type="int" >       12        7        8        8        9 </v>
   <v type="int" >       18        8        8        9        9 </v>
   <v type="int" >       24        8        9        9       10 </v>
   <v type="int" >       12        8        9        9        9 </v>
   <v type="int" >       24        9        9        9       10 </v>
   <v type="int" >       18        9        9       10       10 </v>
   <v type="int" >       24        4        5        7        8 </v>
   <v type="int" >       12        5        7        8        8 </v>
   <v type="int" >       24        5        8        8        9 </v>
   <v type="int" >       24        4        5        5        8 </v>
   <v type="int" >       24        5        5        6        8 </v>
   <v type="int" >       12        5        6        8        9 </v>
   <v type="int" >       12        9       10       10       10 </v>
   <v type="int" >       12        8        8        9       10 </v>
   <v type="int" >       12        8        9       10       10 </v>
   <v type="int" >       12        5        5        8        9 </v>
   <v type="int" >       12        5        8        9        9 </v>
   <v type="int" >       12        5        5        6        9 </v>
   <v type="int" >       12        5        6        6        9 </v>
   <v type="int" >       12        5        6        9        9 </v>
   <v type="int" >       12        5        6        8        8 </v>
   <v type="int" >       12        5        6        6        8 </v>
   <v type="int" >       12        6        8        8        9 </v>
   <v type="int" >       12        6        8        9        9 </v>
   <v type="int" >       12        6        6        8        9 </v>
   <v type="int" >       12        7        8        9       10 </v>
   <v type="int" >       12        4        5        8        9 </v>
   <v type="int" >       12        4        7        8        9 </v>
   <v type="int" >       12        4        5        6        9 </v>
   <v type="int" >       12        5        6        7        8 </v>
   <v type="int" >       12        4        5        6        7 </v>
   <v type="int" >       12        6        7        8        9 </v>
   <v type="int" >       12        2        4        7        8 </v>
   <v type="int" >       12        2        4        5        8 </v>
   <v type="int" >       12        2        3        5        8 </v>
   <v type="int" >       12        4        4        5        7 </v>
   <v type="int" >       12        2        4        4        5 </v>
   <v type="int" >       12        2        3        4        5 </v>
   <v type="int" >       12        3        4        5        5 </v>
   <v type="int" >       12        2        3        4        7 </v>
   <v type="int" >       12        3        4        5        7 </v>
   <v type="int" >       12        3        5        7        8 </v>
   <v type="int" >        6       10       10       10       10 </v>
   <v type="int" >       12        6        6        9        9 </v>
   <v type="int" >       12        6        9        9        9 </v>
   <v type="int" >       12        6        6        6        9 </v>
   <v type="int" >       12        3        5        8        8 </v>
   <v type="int" >       12        3        5        5        8 </v>
   <v type="int" >       12        3        3        5        8 </v>
   <v type="int" >       12        5        5        5        8 </v>
   <v type="int" >       12        3        5        5        5 </v>
   <v type="int" >        6        3        3        5        5 </v>
   <v type="int" >        6        5        5        8        8 </v>
   <v type="int" >       12        2        4        4        7 </v>
   <v type="int" >       12        2        2        4        4 </v>
   <v type="int" >       12        1        2        2        4 </v>
   <v type="int" >       12        1        2        4        7 </v>
  </varray>
  <i name="volumeweight">      0.00133333 </i>
 </kpoints>
 <parameters>
  <separator name="general" >
   <i type="string" name="SYSTEM">GaAs</i>
   <i type="logical" name="LCOMPAT"> F  </i>
  </separator>
  <separator name="electronic" >
   <i type="string" name="PREC">normal</i>
   <i name="ENMAX">    400.00000000</i>
   <i name="ENAUG">    462.75800000</i>
   <i name="EDIFF">      0.00010000</i>
   <i type="int" name="IALGO">    38</i>
   <i type="int" name="IWAVPR">    11</i>
   <i type="int" name="NBANDS">    24</i>
   <i type="int" name="NBANDSLOW">    -1</i>
   <i type="int" name="NBANDSHIGH">    -1</i>
   <i name="NELECT">     32.00000000</i>
   <i type="int" name="TURBO">     0</i>
   <i type="int" name="IRESTART">     0</i>
   <i type="int" name="NREBOOT">     0</i>
   <i type="int" name="NMIN">     0</i>
   <i name="EREF">      0.00000000</i>
   <separator name="electronic smearing" >
    <i type="int" name="ISMEAR">    -5</i>
    <i name="SIGMA">      0.10000000</i>
    <i name="KSPACING">      0.50000000</i>
    <i type="logical" name="KGAMMA"> T  </i>
    <i type="logical" name="KBLOWUP"> T  </i>
   </separator>
   <separator name="electronic projectors" >
    <i type="logical" name="LREAL"> F  </i>
    <v name="ROPT">      0.00000000      0.00000000</v>
    <i type="int" name="LMAXPAW">  -100</i>
    <i type="int" name="LMAXMIX">     2</i>
    <i type="logical" name="NLSPLINE"> F  </i>
   </separator>
   <separator name="electronic startup" >
    <i type="int" name="ISTART">     1</i>
    <i type="int" name="ICHARG">     0</i>
    <i type="int" name="INIWAV">     1</i>
   </separator>
   <separator name="electronic spin" >
    <i type="int" name="ISPIN">     1</i>
    <i type="logical" name="LNONCOLLINEAR"> F  </i>
    <v name="MAGMOM">      1.00000000      1.00000000      1.00000000      1.00000000      1.00000000      1.00000000      1.00000000      1.00000000</v>
    <i name="NUPDOWN">     -1.00000000</i>
    <i type="logical" name="LSORBIT"> F  </i>
    <v name="SAXIS">      0.00000000      0.00000000      1.00000000</v>
    <i type="logical" name="LSPIRAL"> F  </i>
    <v name="QSPIRAL">      0.00000000      0.00000000      0.00000000</v>
    <i type="logical" name="LZEROZ"> F  </i>
   </separator>
   <separator name="electronic exchange-correlation" >
    <i type="logical" name="LASPH"> F  </i>
   </separator>
   <separator name="electronic convergence" >
    <i type="int" name="NELM">    60</i>
    <i type="int" name="NELMDL">     0</i>
    <i type="int" name="NELMIN">     2</i>
    <i name="ENINI">    400.00000000</i>
    <separator name="electronic convergence detail" >
     <i type="logical" name="LDIAG"> T  </i>
     <i type="logical" name="LSUBROT"> F  </i>
     <i name="WEIMIN">      0.00100000</i>
     <i name="EBREAK">      0.00000104</i>
     <i name="DEPER">      0.30000000</i>
     <i type="int" name="NRMM">     4</i>
     <i name="TIME">      0.40000000</i>
    </separator>
   </separator>
   <separator name="electronic mixer" >
    <i name="AMIX">      0.40000000</i>
    <i name="BMIX">      1.00000000</i>
    <i name="AMIN">      0.10000000</i>
    <i name="AMIX_MAG">      1.60000000</i>
    <i name="BMIX_MAG">      1.00000000</i>
    <separator name="electronic mixer details" >
     <i type="int" name="IMIX">     4</i>
     <i type="logical" name="MIXFIRST"> F  </i>
     <i type="int" name="MAXMIX">   -45</i>
     <i name="WC">    100.00000000</i>
     <i type="int" name="INIMIX">     1</i>
     <i type="int" name="MIXPRE">     1</i>
     <i type="int" name="MREMOVE">     5</i>
    </separator>
   </separator>
   <separator name="electronic dipolcorrection" >
    <i type="logical" name="LDIPOL"> F  </i>
    <i type="logical" name="LMONO"> F  </i>
    <i type="int" name="IDIPOL">     0</i>
    <i name="EPSILON">      1.00000000</i>
    <v name="DIPOL">   -100.00000000   -100.00000000   -100.00000000</v>
    <i name="EFIELD">      0.00000000</i>
    <i type="logical" name="LVACPOTAV"> F  </i>
   </separator>
  </separator>
  <separator name="grids" >
   <i type="int" name="NGX">    28</i>
   <i type="int" name="NGY">    28</i>
   <i type="int" name="NGZ">    28</i>
   <i type="int" name="NGXF">    56</i>
   <i type="int" name="NGYF">    56</i>
   <i type="int" name="NGZF">    56</i>
   <i type="logical" name="ADDGRID"> F  </i>
  </separator>
  <separator name="ionic" >
   <i type="int" name="NSW">   100</i>
   <i type="int" name="IBRION">     2</i>
   <i type="int" name="MDALGO">     0</i>
   <i type="int" name="ISIF">     3</i>
   <i name="PSTRESS">    150.00000000</i>
   <i name="EDIFFG">      0.00100000</i>
   <i type="int" name="NFREE">     2</i>
   <i name="POTIM">      0.10000000</i>
   <i name="SMASS">     -3.00000000</i>
   <i name="SCALEE">      1.00000000</i>
  </separator>
  <separator name="ionic md" >
   <i name="TEBEG">      0.00010000</i>
   <i name="TEEND">      0.00010000</i>
   <i type="int" name="NBLOCK">     1</i>
   <i type="int" name="KBLOCK">   100</i>
   <i type="int" name="NPACO">   256</i>
   <i name="APACO">     10.00000000</i>
  </separator>
  <separator name="symmetry" >
   <i type="int" name="ISYM">     2</i>
   <i name="SYMPREC">      0.00001000</i>
  </separator>
  <separator name="dos" >
   <i type="int" name="LORBIT">     0</i>
   <v name="RWIGS">     -1.00000000     -1.00000000</v>
   <i type="int" name="NEDOS">   301</i>
   <i name="EMIN">     10.00000000</i>
   <i name="EMAX">    -10.00000000</i>
   <i name="EFERMI">      0.00000000</i>
  </separator>
  <separator name="writing" >
   <i type="int" name="NWRITE">     2</i>
   <i type="logical" name="LWAVE"> T  </i>
   <i type="logical" name="LDOWNSAMPLE"> F  </i>
   <i type="logical" name="LCHARG"> T  </i>
   <i type="logical" name="LPARD"> F  </i>
   <i type="logical" name="LVTOT"> F  </i>
   <i type="logical" name="LVHAR"> F  </i>
   <i type="logical" name="LELF"> F  </i>
   <i type="logical" name="LOPTICS"> F  </i>
   <v name="STM">      0.00000000      0.00000000      0.00000000      0.00000000      0.00000000      0.00000000      0.00000000</v>
  </separator>
  <separator name="performance" >
   <i type="int" name="NPAR">     8</i>
   <i type="int" name="NSIM">     4</i>
   <i type="int" name="NBLK">    -1</i>
   <i type="logical" name="LPLANE"> T  </i>
   <i type="logical" name="LSCALAPACK"> T  </i>
   <i type="logical" name="LSCAAWARE"> F  </i>
   <i type="logical" name="LSCALU"> F  </i>
   <i type="logical" name="LASYNC"> F  </i>
   <i type="logical" name="LORBITALREAL"> F  </i>
  </separator>
  <separator name="miscellaneous" >
   <i type="int" name="IDIOT">     3</i>
   <i type="int" name="PHON_NSTRUCT">    -1</i>
   <i type="logical" name="LMUSIC"> F  </i>
   <v name="POMASS">     74.92200000     69.72300000</v>
   <v name="DARWINR">      0.00000000      0.00000000</v>
   <v name="DARWINV">      1.00000000      1.00000000</v>
   <i type="logical" name="LCORR"> T  </i>
  </separator>
  <i type="logical" name="GGA_COMPAT"> T  </i>
  <i type="logical" name="LBERRY"> F  </i>
  <i type="int" name="ICORELEVEL">     0</i>
  <i type="logical" name="LDAU"> F  </i>
  <i type="int" name="I_CONSTRAINED_M">     0</i>
  <separator name="electronic exchange-correlation" >
   <i type="string" name="GGA    ">PE</i>
   <i type="string" name="XC_C">1</i>
   <i type="int" name="VOSKOWN">     0</i>
   <i type="logical" name="LHFCALC"> F  </i>
   <i type="string" name="PRECFOCK"></i>
   <i type="logical" name="LSYMGRAD"> F  </i>
   <i type="logical" name="LHFONE"> F  </i>
   <i type="logical" name="LRHFCALC"> F  </i>
   <i type="logical" name="LTHOMAS"> F  </i>
   <i type="logical" name="LMODELHF"> F  </i>
   <i type="logical" name="LFOCKACE"> F  </i>
   <i name="ENCUT4O">     -1.00000000</i>
   <i type="int" name="EXXOEP">     0</i>
   <i type="int" name="FOURORBIT">     0</i>
   <i name="AEXX">      0.00000000</i>
   <i name="HFALPHA">      0.00000000</i>
   <i name="MCALPHA">      0.00000000</i>
   <i name="ALDAX">      1.00000000</i>
   <i name="AGGAX">      1.00000000</i>
   <i name="AMGGAX">      1.00000000</i>
   <i name="ALDAC">      1.00000000</i>
   <i name="AGGAC">      1.00000000</i>
   <i name="AMGGAC">      1.00000000</i>
   <i type="int" name="NKREDX">     1</i>
   <i type="int" name="NKREDY">     1</i>
   <i type="int" name="NKREDZ">     1</i>
   <i type="logical" name="SHIFTRED"> F  </i>
   <i type="logical" name="ODDONLY"> F  </i>
   <i type="logical" name="EVENONLY"> F  </i>
   <i type="int" name="LMAXFOCK">     0</i>
   <i type="int" name="NMAXFOCKAE">     0</i>
   <i type="logical" name="LFOCKAEDFT"> F  </i>
   <i name="HFSCREEN">      0.00000000</i>
   <i name="HFSCREENC">      0.00000000</i>
   <i type="int" name="NBANDSGWLOW">     0</i>
  </separator>
  <separator name="vdW DFT" >
   <i type="logical" name="LUSE_VDW"> F  </i>
   <i type="int" name="IVDW_NL">    -1</i>
   <i type="logical" name="LSPIN_VDW"> F  </i>
   <i name="ZAB_VDW">     -0.84910000</i>
   <i name="GAMMA_VDW">      1.39626340</i>
   <i name="ALPHA_VDW">      0.00000000</i>
   <i name="PARAM1">      0.12340000</i>
   <i name="PARAM2">      1.00000000</i>
   <i name="BPARAM">      6.30000000</i>
   <i name="CPARAM">      0.00930000</i>
  </separator>
  <separator name="model GW" >
   <i type="int" name="MODEL_GW">     0</i>
   <i name="MODEL_EPS0">     12.49610254</i>
   <i name="MODEL_ALPHA">      1.00000000</i>
  </separator>
  <separator name="linear response parameters" >
   <i type="logical" name="LEPSILON"> F  </i>
   <i type="logical" name="LRPA"> F  </i>
   <i type="logical" name="LNABLA"> F  </i>
   <i type="logical" name="LVEL"> F  </i>
   <i name="CSHIFT">      0.10000000</i>
   <i name="OMEGAMAX">     -1.00000000</i>
   <i name="DEG_THRESHOLD">      0.00200000</i>
   <i name="RTIME">     -0.10000000</i>
   <i name="WPLASMAI">      0.00000000</i>
   <v name="DFIELD">      0.00000000      0.00000000      0.00000000</v>
   <v name="WPLASMA">      0.00000000      0.00000000      0.00000000      0.00000000      0.00000000      0.00000000      0.00000000      0.00000000      0.00000000</v>
  </separator>
  <separator name="orbital magnetization" >
   <i type="logical" name="NUCIND"> F  </i>
   <v name="MAGPOS">      0.00000000      0.00000000      0.00000000</v>
   <i type="logical" name="LNICSALL"> T  </i>
   <i type="logical" name="ORBITALMAG"> F  </i>
   <i type="logical" name="LMAGBLOCH"> F  </i>
   <i type="logical" name="LCHIMAG"> F  </i>
   <i type="logical" name="LGAUGE"> T  </i>
   <i type="int" name="MAGATOM">     0</i>
   <v name="MAGDIPOL">      0.00000000      0.00000000      0.00000000</v>
   <v name="AVECCONST">      0.00000000      0.00000000      0.00000000</v>
  </separator>
  <separator name="response functions" >
   <i type="logical" name="LALL_IN_ONE"> F  </i>
   <i type="int" name="IALL_IN_ONE">    -1</i>
   <i type="int" name="NBANDS_WAVE">    -1</i>
   <i type="logical" name="LFINITE_TEMPERATURE"> F  </i>
   <i type="logical" name="LADDER"> F  </i>
   <i type="logical" name="LRPAFORCE"> F  </i>
   <i type="logical" name="LFXC"> F  </i>
   <i type="logical" name="LHARTREE"> T  </i>
   <i type="int" name="IBSE">     0</i>
   <v type="int" name="KPOINT">    -1     0     0     0</v>
   <i type="logical" name="LTCTC"> F  </i>
   <i type="logical" name="LTCTE"> F  </i>
   <i type="logical" name="LTETE"> F  </i>
   <i type="logical" name="LTRIPLET"> F  </i>
   <i type="logical" name="LFXCEPS"> F  </i>
   <i type="logical" name="LFXHEG"> F  </i>
   <i type="int" name="NATURALO">     2</i>
   <i type="logical" name="LHOLEGF"> F  </i>
   <i type="logical" name="L2ORDER"> F  </i>
   <i type="logical" name="LDMP1"> F  </i>
   <i type="logical" name="LMP2LT"> F  </i>
   <i type="logical" name="LSMP2LT"> F  </i>
   <i type="logical" name="LGWLF"> F  </i>
   <i name="ENCUTGW">     -1.60000002</i>
   <i name="ENCUTGWSOFT">     -1.60000002</i>
   <i name="ENCUTLF">     -1.00000000</i>
   <i type="logical" name="ESF_SPLINES"> F  </i>
   <i name="ESF_CONV">      0.01000000</i>
   <i type="int" name="ESF_NINTER">    15</i>
   <i type="int" name="LMAXMP2">    -1</i>
   <i name="SCISSOR">      0.00000000</i>
   <i type="int" name="NOMEGA">     0</i>
   <i type="int" name="NOMEGAR">     0</i>
   <i type="int" name="NBANDSGW">    -1</i>
   <i type="int" name="NBANDSO">    -1</i>
   <i type="int" name="NBANDSV">    -1</i>
   <i type="int" name="NELMGW">     1</i>
   <i type="int" name="NELMHF">     1</i>
   <i type="int" name="DIM">     3</i>
   <i type="int" name="IESPILON">     4</i>
   <i type="int" name="ANTIRES">     0</i>
   <i name="OMEGAMAX">    -30.00000000</i>
   <i name="OMEGAMIN">    -30.00000000</i>
   <i name="OMEGATL">   -200.00000000</i>
   <i type="int" name="OMEGAGRID">     0</i>
   <i name="CSHIFT">     -0.10000000</i>
   <i type="logical" name="LSELFENERGY"> F  </i>
   <i type="logical" name="LSPECTRAL"> F  </i>
   <i type="logical" name="LSPECTRALGW"> F  </i>
   <i type="logical" name="LSINGLES"> F  </i>
   <i type="logical" name="LFERMIGW"> F  </i>
   <i type="logical" name="ODDONLYGW"> F  </i>
   <i type="logical" name="EVENONLYGW"> F  </i>
   <i type="int" name="NKREDLFX">     1</i>
   <i type="int" name="NKREDLFY">     1</i>
   <i type="int" name="NKREDLFZ">     1</i>
   <i type="int" name="MAXMEM">  2800</i>
   <i type="int" name="TELESCOPE">     0</i>
   <i type="int" name="NTAUPAR">    -1</i>
   <i type="int" name="NOMEGAPAR">    -1</i>
   <i name="DAMP_NEWTON">      0.80000001</i>
   <i name="LAMBDA">      1.00000000</i>
  </separator>
  <separator name="External order field" >
   <i name="OFIELD_KAPPA">      0.00000000</i>
   <v name="OFIELD_K">      0.00000000      0.00000000      0.00000000</v>
   <i name="OFIELD_Q6_NEAR">      0.00000000</i>
   <i name="OFIELD_Q6_FAR">      0.00000000</i>
   <i name="OFIELD_A">      0.00000000</i>
  </separator>
  <separator name="optional k-points parameters" >
   <i type="int" name="KPOINTS_OPT_MODE">     1</i>
   <i type="logical" name="LKPOINTS_OPT"> F  </i>
  </separator>
 </parameters>
 <atominfo>
  <atoms>       8 </atoms>
  <types>       2 </types>
  <array name="atoms" >
   <dimension dim="1">ion</dimension>
   <field type="string">element</field>
   <field type="int">atomtype</field>
   <set>
    <rc><c>As</c><c>   1</c></rc>
    <rc><c>As</c><c>   1</c></rc>
    <rc><c>As</c><c>   1</c></rc>
    <rc><c>As</c><c>   1</c></rc>
    <rc><c>Ga</c><c>   2</c></rc>
    <rc><c>Ga</c><c>   2</c></rc>
    <rc><c>Ga</c><c>   2</c></rc>
    <rc><c>Ga</c><c>   2</c></rc>
   </set>
  </array>
  <array name="atomtypes" >
   <dimension dim="1">type</dimension>
   <field type="int">atomspertype</field>
   <field type="string">element</field>
   <field>mass</field>
   <field>valence</field>
   <field type="string">pseudopotential</field>
   <set>
    <rc><c>   4</c><c>As</c><c>     74.92200000</c><c>      5.00000000</c><c>  PAW_PBE As 22Sep2009                  </c></rc>
    <rc><c>   4</c><c>Ga</c><c>     69.72300000</c><c>      3.00000000</c><c>  PAW_PBE Ga 08Apr2002                  </c></rc>
   </set>
  </array>
 </atominfo>
 <structure name="initialpos" >
  <crystal>
   <varray name="basis" >
    <v>       5.50264006       0.00000000       0.00000000 </v>
    <v>       0.00000000       5.50264006       0.00000000 </v>
    <v>       0.00000000       0.00000000       5.50264006 </v>
   </varray>
   <i name="volume">    166.61470049 </i>
   <varray name="rec_basis" >
    <v>       0.18173095       0.00000000       0.00000000 </v>
    <v>       0.00000000       0.18173095       0.00000000 </v>
    <v>       0.00000000       0.00000000       0.18173095 </v>
   </varray>
  </crystal>
  <varray name="positions" >
   <v>       0.00000000       0.00000000       0.00000000 </v>
   <v>       0.50000000       0.50000000       0.00000000 </v>
   <v>       0.50000000       0.00000000       0.50000000 </v>
   <v>       0.00000000       0.50000000       0.50000000 </v>
   <v>       0.25000000       0.25000000       0.25000000 </v>
   <v>       0.75000000       0.25000000       0.75000000 </v>
   <v>       0.75000000       0.75000000       0.25000000 </v>
   <v>       0.25000000       0.75000000       0.75000000 </v>
  </varray>
 </structure>
 <calculation>
  <scstep>
   <time name="dav">    0.21    0.22</time>
   <time name="total">    0.23    0.24</time>
   <energy>
    <i name="alphaZ">     82.12872199 </i>
    <i name="ewald">   -941.78307081 </i>
    <i name="hartreedc">    -80.28717984 </i>
    <i name="XCdc">   -120.08222369 </i>
    <i name="pawpsdc">   2215.69655713 </i>
    <i name="pawaedc">  -2037.23112734 </i>
    <i name="eentropy">      0.00000000 </i>
    <i name="bandstr">    -67.00172465 </i>
    <i name="atom">    916.21663293 </i>
    <i name="e_fr_energy">    -32.34341428 </i>
    <i name="e_wo_entrp">    -32.34341428 </i>
    <i name="e_0_energy">    -32.34341428 </i>
   </energy>
  </scstep>
  <scstep>
   <time name="dav">    0.19    0.20</time>
   <time name="total">    0.21    0.22</time>
   <energy>
    <i name="e_fr_energy">    -32.33745742 </i>
    <i name="e_wo_entrp">    -32.33745742 </i>
    <i name="e_0_energy">    -32.33745742 </i>
   </energy>
  </scstep>
  <scstep>
   <time name="dav">    0.19    0.20</time>
   <time name="total">    0.21    0.23</time>
   <energy>
    <i name="e_fr_energy">    -32.33550681 </i>
    <i name="e_wo_entrp">    -32.33550681 </i>
    <i name="e_0_energy">    -32.33550681 </i>
   </energy>
  </scstep>
  <scstep>
   <time name="dav">    0.19    0.20</time>
   <time name="total">    0.21    0.22</time>
   <energy>
    <i name="e_fr_energy">    -32.33537832 </i>
    <i name="e_wo_entrp">    -32.33537832 </i>
    <i name="e_0_energy">    -32.33537832 </i>
   </energy>
  </scstep>
  <scstep>
   <time name="dav">    0.13    0.14</time>
   <time name="total">    0.15    0.16</time>
   <energy>
    <i name="alphaZ">     82.12872199 </i>
    <i name="ewald">   -941.78307081 </i>
    <i name="hartreedc">    -78.91987543 </i>
    <i name="XCdc">   -120.02991246 </i>
    <i name="pawpsdc">   2308.45232597 </i>
    <i name="pawaedc">  -2129.94905809 </i>
    <i name="eentropy">      0.00000000 </i>
    <i name="bandstr">    -68.45112736 </i>
    <i name="atom">    916.21663293 </i>
    <i name="e_fr_energy">    -32.33536326 </i>
    <i name="e_wo_entrp">    -32.33536326 </i>
    <i name="e_0_energy">    -32.33536326 </i>
   </energy>
  </scstep>
  <structure>
   <crystal>
    <varray name="basis" >
     <v>       5.50264006       0.00000000       0.00000000 </v>
     <v>       0.00000000       5.50264006       0.00000000 </v>
     <v>       0.00000000       0.00000000       5.50264006 </v>
    </varray>
    <i name="volume">    166.61470049 </i>
    <varray name="rec_basis" >
     <v>       0.18173095       0.00000000       0.00000000 </v>
     <v>       0.00000000       0.18173095       0.00000000 </v>
     <v>       0.00000000       0.00000000       0.18173095 </v>
    </varray>
   </crystal>
   <varray name="positions" >
    <v>       0.00000000       0.00000000       0.00000000 </v>
    <v>       0.50000000       0.50000000       0.00000000 </v>
    <v>       0.50000000       0.00000000       0.50000000 </v>
    <v>       0.00000000       0.50000000       0.50000000 </v>
    <v>       0.25000000       0.25000000       0.25000000 </v>
    <v>       0.75000000       0.25000000       0.75000000 </v>
    <v>       0.75000000       0.75000000       0.25000000 </v>
    <v>       0.25000000       0.75000000       0.75000000 </v>
   </varray>
  </structure>
  <varray name="forces" >
   <v>       0.00000000       0.00000000      -0.00000000 </v>
   <v>      -0.00000000      -0.00000000      -0.00000000 </v>
   <v>       0.00000000       0.00000000      -0.00000000 </v>
   <v>      -0.00000000      -0.00000000       0.00000000 </v>
   <v>       0.00000000      -0.00000000       0.00000000 </v>
   <v>       0.00000000       0.00000000       0.00000000 </v>
   <v>       0.00000000       0.00000000       0.00000000 </v>
   <v>       0.00000000      -0.00000000       0.00000000 </v>
  </varray>
  <varray name="stress" >
   <v>     119.08408403       0.00000000      -0.00000000 </v>
   <v>      -0.00000000     119.08408403      -0.00000000 </v>
   <v>       0.00000000      -0.00000000     119.08408403 </v>
  </varray>
  <energy>
   <i name="e_fr_energy">    -16.73646256 </i>
   <i name="e_wo_entrp">    -16.73646256 </i>
   <i name="e_0_energy">    -16.73646256 </i>
  </energy>
  <time name="totalsc">    1.48    1.56</time>
 </calculation>
 <calculation>
  <scstep>
   <time name="dav">    0.20    0.21</time>
   <time name="total">    0.22    0.23</time>
   <energy>
    <i name="alphaZ">     83.09155083 </i>
    <i name="ewald">   -945.44908550 </i>
    <i name="hartreedc">    -79.23115860 </i>
    <i name="XCdc">   -119.93820659 </i>
    <i name="pawpsdc">   2307.60620424 </i>
    <i name="pawaedc">  -2129.10349373 </i>
    <i name="eentropy">      0.00000000 </i>
    <i name="bandstr">    -65.38238703 </i>
    <i name="atom">    916.21663293 </i>
    <i name="e_fr_energy">    -32.18994344 </i>
    <i name="e_wo_entrp">    -32.18994344 </i>
    <i name="e_0_energy">    -32.18994344 </i>
   </energy>
  </scstep>
  <scstep>
   <time name="dav">    0.19    0.20</time>
   <time name="total">    0.21    0.22</time>
   <energy>
    <i name="e_fr_energy">    -32.18549648 </i>
    <i name="e_wo_entrp">    -32.18549648 </i>
    <i name="e_0_energy">    -32.18549648 </i>
   </energy>
  </scstep>
  <scstep>
   <time name="dav">    0.19    0.20</time>
   <time name="total">    0.22    0.23</time>
   <energy>
    <i name="e_fr_energy">    -32.18398352 </i>
    <i name="e_wo_entrp">    -32.18398352 </i>
    <i name="e_0_energy">    -32.18398352 </i>
   </energy>
  </scstep>
  <scstep>
   <time name="dav">    0.16    0.17</time>
   <time name="total">    0.18    0.19</time>
   <energy>
    <i name="alphaZ">     83.09155083 </i>
    <i name="ewald">   -945.44908550 </i>
    <i name="hartreedc">    -78.13463315 </i>
    <i name="XCdc">   -119.89474334 </i>
    <i name="pawpsdc">   2355.20780835 </i>
    <i name="pawaedc">  -2176.74871941 </i>
    <i name="eentropy">      0.00000000 </i>
    <i name="bandstr">    -66.47274787 </i>
    <i name="atom">    916.21663293 </i>
    <i name="e_fr_energy">    -32.18393714 </i>
    <i name="e_wo_entrp">    -32.18393714 </i>
    <i name="e_0_energy">    -32.18393714 </i>
   </energy>
  </scstep>
  <structure>
   <crystal>
    <varray name="basis" >
     <v>       5.48130336       0.00000000      -0.00000000 </v>
     <v>      -0.00000000       5.48130336      -0.00000000 </v>
     <v>       0.00000000      -0.00000000       5.48130336 </v>
    </varray>
    <i name="volume">    164.68404162 </i>
    <varray name="rec_basis" >
     <v>       0.18243836       0.00000000      -0.00000000 </v>
     <v>      -0.00000000       0.18243836       0.00000000 </v>
     <v>       0.00000000       0.00000000       0.18243836 </v>
    </varray>
   </crystal>
   <varray name="positions" >
    <v>       0.00000000       0.00000000       1.00000000 </v>
    <v>       0.50000000       0.50000000       1.00000000 </v>
    <v>       0.50000000       0.00000000       0.50000000 </v>
    <v>       1.00000000       0.50000000       0.50000000 </v>
    <v>       0.25000000       0.25000000       0.25000000 </v>
    <v>       0.75000000       0.25000000       0.75000000 </v>
    <v>       0.75000000       0.75000000       0.25000000 </v>
    <v>       0.25000000       0.75000000       0.75000000 </v>
   </varray>
  </structure>
  <varray name="forces" >
   <v>      -0.00000000       0.00000000      -0.00000000 </v>
   <v>      -0.00000000      -0.00000000       0.00000000 </v>
   <v>      -0.00000000      -0.00000000      -0.00000000 </v>
   <v>      -0.00000000       0.00000000       0.00000000 </v>
   <v>       0.00000000      -0.00000000       0.00000000 </v>
   <v>       0.00000000      -0.00000000       0.00000000 </v>
   <v>       0.00000000      -0.00000000       0.00000000 </v>
   <v>       0.00000000      -0.00000000       0.00000000 </v>
  </varray>
  <varray name="stress" >
   <v>     132.40830700      -0.00000000      -0.00000000 </v>
   <v>      -0.00000000     132.40830700       0.00000000 </v>
   <v>      -0.00000000      -0.00000000     132.40830700 </v>
  </varray>
  <energy>
   <i name="e_fr_energy">    -16.76578973 </i>
   <i name="e_wo_entrp">    -16.76578973 </i>
   <i name="e_0_energy">    -16.76578973 </i>
  </energy>
  <time name="totalsc">    1.16    1.22</time>
 </calculation>
 <calculation>
  <scstep>
   <time name="dav">    0.20    0.21</time>
   <time name="total">    0.22    0.23</time>
   <energy>
    <i name="alphaZ">     84.35132249 </i>
    <i name="ewald">   -950.20320259 </i>
    <i name="hartreedc">    -78.49263793 </i>
    <i name="XCdc">   -119.76632443 </i>
    <i name="pawpsdc">   2356.40125081 </i>
    <i name="pawaedc">  -2177.95217091 </i>
    <i name="eentropy">      0.00000000 </i>
    <i name="bandstr">    -62.53118888 </i>
    <i name="atom">    916.21663293 </i>
    <i name="e_fr_energy">    -31.97631851 </i>
    <i name="e_wo_entrp">    -31.97631851 </i>
    <i name="e_0_energy">    -31.97631851 </i>
   </energy>
  </scstep>
  <scstep>
   <time name="dav">    0.19    0.20</time>
   <time name="total">    0.21    0.22</time>
   <energy>
    <i name="e_fr_energy">    -31.96905921 </i>
    <i name="e_wo_entrp">    -31.96905921 </i>
    <i name="e_0_energy">    -31.96905921 </i>
   </energy>
  </scstep>
  <scstep>
   <time name="dav">    0.19    0.20</time>
   <time name="total">    0.22    0.23</time>
   <energy>
    <i name="e_fr_energy">    -31.96655776 </i>
    <i name="e_wo_entrp">    -31.96655776 </i>
    <i name="e_0_energy">    -31.96655776 </i>
   </energy>
  </scstep>
  <scstep>
   <time name="dav">    0.18    0.19</time>
   <time name="total">    0.19    0.20</time>
   <energy>
    <i name="alphaZ">     84.35132249 </i>
    <i name="ewald">   -950.20320259 </i>
    <i name="hartreedc">    -77.09634702 </i>
    <i name="XCdc">   -119.71055589 </i>
    <i name="pawpsdc">   2418.22927617 </i>
    <i name="pawaedc">  -2239.83861943 </i>
    <i name="eentropy">      0.00000000 </i>
    <i name="bandstr">    -63.91499130 </i>
    <i name="atom">    916.21663293 </i>
    <i name="e_fr_energy">    -31.96648465 </i>
    <i name="e_wo_entrp">    -31.96648465 </i>
    <i name="e_0_energy">    -31.96648465 </i>
   </energy>
  </scstep>
  <structure>
   <crystal>
    <varray name="basis" >
     <v>       5.45387896       0.00000000      -0.00000000 </v>
     <v>      -0.00000000       5.45387896      -0.00000000 </v>
     <v>       0.00000000      -0.00000000       5.45387896 </v>
    </varray>
    <i name="volume">    162.22451542 </i>
    <varray name="rec_basis" >
     <v>       0.18335574       0.00000000      -0.00000000 </v>
     <v>      -0.00000000       0.18335574       0.00000000 </v>
     <v>       0.00000000       0.00000000       0.18335574 </v>
    </varray>
   </crystal>
   <varray name="positions" >
    <v>       0.00000000       0.00000000       0.00000000 </v>
    <v>       0.50000000       0.50000000       0.00000000 </v>
    <v>       0.50000000       0.00000000       0.50000000 </v>
    <v>       0.00000000       0.50000000       0.50000000 </v>
    <v>       0.25000000       0.25000000       0.25000000 </v>
    <v>       0.75000000       0.25000000       0.75000000 </v>
    <v>       0.75000000       0.75000000       0.25000000 </v>
    <v>       0.25000000       0.75000000       0.75000000 </v>
   </varray>
  </structure>
  <varray name="forces" >
   <v>      -0.00000000       0.00000000      -0.00000000 </v>
   <v>       0.00000000      -0.00000000      -0.00000000 </v>
   <v>       0.00000000       0.00000000       0.00000000 </v>
   <v>      -0.00000000      -0.00000000      -0.00000000 </v>
   <v>       0.00000000      -0.00000000       0.00000000 </v>
   <v>       0.00000000       0.00000000       0.00000000 </v>
   <v>       0.00000000      -0.00000000       0.00000000 </v>
   <v>      -0.00000000      -0.00000000       0.00000000 </v>
  </varray>
  <varray name="stress" >
   <v>     150.83679319      -0.00000000      -0.00000000 </v>
   <v>       0.00000000     150.83679319      -0.00000000 </v>
   <v>       0.00000000       0.00000000     150.83679319 </v>
  </varray>
  <energy>
   <i name="e_fr_energy">    -16.77860447 </i>
   <i name="e_wo_entrp">    -16.77860447 </i>
   <i name="e_0_energy">    -16.77860447 </i>
  </energy>
  <time name="totalsc">    1.18    2.33</time>
  <eigenvalues>
   <array>
    <dimension dim="1">band</dimension>
    <dimension dim="2">kpoint</dimension>
    <dimension dim="3">spin</dimension>
    <field>eigene</field>
    <field>occ</field>
    <set>
     <set comment="spin 1">
      <set comment="kpoint 1">
       <r>   -9.8381    1.0000 </r>
       <r>   -7.0252    1.0000 </r>
       <r>   -7.0252    1.0000 </r>
       <r>   -7.0252    1.0000 </r>
       <r>   -3.6198    1.0000 </r>
       <r>   -3.6198    1.0000 </r>
       <r>   -3.6198    1.0000 </r>
       <r>    0.6284    1.0000 </r>
       <r>    0.6284    1.0000 </r>
       <r>    0.6284    1.0000 </r>
       <r>    0.6284    1.0000 </r>
       <r>    0.6284    1.0000 </r>
       <r>    0.6284    1.0000 </r>
       <r>    3.6999    1.0000 </r>
       <r>    3.6999    1.0000 </r>
       <r>    3.6999    1.0000 </r>
       <r>    4.9407    0.0000 </r>
       <r>    4.9407    0.0000 </r>
       <r>    4.9407    0.0000 </r>
       <r>    5.1350    0.0000 </r>
       <r>    5.2972    0.0000 </r>
       <r>    5.2972    0.0000 </r>
       <r>    5.2972    0.0000 </r>
       <r>    7.4885    0.0000 </r>
      </set>
      <set comment="kpoint 2">
       <r>   -9.6739    1.0000 </r>
       <r>   -7.5400    1.0000 </r>
       <r>   -7.0028    1.0000 </r>
       <r>   -7.0028    1.0000 </r>
       <r>   -3.5402    1.0000 </r>
       <r>   -3.5402    1.0000 </r>
       <r>   -2.8848    1.0000 </r>
       <r>    0.2339    1.0000 </r>
       <r>    0.2339    1.0000 </r>
       <r>    0.3061    1.0000 </r>
       <r>    0.3061    1.0000 </r>
       <r>    0.8120    1.0000 </r>
       <r>    0.8120    1.0000 </r>
       <r>    2.3056    1.0000 </r>
       <r>    3.1531    1.0000 </r>
       <r>    3.1531    1.0000 </r>
       <r>    4.9610    0.0000 </r>
       <r>    5.7448    0.0000 </r>
       <r>    5.7697    0.0000 </r>
       <r>    5.7697    0.0000 </r>
       <r>    6.1384    0.0000 </r>
       <r>    6.1384    0.0000 </r>
       <r>    6.4274    0.0000 </r>
       <r>    6.9907    0.0000 </r>
      </set>
      <set comment="kpoint 3">
       <r>   -9.1916    1.0000 </r>
       <r>   -8.4337    1.0000 </r>
       <r>   -6.9656    1.0000 </r>
       <r>   -6.9656    1.0000 </r>
       <r>   -3.3917    1.0000 </r>
       <r>   -3.3917    1.0000 </r>
       <r>   -1.3470    1.0000 </r>
       <r>   -0.3111    1.0000 </r>
       <r>   -0.3111    1.0000 </r>
       <r>   -0.1091    1.0000 </r>
       <r>   -0.1091    1.0000 </r>
       <r>    0.4435    1.0000 </r>
       <r>    1.3485    1.0000 </r>
       <r>    1.3485    1.0000 </r>
       <r>    2.1836    1.0000 </r>
       <r>    2.1836    1.0000 </r>
       <r>    5.3023    0.0000 </r>
       <r>    5.9993    0.0000 </r>
       <r>    6.7242    0.0000 </r>
       <r>    7.5158    0.0000 </r>
       <r>    7.6723    0.0000 </r>
       <r>    7.6723    0.0000 </r>
       <r>    8.0512    0.0000 </r>
       <r>    8.0512    0.0000 </r>
      </set>
      <set comment="kpoint 4">
       <r>   -9.5131    1.0000 </r>
       <r>   -7.4690    1.0000 </r>
       <r>   -7.4690    1.0000 </r>
       <r>   -7.0265    1.0000 </r>
       <r>   -3.4639    1.0000 </r>
       <r>   -2.9286    1.0000 </r>
       <r>   -2.9286    1.0000 </r>
       <r>   -0.5184    1.0000 </r>
       <r>    0.3247    1.0000 </r>
       <r>    0.3247    1.0000 </r>
       <r>    0.6705    1.0000 </r>
       <r>    0.6705    1.0000 </r>
       <r>    0.9360    1.0000 </r>
       <r>    1.2091    1.0000 </r>
       <r>    2.5822    1.0000 </r>
       <r>    3.5064    1.0000 </r>
       <r>    5.4127    0.0000 </r>
       <r>    5.8458    0.0000 </r>
       <r>    5.8458    0.0000 </r>
       <r>    6.3874    0.0000 </r>
       <r>    6.4922    0.0000 </r>
       <r>    6.4922    0.0000 </r>
       <r>    7.5954    0.0000 </r>
       <r>    7.7562    0.0000 </r>
      </set>
      <set comment="kpoint 5">
       <r>   -9.0430    1.0000 </r>
       <r>   -8.3116    1.0000 </r>
       <r>   -7.2963    1.0000 </r>
       <r>   -7.1221    1.0000 </r>
       <r>   -3.2800    1.0000 </r>
       <r>   -3.0736    1.0000 </r>
       <r>   -1.6692    1.0000 </r>
       <r>   -0.8003    1.0000 </r>
       <r>   -0.4360    1.0000 </r>
       <r>   -0.2520    1.0000 </r>
       <r>    0.6155    1.0000 </r>
       <r>    0.7952    1.0000 </r>
       <r>    0.8655    1.0000 </r>
       <r>    1.5205    1.0000 </r>
       <r>    1.6030    1.0000 </r>
       <r>    2.6715    1.0000 </r>
       <r>    6.2184    0.0000 </r>
       <r>    6.5356    0.0000 </r>
       <r>    6.8535    0.0000 </r>
       <r>    7.2870    0.0000 </r>
       <r>    7.3803    0.0000 </r>
       <r>    7.7545    0.0000 </r>
       <r>    8.2410    0.0000 </r>
       <r>    8.9572    0.0000 </r>
      </set>
      <set comment="kpoint 6">
       <r>   -8.6148    1.0000 </r>
       <r>   -7.9744    1.0000 </r>
       <r>   -7.9744    1.0000 </r>
       <r>   -7.5195    1.0000 </r>
       <r>   -2.9208    1.0000 </r>
       <r>   -2.3263    1.0000 </r>
       <r>   -2.3263    1.0000 </r>
       <r>   -1.3460    1.0000 </r>
       <r>   -0.7224    1.0000 </r>
       <r>   -0.1059    1.0000 </r>
       <r>   -0.1059    1.0000 </r>
       <r>    0.6382    1.0000 </r>
       <r>    1.7683    1.0000 </r>
       <r>    1.8359    1.0000 </r>
       <r>    1.8359    1.0000 </r>
       <r>    2.8010    1.0000 </r>
       <r>    6.2472    0.0000 </r>
       <r>    6.8724    0.0000 </r>
       <r>    7.3631    0.0000 </r>
       <r>    7.3631    0.0000 </r>
       <r>    8.3165    0.0000 </r>
       <r>    8.3165    0.0000 </r>
       <r>    8.8381    0.0000 </r>
       <r>    8.9297    0.0000 </r>
      </set>
      <set comment="kpoint 7">
       <r>   -9.3568    1.0000 </r>
       <r>   -7.4308    1.0000 </r>
       <r>   -7.4308    1.0000 </r>
       <r>   -7.4308    1.0000 </r>
       <r>   -3.0318    1.0000 </r>
       <r>   -3.0318    1.0000 </r>
       <r>   -3.0318    1.0000 </r>
       <r>   -0.1283    1.0000 </r>
       <r>   -0.1283    1.0000 </r>
       <r>   -0.1283    1.0000 </r>
       <r>    0.2612    1.0000 </r>
       <r>    1.1047    1.0000 </r>
       <r>    1.1047    1.0000 </r>
       <r>    1.1047    1.0000 </r>
       <r>    3.1128    1.0000 </r>
       <r>    3.1128    1.0000 </r>
       <r>    5.6177    0.0000 </r>
       <r>    5.6177    0.0000 </r>
       <r>    5.6177    0.0000 </r>
       <r>    5.7461    0.0000 </r>
       <r>    7.7950    0.0000 </r>
       <r>    7.7950    0.0000 </r>
       <r>    7.7950    0.0000 </r>
       <r>    8.2702    0.0000 </r>
      </set>
      <set comment="kpoint 8">
       <r>   -8.9020    1.0000 </r>
       <r>   -8.2054    1.0000 </r>
       <r>   -7.3656    1.0000 </r>
       <r>   -7.3656    1.0000 </r>
       <r>   -3.2173    1.0000 </r>
       <r>   -3.2173    1.0000 </r>
       <r>   -2.1216    1.0000 </r>
       <r>   -1.0101    1.0000 </r>
       <r>   -0.3164    1.0000 </r>
       <r>   -0.3164    1.0000 </r>
       <r>    0.9393    1.0000 </r>
       <r>    1.1251    1.0000 </r>
       <r>    1.1251    1.0000 </r>
       <r>    1.5914    1.0000 </r>
       <r>    2.3242    1.0000 </r>
       <r>    2.3257    1.0000 </r>
       <r>    6.1487    0.0000 </r>
       <r>    6.2941    0.0000 </r>
       <r>    6.6995    0.0000 </r>
       <r>    6.6995    0.0000 </r>
       <r>    7.8433    0.0000 </r>
       <r>    8.1874    0.0000 </r>
       <r>    8.7786    0.0000 </r>
       <r>    8.7786    0.0000 </r>
      </set>
      <set comment="kpoint 9">
       <r>   -8.5017    1.0000 </r>
       <r>   -7.9255    1.0000 </r>
       <r>   -7.9255    1.0000 </r>
       <r>   -7.5934    1.0000 </r>
       <r>   -3.2501    1.0000 </r>
       <r>   -2.8393    1.0000 </r>
       <r>   -2.8393    1.0000 </r>
       <r>   -2.0640    1.0000 </r>
       <r>    0.0777    1.0000 </r>
       <r>    0.6236    1.0000 </r>
       <r>    0.6236    1.0000 </r>
       <r>    1.5370    1.0000 </r>
       <r>    1.8729    1.0000 </r>
       <r>    1.9164    1.0000 </r>
       <r>    1.9164    1.0000 </r>
       <r>    2.7196    1.0000 </r>
       <r>    6.0913    0.0000 </r>
       <r>    6.3201    0.0000 </r>
       <r>    6.7673    0.0000 </r>
       <r>    6.7673    0.0000 </r>
       <r>    7.9349    0.0000 </r>
       <r>    7.9349    0.0000 </r>
       <r>    8.5341    0.0000 </r>
       <r>    8.5713    0.0000 </r>
      </set>
      <set comment="kpoint 10">
       <r>   -8.2013    1.0000 </r>
       <r>   -7.8406    1.0000 </r>
       <r>   -7.8406    1.0000 </r>
       <r>   -7.8406    1.0000 </r>
       <r>   -3.4081    1.0000 </r>
       <r>   -3.4081    1.0000 </r>
       <r>   -3.4081    1.0000 </r>
       <r>   -2.9651    1.0000 </r>
       <r>    1.5584    1.0000 </r>
       <r>    1.5584    1.0000 </r>
       <r>    1.5584    1.0000 </r>
       <r>    2.1476    1.0000 </r>
       <r>    2.1476    1.0000 </r>
       <r>    2.1476    1.0000 </r>
       <r>    2.4779    1.0000 </r>
       <r>    2.4779    1.0000 </r>
       <r>    5.1534    0.0000 </r>
       <r>    5.8888    0.0000 </r>
       <r>    5.8888    0.0000 </r>
       <r>    5.8888    0.0000 </r>
       <r>    8.0914    0.0000 </r>
       <r>    8.0914    0.0000 </r>
       <r>    8.0914    0.0000 </r>
       <r>    8.4422    0.0000 </r>
      </set>
     </set>
    </set>
   </array>
  </eigenvalues>
  <separator name="orbital magnetization" >
   <v name="MAGDIPOLOUT">      0.00000000      0.00000000      0.00000000</v>
  </separator>
  <dos>
   <i name="efermi">      3.72078701 </i>
   <total>
    <array>
     <dimension dim="1">gridpoints</dimension>
     <dimension dim="2">spin</dimension>
     <field>energy</field>
     <field>total</field>
     <field>integrated</field>
     <set>
      <set comment="spin 1">
       <r>   -10.8381     0.0000     0.0000 </r>
       <r>   -10.7688     0.0000     0.0000 </r>
       <r>   -10.6995     0.0000     0.0000 </r>
       <r>   -10.6302     0.0000     0.0000 </r>
       <r>   -10.5609     0.0000     0.0000 </r>
       <r>   -10.4916     0.0000     0.0000 </r>
       <r>   -10.4222     0.0000     0.0000 </r>
       <r>   -10.3529     0.0000     0.0000 </r>
       <r>   -10.2836     0.0000     0.0000 </r>
       <r>   -10.2143     0.0000     0.0000 </r>
       <r>   -10.1450     0.0000     0.0000 </r>
       <r>   -10.0756     0.0000     0.0000 </r>
       <r>   -10.0063     0.0000     0.0000 </r>
       <r>    -9.9370     0.0000     0.0000 </r>
       <r>    -9.8677     0.0000     0.0000 </r>
       <r>    -9.7984     0.0232     0.0003 </r>
       <r>    -9.7291     0.1748     0.0064 </r>
       <r>    -9.6597     0.4637     0.0278 </r>
       <r>    -9.5904     0.7077     0.0692 </r>
       <r>    -9.5211     0.8078     0.1226 </r>
       <r>    -9.4518     0.8340     0.1792 </r>
       <r>    -9.3825     0.9141     0.2395 </r>
       <r>    -9.3132     1.0410     0.3071 </r>
       <r>    -9.2438     1.1791     0.3840 </r>
       <r>    -9.1745     1.4698     0.4720 </r>
       <r>    -9.1052     2.0976     0.5967 </r>
       <r>    -9.0359     2.5040     0.7587 </r>
       <r>    -8.9666     2.1201     0.9186 </r>
       <r>    -8.8972     1.8270     1.0544 </r>
       <r>    -8.8279     1.8169     1.1808 </r>
       <r>    -8.7586     1.7868     1.3058 </r>
       <r>    -8.6893     1.7367     1.4280 </r>
       <r>    -8.6200     1.6665     1.5461 </r>
       <r>    -8.5507     1.9320     1.6968 </r>
       <r>    -8.4813     1.0231     1.8030 </r>
       <r>    -8.4120     1.1180     1.8700 </r>
       <r>    -8.3427     1.9816     1.9765 </r>
       <r>    -8.2734     2.6846     2.1449 </r>
       <r>    -8.2041     2.8358     2.3369 </r>
       <r>    -8.1347     3.1169     2.5412 </r>
       <r>    -8.0654     3.2000     2.7525 </r>
       <r>    -7.9961     3.4526     2.9834 </r>
       <r>    -7.9268     6.9650     3.4021 </r>
       <r>    -7.8575     5.3717     3.8441 </r>
       <r>    -7.7882     3.8510     4.1403 </r>
       <r>    -7.7188     3.3908     4.3670 </r>
       <r>    -7.6495     3.6682     4.6114 </r>
       <r>    -7.5802     5.1033     4.8901 </r>
       <r>    -7.5109     6.0449     5.2968 </r>
       <r>    -7.4416     6.1396     5.7242 </r>
       <r>    -7.3722     7.1308     6.1883 </r>
       <r>    -7.3029     6.2800     6.6596 </r>
       <r>    -7.2336     4.7231     7.0076 </r>
       <r>    -7.1643     4.3582     7.3223 </r>
       <r>    -7.0950     4.0432     7.6156 </r>
       <r>    -7.0257     3.6782     7.8723 </r>
       <r>    -6.9563     0.0000     8.0000 </r>
       <r>    -6.8870     0.0000     8.0000 </r>
       <r>    -6.8177     0.0000     8.0000 </r>
       <r>    -6.7484     0.0000     8.0000 </r>
       <r>    -6.6791     0.0000     8.0000 </r>
       <r>    -6.6098     0.0000     8.0000 </r>
       <r>    -6.5404     0.0000     8.0000 </r>
       <r>    -6.4711     0.0000     8.0000 </r>
       <r>    -6.4018     0.0000     8.0000 </r>
       <r>    -6.3325     0.0000     8.0000 </r>
       <r>    -6.2632     0.0000     8.0000 </r>
       <r>    -6.1938     0.0000     8.0000 </r>
       <r>    -6.1245     0.0000     8.0000 </r>
       <r>    -6.0552     0.0000     8.0000 </r>
       <r>    -5.9859     0.0000     8.0000 </r>
       <r>    -5.9166     0.0000     8.0000 </r>
       <r>    -5.8473     0.0000     8.0000 </r>
       <r>    -5.7779     0.0000     8.0000 </r>
       <r>    -5.7086     0.0000     8.0000 </r>
       <r>    -5.6393     0.0000     8.0000 </r>
       <r>    -5.5700     0.0000     8.0000 </r>
       <r>    -5.5007     0.0000     8.0000 </r>
       <r>    -5.4313     0.0000     8.0000 </r>
       <r>    -5.3620     0.0000     8.0000 </r>
       <r>    -5.2927     0.0000     8.0000 </r>
       <r>    -5.2234     0.0000     8.0000 </r>
       <r>    -5.1541     0.0000     8.0000 </r>
       <r>    -5.0848     0.0000     8.0000 </r>
       <r>    -5.0154     0.0000     8.0000 </r>
       <r>    -4.9461     0.0000     8.0000 </r>
       <r>    -4.8768     0.0000     8.0000 </r>
       <r>    -4.8075     0.0000     8.0000 </r>
       <r>    -4.7382     0.0000     8.0000 </r>
       <r>    -4.6688     0.0000     8.0000 </r>
       <r>    -4.5995     0.0000     8.0000 </r>
       <r>    -4.5302     0.0000     8.0000 </r>
       <r>    -4.4609     0.0000     8.0000 </r>
       <r>    -4.3916     0.0000     8.0000 </r>
       <r>    -4.3223     0.0000     8.0000 </r>
       <r>    -4.2529     0.0000     8.0000 </r>
       <r>    -4.1836     0.0000     8.0000 </r>
       <r>    -4.1143     0.0000     8.0000 </r>
       <r>    -4.0450     0.0000     8.0000 </r>
       <r>    -3.9757     0.0000     8.0000 </r>
       <r>    -3.9064     0.0000     8.0000 </r>
       <r>    -3.8370     0.0000     8.0000 </r>
       <r>    -3.7677     0.0000     8.0000 </r>
       <r>    -3.6984     0.0000     8.0000 </r>
       <r>    -3.6291     0.0000     8.0000 </r>
       <r>    -3.5598     0.4890     8.0098 </r>
       <r>    -3.4904     1.4424     8.0833 </r>
       <r>    -3.4211     1.9690     8.1943 </r>
       <r>    -3.3518     6.3011     8.5068 </r>
       <r>    -3.2825     9.1339     9.0180 </r>
       <r>    -3.2132    11.4336     9.8493 </r>
       <r>    -3.1439     7.9066    10.3906 </r>
       <r>    -3.0745     8.2437    10.9494 </r>
       <r>    -3.0052     5.6127    11.3963 </r>
       <r>    -2.9359     4.6681    11.7573 </r>
       <r>    -2.8666     3.5022    12.0320 </r>
       <r>    -2.7973     2.4944    12.2194 </r>
       <r>    -2.7279     2.4307    12.3901 </r>
       <r>    -2.6586     2.3708    12.5565 </r>
       <r>    -2.5893     2.3146    12.7189 </r>
       <r>    -2.5200     2.2623    12.8775 </r>
       <r>    -2.4507     2.2137    13.0326 </r>
       <r>    -2.3814     2.1689    13.1845 </r>
       <r>    -2.3120     1.7569    13.3281 </r>
       <r>    -2.2427     1.7301    13.4489 </r>
       <r>    -2.1734     1.6985    13.5678 </r>
       <r>    -2.1041     1.6561    13.6843 </r>
       <r>    -2.0348     1.6070    13.7972 </r>
       <r>    -1.9654     1.5481    13.9066 </r>
       <r>    -1.8961     1.4843    14.0117 </r>
       <r>    -1.8268     1.4158    14.1123 </r>
       <r>    -1.7575     1.3424    14.2079 </r>
       <r>    -1.6882     1.2643    14.2983 </r>
       <r>    -1.6189     1.2419    14.3867 </r>
       <r>    -1.5495     1.1369    14.4691 </r>
       <r>    -1.4802     1.0471    14.5447 </r>
       <r>    -1.4109     0.9727    14.6146 </r>
       <r>    -1.3416     0.7879    14.6793 </r>
       <r>    -1.2723     0.8387    14.7357 </r>
       <r>    -1.2030     0.8942    14.7957 </r>
       <r>    -1.1336     0.9543    14.8597 </r>
       <r>    -1.0643     1.0191    14.9281 </r>
       <r>    -0.9950     1.1010    15.0012 </r>
       <r>    -0.9257     1.2580    15.0827 </r>
       <r>    -0.8564     1.4622    15.1767 </r>
       <r>    -0.7870     1.3830    15.2826 </r>
       <r>    -0.7177     1.4336    15.3761 </r>
       <r>    -0.6484     1.6146    15.4812 </r>
       <r>    -0.5791     1.8752    15.6017 </r>
       <r>    -0.5098     2.2007    15.7430 </r>
       <r>    -0.4405     2.4897    15.9052 </r>
       <r>    -0.3711     4.4024    16.1891 </r>
       <r>    -0.3018     4.5449    16.5083 </r>
       <r>    -0.2325     7.4815    16.9810 </r>
       <r>    -0.1632     6.1621    17.4571 </r>
       <r>    -0.0939     5.0004    17.8300 </r>
       <r>    -0.0245     4.6645    18.1650 </r>
       <r>     0.0448     4.3338    18.4768 </r>
       <r>     0.1141     3.8515    18.7588 </r>
       <r>     0.1834     3.7150    19.0207 </r>
       <r>     0.2527     4.0463    19.2793 </r>
       <r>     0.3220     4.8999    19.5926 </r>
       <r>     0.3914     3.5791    19.8383 </r>
       <r>     0.4607     3.7104    20.0903 </r>
       <r>     0.5300     3.9702    20.3560 </r>
       <r>     0.5993     4.3089    20.6425 </r>
       <r>     0.6686     5.7229    21.0071 </r>
       <r>     0.7379     7.2783    21.4677 </r>
       <r>     0.8073     6.5482    21.9637 </r>
       <r>     0.8766     7.1000    22.4047 </r>
       <r>     0.9459     6.7833    22.9047 </r>
       <r>     1.0152     5.9958    23.3482 </r>
       <r>     1.0845     5.1153    23.7338 </r>
       <r>     1.1539     4.1721    24.0508 </r>
       <r>     1.2232     4.1479    24.3381 </r>
       <r>     1.2925     4.0368    24.6212 </r>
       <r>     1.3618     4.1517    24.9009 </r>
       <r>     1.4311     4.7578    25.2106 </r>
       <r>     1.5004     5.2108    25.5569 </r>
       <r>     1.5698     5.5416    25.9829 </r>
       <r>     1.6391     4.8864    26.3097 </r>
       <r>     1.7084     5.1299    26.6569 </r>
       <r>     1.7777     6.2348    27.0290 </r>
       <r>     1.8470     8.3030    27.4837 </r>
       <r>     1.9164     6.5126    27.9926 </r>
       <r>     1.9857     4.6577    28.3357 </r>
       <r>     2.0550     4.0887    28.6387 </r>
       <r>     2.1243     3.5325    28.9028 </r>
       <r>     2.1936     3.0258    29.1403 </r>
       <r>     2.2629     2.2236    29.2985 </r>
       <r>     2.3323     2.1581    29.4481 </r>
       <r>     2.4016     2.7824    29.6192 </r>
       <r>     2.4709     3.4397    29.8346 </r>
       <r>     2.5402     4.6941    30.1397 </r>
       <r>     2.6095     4.6930    30.4494 </r>
       <r>     2.6789     4.6458    30.7847 </r>
       <r>     2.7482     4.4182    31.1230 </r>
       <r>     2.8175     1.6352    31.3422 </r>
       <r>     2.8868     1.4491    31.4491 </r>
       <r>     2.9561     1.2679    31.5432 </r>
       <r>     3.0254     1.0915    31.6250 </r>
       <r>     3.0948     0.9200    31.6947 </r>
       <r>     3.1641     0.8324    31.7537 </r>
       <r>     3.2334     0.8917    31.8141 </r>
       <r>     3.3027     0.8499    31.8750 </r>
       <r>     3.3720     0.7070    31.9296 </r>
       <r>     3.4413     0.4630    31.9707 </r>
       <r>     3.5107     0.1357    31.9914 </r>
       <r>     3.5800     0.0545    31.9978 </r>
       <r>     3.6493     0.0097    31.9998 </r>
       <r>     3.7186     0.0000    32.0000 </r>
       <r>     3.7879     0.0000    32.0000 </r>
       <r>     3.8573     0.0000    32.0000 </r>
       <r>     3.9266     0.0000    32.0000 </r>
       <r>     3.9959     0.0000    32.0000 </r>
       <r>     4.0652     0.0000    32.0000 </r>
       <r>     4.1345     0.0000    32.0000 </r>
       <r>     4.2038     0.0000    32.0000 </r>
       <r>     4.2732     0.0000    32.0000 </r>
       <r>     4.3425     0.0000    32.0000 </r>
       <r>     4.4118     0.0000    32.0000 </r>
       <r>     4.4811     0.0000    32.0000 </r>
       <r>     4.5504     0.0000    32.0000 </r>
       <r>     4.6198     0.0000    32.0000 </r>
       <r>     4.6891     0.0000    32.0000 </r>
       <r>     4.7584     0.0000    32.0000 </r>
       <r>     4.8277     0.0000    32.0000 </r>
       <r>     4.8970     0.0000    32.0000 </r>
       <r>     4.9663     0.2134    32.0025 </r>
       <r>     5.0357     0.2688    32.0192 </r>
       <r>     5.1050     0.3396    32.0402 </r>
       <r>     5.1743     0.7664    32.0848 </r>
       <r>     5.2436     0.6657    32.1263 </r>
       <r>     5.3129     0.8214    32.1777 </r>
       <r>     5.3823     0.9812    32.2404 </r>
       <r>     5.4516     1.0969    32.3126 </r>
       <r>     5.5209     1.2423    32.3934 </r>
       <r>     5.5902     1.4416    32.4861 </r>
       <r>     5.6595     1.7698    32.5955 </r>
       <r>     5.7288     2.5328    32.7419 </r>
       <r>     5.7982     4.3502    32.9762 </r>
       <r>     5.8675     3.3035    33.2395 </r>
       <r>     5.9368     4.9167    33.5529 </r>
       <r>     6.0061     4.7799    33.8646 </r>
       <r>     6.0754     5.4178    34.2182 </r>
       <r>     6.1447    10.1444    34.8003 </r>
       <r>     6.2141    11.3415    35.5353 </r>
       <r>     6.2834     5.0501    35.9793 </r>
       <r>     6.3527     6.6530    36.4402 </r>
       <r>     6.4220     5.2698    36.8133 </r>
       <r>     6.4913     5.0599    37.1712 </r>
       <r>     6.5607     4.3740    37.5041 </r>
       <r>     6.6300     4.2522    37.8029 </r>
       <r>     6.6993     4.1729    38.0946 </r>
       <r>     6.7686     9.3837    38.6929 </r>
       <r>     6.8379     5.7682    39.1355 </r>
       <r>     6.9072     3.8151    39.4357 </r>
       <r>     6.9766     3.6574    39.6947 </r>
       <r>     7.0459     3.5544    39.9442 </r>
       <r>     7.1152     3.4684    40.1876 </r>
       <r>     7.1845     3.3873    40.4252 </r>
       <r>     7.2538     3.3113    40.6573 </r>
       <r>     7.3232     2.9453    40.8834 </r>
       <r>     7.3925     2.5732    41.0569 </r>
       <r>     7.4618     2.4999    41.2325 </r>
       <r>     7.5311     2.5187    41.4050 </r>
       <r>     7.6004     2.7295    41.5866 </r>
       <r>     7.6697     3.0067    41.7852 </r>
       <r>     7.7391     4.3196    42.0384 </r>
       <r>     7.8084     3.9264    42.3112 </r>
       <r>     7.8777     5.7885    42.6402 </r>
       <r>     7.9470     9.0590    43.1176 </r>
       <r>     8.0163     8.1801    43.7175 </r>
       <r>     8.0857     7.0423    44.2448 </r>
       <r>     8.1550     5.5249    44.6755 </r>
       <r>     8.2243     3.9879    44.9745 </r>
       <r>     8.2936     3.2268    45.2182 </r>
       <r>     8.3629     2.8615    45.4178 </r>
       <r>     8.4322     3.2694    45.6300 </r>
       <r>     8.5016     5.3165    45.9505 </r>
       <r>     8.5709     6.4184    46.3528 </r>
       <r>     8.6402     5.5718    46.7445 </r>
       <r>     8.7095     5.1398    47.1177 </r>
       <r>     8.7788     4.3689    47.4492 </r>
       <r>     8.8481     2.9577    47.7041 </r>
       <r>     8.9175     3.0624    47.9121 </r>
       <r>     8.9868     0.0000    48.0000 </r>
       <r>     9.0561     0.0000    48.0000 </r>
       <r>     9.1254     0.0000    48.0000 </r>
       <r>     9.1947     0.0000    48.0000 </r>
       <r>     9.2641     0.0000    48.0000 </r>
       <r>     9.3334     0.0000    48.0000 </r>
       <r>     9.4027     0.0000    48.0000 </r>
       <r>     9.4720     0.0000    48.0000 </r>
       <r>     9.5413     0.0000    48.0000 </r>
       <r>     9.6106     0.0000    48.0000 </r>
       <r>     9.6800     0.0000    48.0000 </r>
       <r>     9.7493     0.0000    48.0000 </r>
       <r>     9.8186     0.0000    48.0000 </r>
       <r>     9.8879     0.0000    48.0000 </r>
       <r>     9.9572     0.0000    48.0000 </r>
      </set>
     </set>
    </array>
   </total>
  </dos>
 </calculation>
 <structure name="finalpos" >
  <crystal>
   <varray name="basis" >
    <v>       5.45387896       0.00000000      -0.00000000 </v>
    <v>      -0.00000000       5.45387896      -0.00000000 </v>
    <v>       0.00000000      -0.00000000       5.45387896 </v>
   </varray>
   <i name="volume">    162.22451542 </i>
   <varray name="rec_basis" >
    <v>       0.18335574       0.00000000      -0.00000000 </v>
    <v>      -0.00000000       0.18335574       0.00000000 </v>
    <v>       0.00000000       0.00000000       0.18335574 </v>
   </varray>
  </crystal>
  <varray name="positions" >
   <v>       0.00000000       0.00000000       0.00000000 </v>
   <v>       0.50000000       0.50000000       0.00000000 </v>
   <v>       0.50000000       0.00000000       0.50000000 </v>
   <v>       0.00000000       0.50000000       0.50000000 </v>
   <v>       0.25000000       0.25000000       0.25000000 </v>
   <v>       0.75000000       0.25000000       0.75000000 </v>
   <v>       0.75000000       0.75000000       0.25000000 </v>
   <v>       0.25000000       0.75000000       0.75000000 </v>
  </varray>
 </structure>
</modeling>
