 running    8 mpi-ranks, on    1 nodes
 distrk:  each k-point on    8 cores,    1 groups
 distr:  one band on    1 cores,    8 groups
 vasp.6.4.3 19Mar24 (build Aug 29 2024 15:27:20) complex                        
  
 POSCAR found type information on POSCAR AsGa
 POSCAR found :  2 types and       8 ions
 scaLAPACK will be used
 -----------------------------------------------------------------------------
|                                                                             |
|           W    W    AA    RRRRR   N    N  II  N    N   GGGG   !!!           |
|           W    W   A  A   R    R  NN   N  II  NN   N  G    G  !!!           |
|           W    W  A    A  R    R  N N  N  II  N N  N  G       !!!           |
|           W WW W  AAAAAA  RRRRR   N  N N  II  N  N N  G  GGG   !            |
|           WW  WW  A    A  R   R   N   NN  II  N   NN  G    G                |
|           W    W  A    A  R    R  N    N  II  N    N   GGGG   !!!           |
|                                                                             |
|     For optimal performance we recommend to set                             |
|       NCORE = 2 up to number-of-cores-per-socket                            |
|     NCORE specifies how many cores store one orbital (NPAR=cpu/NCORE).      |
|     This setting can greatly improve the performance of VASP for DFT.       |
|     The default, NCORE=1 might be grossly inefficient on modern             |
|     multi-core architectures or massively parallel machines. Do your        |
|     own testing! More info at https://www.vasp.at/wiki/index.php/NCORE      |
|     Unfortunately you need to use the default for GW and RPA                |
|     calculations (for HF NCORE is supported but not extensively tested      |
|     yet).                                                                   |
|                                                                             |
 -----------------------------------------------------------------------------

 LDA part: xc-table for (Slater+PW92), standard interpolation
 found WAVECAR, reading the header
 POSCAR, INCAR and KPOINTS ok, starting setup
 FFT: planning ... GRIDC
 FFT: planning ... GRID_SOFT
 FFT: planning ... GRID
 reading WAVECAR
 the WAVECAR file was read successfully
 initial charge from wavefunction
 entering main loop
       N       E                     dE             d eps       ncg     rms          rms(c)
DAV:   1    -0.323434142773E+02   -0.32343E+02   -0.26077E-01   544   0.224E+00    0.825E-01
DAV:   2    -0.323374574206E+02    0.59569E-02   -0.14003E-02   504   0.524E-01    0.492E-01
DAV:   3    -0.323355068144E+02    0.19506E-02   -0.94626E-03   512   0.355E-01    0.556E-02
DAV:   4    -0.323353783172E+02    0.12850E-03   -0.56449E-04   504   0.109E-01    0.315E-02
DAV:   5    -0.323353632584E+02    0.15059E-04   -0.70178E-05   240   0.338E-02
   1 F= -.16736463E+02 E0= -.16736463E+02  d E =-.167365E+02
 curvature:   0.00 expect dE= 0.000E+00 dE for cont linesearch  0.000E+00
 trial: gam= 0.00000 g(F)=  0.501E-60 g(S)=  0.374E-01 ort = 0.000E+00 (trialstep = 0.100E+01)
 search vector abs. value=  0.374E-01
 bond charge predicted
       N       E                     dE             d eps       ncg     rms          rms(c)
DAV:   1    -0.321899434420E+02    0.14543E+00   -0.13280E-01   544   0.159E+00    0.392E-01
DAV:   2    -0.321854964756E+02    0.44470E-02   -0.79282E-03   504   0.397E-01    0.205E-01
DAV:   3    -0.321839835188E+02    0.15130E-02   -0.54827E-03   520   0.273E-01    0.671E-02
DAV:   4    -0.321839371390E+02    0.46380E-04   -0.19751E-04   384   0.684E-02
   2 F= -.16765790E+02 E0= -.16765790E+02  d E =-.293272E-01
 trial-energy change:   -0.029327  1 .order   -0.029217   -0.037399   -0.021034
 step:   2.2853(harm=  2.2853)  dis= 0.00000  next Energy=   -16.779197 (dE=-0.427E-01)
 bond charge predicted
       N       E                     dE             d eps       ncg     rms          rms(c)
DAV:   1    -0.319763185077E+02    0.20767E+00   -0.21810E-01   544   0.204E+00    0.498E-01
DAV:   2    -0.319690592140E+02    0.72593E-02   -0.12987E-02   504   0.510E-01    0.261E-01
DAV:   3    -0.319665577592E+02    0.25015E-02   -0.89709E-03   520   0.351E-01    0.881E-02
DAV:   4    -0.319664846460E+02    0.73113E-04   -0.32017E-04   464   0.869E-02
   3 F= -.16778604E+02 E0= -.16778604E+02  d E =-.421419E-01
 curvature:  -1.14 expect dE=-0.297E-04 dE for cont linesearch -0.297E-04
 trial: gam= 0.00000 g(F)=  0.104E-59 g(S)=  0.260E-04 ort =-0.986E-03 (trialstep = 0.126E+01)
 search vector abs. value=  0.260E-04
 reached required accuracy - stopping structural energy minimisation
 writing wavefunctions
