  64  64   0   0
  0.2414973E+02  0.1181497E-08  0.1143747E-08  0.1143747E-08  0.1000000E-15
  1.000000000000000E-004
  CAR 
 GaAs                                    
      7.36530624    -11.02886401  301      2.28008459      1.00000000
    -11.029  0.0000E+00  0.0000E+00
    -10.968  0.0000E+00  0.0000E+00
    -10.906  0.0000E+00  0.0000E+00
    -10.845  0.0000E+00  0.0000E+00
    -10.784  0.0000E+00  0.0000E+00
    -10.722  0.0000E+00  0.0000E+00
    -10.661  0.0000E+00  0.0000E+00
    -10.600  0.0000E+00  0.0000E+00
    -10.538  0.0000E+00  0.0000E+00
    -10.477  0.0000E+00  0.0000E+00
    -10.416  0.0000E+00  0.0000E+00
    -10.354  0.0000E+00  0.0000E+00
    -10.293  0.0000E+00  0.0000E+00
    -10.232  0.0000E+00  0.0000E+00
    -10.170  0.0000E+00  0.0000E+00
    -10.109  0.0000E+00  0.0000E+00
    -10.048  0.0000E+00  0.0000E+00
     -9.987  0.2854E-01  0.4339E-03
     -9.925  0.4744E-01  0.2845E-02
     -9.864  0.1145E+00  0.7331E-02
     -9.803  0.8210E-01  0.1272E-01
     -9.741  0.6530E-01  0.1744E-01
     -9.680  0.1147E+00  0.2218E-01
     -9.619  0.1140E+00  0.2905E-01
     -9.557  0.1534E+00  0.3764E-01
     -9.496  0.1201E+00  0.4499E-01
     -9.435  0.2202E+00  0.5401E-01
     -9.373  0.1208E+00  0.6479E-01
     -9.312  0.1491E+00  0.7255E-01
     -9.251  0.1521E+00  0.8186E-01
     -9.189  0.2740E+00  0.9381E-01
     -9.128  0.2964E+00  0.1108E+00
     -9.067  0.1574E+00  0.1256E+00
     -9.006  0.2166E+00  0.1331E+00
     -8.944  0.2547E+00  0.1502E+00
     -8.883  0.1601E+00  0.1622E+00
     -8.822  0.4265E+00  0.1797E+00
     -8.760  0.3223E+00  0.2019E+00
     -8.699  0.3185E+00  0.2201E+00
     -8.638  0.4876E+00  0.2415E+00
     -8.576  0.5422E+00  0.2655E+00
     -8.515  0.5950E+00  0.2993E+00
     -8.454  0.5290E+00  0.3350E+00
     -8.392  0.6192E+00  0.3691E+00
     -8.331  0.5877E+00  0.4012E+00
     -8.270  0.4880E+00  0.4247E+00
     -8.208  0.4901E+00  0.4562E+00
     -8.147  0.9148E+00  0.4923E+00
     -8.086  0.5528E+00  0.5255E+00
     -8.024  0.6488E+00  0.5600E+00
     -7.963  0.7782E+00  0.6025E+00
     -7.902  0.3590E+00  0.6345E+00
     -7.841  0.2610E-01  0.6400E+00
     -7.779  0.0000E+00  0.6400E+00
     -7.718  0.0000E+00  0.6400E+00
     -7.657  0.0000E+00  0.6400E+00
     -7.595  0.0000E+00  0.6400E+00
     -7.534  0.0000E+00  0.6400E+00
     -7.473  0.0000E+00  0.6400E+00
     -7.411  0.0000E+00  0.6400E+00
     -7.350  0.0000E+00  0.6400E+00
     -7.289  0.0000E+00  0.6400E+00
     -7.227  0.0000E+00  0.6400E+00
     -7.166  0.0000E+00  0.6400E+00
     -7.105  0.0000E+00  0.6400E+00
     -7.043  0.0000E+00  0.6400E+00
     -6.982  0.0000E+00  0.6400E+00
     -6.921  0.0000E+00  0.6400E+00
     -6.860  0.0000E+00  0.6400E+00
     -6.798  0.0000E+00  0.6400E+00
     -6.737  0.0000E+00  0.6400E+00
     -6.676  0.0000E+00  0.6400E+00
     -6.614  0.0000E+00  0.6400E+00
     -6.553  0.0000E+00  0.6400E+00
     -6.492  0.0000E+00  0.6400E+00
     -6.430  0.0000E+00  0.6400E+00
     -6.369  0.0000E+00  0.6400E+00
     -6.308  0.0000E+00  0.6400E+00
     -6.246  0.0000E+00  0.6400E+00
     -6.185  0.0000E+00  0.6400E+00
     -6.124  0.0000E+00  0.6400E+00
     -6.062  0.0000E+00  0.6400E+00
     -6.001  0.0000E+00  0.6400E+00
     -5.940  0.0000E+00  0.6400E+00
     -5.878  0.0000E+00  0.6400E+00
     -5.817  0.0000E+00  0.6400E+00
     -5.756  0.0000E+00  0.6400E+00
     -5.695  0.0000E+00  0.6400E+00
     -5.633  0.0000E+00  0.6400E+00
     -5.572  0.0000E+00  0.6400E+00
     -5.511  0.0000E+00  0.6400E+00
     -5.449  0.0000E+00  0.6400E+00
     -5.388  0.0000E+00  0.6400E+00
     -5.327  0.0000E+00  0.6400E+00
     -5.265  0.0000E+00  0.6400E+00
     -5.204  0.0000E+00  0.6400E+00
     -5.143  0.0000E+00  0.6400E+00
     -5.081  0.0000E+00  0.6400E+00
     -5.020  0.0000E+00  0.6400E+00
     -4.959  0.0000E+00  0.6400E+00
     -4.897  0.0000E+00  0.6400E+00
     -4.836  0.0000E+00  0.6400E+00
     -4.775  0.0000E+00  0.6400E+00
     -4.714  0.0000E+00  0.6400E+00
     -4.652  0.0000E+00  0.6400E+00
     -4.591  0.0000E+00  0.6400E+00
     -4.530  0.0000E+00  0.6400E+00
     -4.468  0.0000E+00  0.6400E+00
     -4.407  0.0000E+00  0.6400E+00
     -4.346  0.1620E-01  0.6403E+00
     -4.284  0.5383E-01  0.6424E+00
     -4.223  0.1008E+00  0.6467E+00
     -4.162  0.2357E+00  0.6568E+00
     -4.100  0.3843E+00  0.6743E+00
     -4.039  0.7282E+00  0.7096E+00
     -3.978  0.1058E+01  0.7552E+00
     -3.916  0.2184E+01  0.8211E+00
     -3.855  0.7303E+00  0.8713E+00
     -3.794  0.1130E+01  0.9054E+00
     -3.733  0.3975E+00  0.9349E+00
     -3.671  0.1940E+00  0.9518E+00
     -3.610  0.2957E+00  0.9651E+00
     -3.549  0.4405E+00  0.9912E+00
     -3.487  0.2281E+00  0.1009E+01
     -3.426  0.1783E+00  0.1021E+01
     -3.365  0.1866E+00  0.1031E+01
     -3.303  0.5329E+00  0.1050E+01
     -3.242  0.1893E+00  0.1069E+01
     -3.181  0.1243E+00  0.1077E+01
     -3.119  0.1081E+00  0.1085E+01
     -3.058  0.9549E-01  0.1090E+01
     -2.997  0.1269E+00  0.1097E+01
     -2.935  0.2036E+00  0.1106E+01
     -2.874  0.1497E+00  0.1116E+01
     -2.813  0.1327E+00  0.1125E+01
     -2.751  0.1322E+00  0.1133E+01
     -2.690  0.1327E+00  0.1141E+01
     -2.629  0.1139E+00  0.1149E+01
     -2.568  0.9526E-01  0.1155E+01
     -2.506  0.6083E-01  0.1160E+01
     -2.445  0.7204E-01  0.1164E+01
     -2.384  0.7960E-01  0.1169E+01
     -2.322  0.1020E+00  0.1174E+01
     -2.261  0.1178E+00  0.1181E+01
     -2.200  0.9265E-01  0.1188E+01
     -2.138  0.7525E-01  0.1192E+01
     -2.077  0.7728E-01  0.1197E+01
     -2.016  0.4837E-01  0.1201E+01
     -1.954  0.4329E-01  0.1204E+01
     -1.893  0.4000E-01  0.1206E+01
     -1.832  0.3875E-01  0.1209E+01
     -1.770  0.4004E-01  0.1211E+01
     -1.709  0.5509E-01  0.1214E+01
     -1.648  0.9311E-01  0.1218E+01
     -1.587  0.8820E-01  0.1224E+01
     -1.525  0.7702E-01  0.1229E+01
     -1.464  0.6038E-01  0.1233E+01
     -1.403  0.6988E-01  0.1237E+01
     -1.341  0.1312E+00  0.1242E+01
     -1.280  0.2996E+00  0.1256E+01
     -1.219  0.3569E+00  0.1276E+01
     -1.157  0.5793E+00  0.1306E+01
     -1.096  0.3936E+00  0.1333E+01
     -1.035  0.6402E+00  0.1363E+01
     -0.973  0.5273E+00  0.1394E+01
     -0.912  0.3076E+00  0.1416E+01
     -0.851  0.4691E+00  0.1437E+01
     -0.789  0.3395E+00  0.1457E+01
     -0.728  0.3401E+00  0.1476E+01
     -0.667  0.3536E+00  0.1498E+01
     -0.606  0.4013E+00  0.1519E+01
     -0.544  0.4518E+00  0.1544E+01
     -0.483  0.4460E+00  0.1571E+01
     -0.422  0.4835E+00  0.1601E+01
     -0.360  0.4963E+00  0.1630E+01
     -0.299  0.5148E+00  0.1662E+01
     -0.238  0.4510E+00  0.1692E+01
     -0.176  0.5383E+00  0.1718E+01
     -0.115  0.5760E+00  0.1752E+01
     -0.054  0.5887E+00  0.1788E+01
      0.008  0.6749E+00  0.1820E+01
      0.069  0.5128E+00  0.1854E+01
      0.130  0.5683E+00  0.1882E+01
      0.192  0.4297E+00  0.1915E+01
      0.253  0.4063E+00  0.1938E+01
      0.314  0.6670E+00  0.1974E+01
      0.376  0.4622E+00  0.2006E+01
      0.437  0.4740E+00  0.2036E+01
      0.498  0.7520E+00  0.2071E+01
      0.559  0.4535E+00  0.2103E+01
      0.621  0.5194E+00  0.2133E+01
      0.682  0.3957E+00  0.2163E+01
      0.743  0.5236E+00  0.2192E+01
      0.805  0.4330E+00  0.2216E+01
      0.866  0.5265E+00  0.2246E+01
      0.927  0.4212E+00  0.2274E+01
      0.989  0.4145E+00  0.2299E+01
      1.050  0.4783E+00  0.2327E+01
      1.111  0.3520E+00  0.2351E+01
      1.173  0.4975E+00  0.2377E+01
      1.234  0.4086E+00  0.2403E+01
      1.295  0.3554E+00  0.2426E+01
      1.357  0.3052E+00  0.2445E+01
      1.418  0.2383E+00  0.2461E+01
      1.479  0.2084E+00  0.2475E+01
      1.540  0.1952E+00  0.2487E+01
      1.602  0.1749E+00  0.2498E+01
      1.663  0.1419E+00  0.2507E+01
      1.724  0.1459E+00  0.2516E+01
      1.786  0.1602E+00  0.2527E+01
      1.847  0.7674E-01  0.2533E+01
      1.908  0.1134E+00  0.2538E+01
      1.970  0.1259E+00  0.2547E+01
      2.031  0.6862E-01  0.2553E+01
      2.092  0.4731E-01  0.2556E+01
      2.154  0.4140E-01  0.2559E+01
      2.215  0.8806E-02  0.2560E+01
      2.276  0.1270E-06  0.2560E+01
      2.338  0.6943E-05  0.2560E+01
      2.399  0.3454E-04  0.2560E+01
      2.460  0.8315E-04  0.2560E+01
      2.522  0.1528E-03  0.2560E+01
      2.583  0.2434E-03  0.2560E+01
      2.644  0.3551E-03  0.2560E+01
      2.705  0.4878E-03  0.2560E+01
      2.767  0.6415E-03  0.2560E+01
      2.828  0.8162E-03  0.2560E+01
      2.889  0.1012E-02  0.2560E+01
      2.951  0.1229E-02  0.2560E+01
      3.012  0.1466E-02  0.2560E+01
      3.073  0.1904E-02  0.2560E+01
      3.135  0.5103E-02  0.2561E+01
      3.196  0.1327E-01  0.2561E+01
      3.257  0.2076E-01  0.2562E+01
      3.319  0.2800E-01  0.2564E+01
      3.380  0.6318E-01  0.2567E+01
      3.441  0.6597E-01  0.2571E+01
      3.503  0.8562E-01  0.2575E+01
      3.564  0.6863E-01  0.2580E+01
      3.625  0.8392E-01  0.2585E+01
      3.686  0.1110E+00  0.2591E+01
      3.748  0.1507E+00  0.2598E+01
      3.809  0.1935E+00  0.2611E+01
      3.870  0.2716E+00  0.2623E+01
      3.932  0.2825E+00  0.2640E+01
      3.993  0.2706E+00  0.2658E+01
      4.054  0.2092E+00  0.2671E+01
      4.116  0.2199E+00  0.2684E+01
      4.177  0.3912E+00  0.2701E+01
      4.238  0.3977E+00  0.2725E+01
      4.300  0.3467E+00  0.2749E+01
      4.361  0.5380E+00  0.2777E+01
      4.422  0.5189E+00  0.2808E+01
      4.484  0.5671E+00  0.2843E+01
      4.545  0.6193E+00  0.2879E+01
      4.606  0.5645E+00  0.2915E+01
      4.667  0.6658E+00  0.2952E+01
      4.729  0.4902E+00  0.2984E+01
      4.790  0.5681E+00  0.3017E+01
      4.851  0.4970E+00  0.3048E+01
      4.913  0.3851E+00  0.3073E+01
      4.974  0.3709E+00  0.3095E+01
      5.035  0.3495E+00  0.3118E+01
      5.097  0.2838E+00  0.3137E+01
      5.158  0.3809E+00  0.3158E+01
      5.219  0.2191E+00  0.3175E+01
      5.281  0.3211E+00  0.3191E+01
      5.342  0.2841E+00  0.3209E+01
      5.403  0.2750E+00  0.3226E+01
      5.465  0.3808E+00  0.3245E+01
      5.526  0.2782E+00  0.3265E+01
      5.587  0.2070E+00  0.3279E+01
      5.649  0.2246E+00  0.3292E+01
      5.710  0.2397E+00  0.3305E+01
      5.771  0.2083E+00  0.3319E+01
      5.832  0.1647E+00  0.3330E+01
      5.894  0.1264E+00  0.3339E+01
      5.955  0.9499E-01  0.3346E+01
      6.016  0.5961E-01  0.3351E+01
      6.078  0.4170E-01  0.3354E+01
      6.139  0.2829E-01  0.3356E+01
      6.200  0.2126E-01  0.3357E+01
      6.262  0.1564E-01  0.3359E+01
      6.323  0.9423E-02  0.3359E+01
      6.384  0.5219E-02  0.3360E+01
      6.446  0.0000E+00  0.3360E+01
      6.507  0.0000E+00  0.3360E+01
      6.568  0.0000E+00  0.3360E+01
      6.630  0.0000E+00  0.3360E+01
      6.691  0.0000E+00  0.3360E+01
      6.752  0.0000E+00  0.3360E+01
      6.813  0.0000E+00  0.3360E+01
      6.875  0.0000E+00  0.3360E+01
      6.936  0.0000E+00  0.3360E+01
      6.997  0.0000E+00  0.3360E+01
      7.059  0.0000E+00  0.3360E+01
      7.120  0.0000E+00  0.3360E+01
      7.181  0.0000E+00  0.3360E+01
      7.243  0.0000E+00  0.3360E+01
      7.304  0.0000E+00  0.3360E+01
      7.365  0.0000E+00  0.3360E+01
