 running    8 mpi-ranks, on    1 nodes
 distrk:  each k-point on    8 cores,    1 groups
 distr:  one band on    1 cores,    8 groups
 vasp.6.4.3 19Mar24 (build Aug 29 2024 15:27:20) complex                        
  
 POSCAR found type information on POSCAR AsGa
 POSCAR found :  2 types and      64 ions
 scaLAPACK will be used
 -----------------------------------------------------------------------------
|                                                                             |
|           W    W    AA    RRRRR   N    N  II  N    N   GGGG   !!!           |
|           W    W   A  A   R    R  NN   N  II  NN   N  G    G  !!!           |
|           W    W  A    A  R    R  N N  N  II  N N  N  G       !!!           |
|           W WW W  AAAAAA  RRRRR   N  N N  II  N  N N  G  GGG   !            |
|           WW  WW  A    A  R   R   N   NN  II  N   NN  G    G                |
|           W    W  A    A  R    R  N    N  II  N    N   GGGG   !!!           |
|                                                                             |
|     For optimal performance we recommend to set                             |
|       NCORE = 2 up to number-of-cores-per-socket                            |
|     NCORE specifies how many cores store one orbital (NPAR=cpu/NCORE).      |
|     This setting can greatly improve the performance of VASP for DFT.       |
|     The default, NCORE=1 might be grossly inefficient on modern             |
|     multi-core architectures or massively parallel machines. Do your        |
|     own testing! More info at https://www.vasp.at/wiki/index.php/NCORE      |
|     Unfortunately you need to use the default for GW and RPA                |
|     calculations (for HF NCORE is supported but not extensively tested      |
|     yet).                                                                   |
|                                                                             |
 -----------------------------------------------------------------------------

 -----------------------------------------------------------------------------
|                                                                             |
|               ----> ADVICE to this user running VASP <----                  |
|                                                                             |
|     You have a (more or less) 'large supercell' and for larger cells it     |
|     might be more efficient to use real-space projection operators.         |
|     Therefore, try LREAL= Auto in the INCAR file.                           |
|     Mind: For very accurate calculation, you might also keep the            |
|     reciprocal projection scheme (i.e. LREAL=.FALSE.).                      |
|                                                                             |
 -----------------------------------------------------------------------------

 LDA part: xc-table for (Slater+PW92), standard interpolation
 POSCAR, INCAR and KPOINTS ok, starting setup
 FFT: planning ... GRIDC
 FFT: planning ... GRID_SOFT
 FFT: planning ... GRID
 WAVECAR not read
 entering main loop
       N       E                     dE             d eps       ncg     rms          rms(c)
DAV:   1     0.932915045488E+03    0.93292E+03   -0.80824E+04  6048   0.101E+03
DAV:   2    -0.167455516737E+03   -0.11004E+04   -0.10488E+04  7200   0.169E+02
DAV:   3    -0.267366611762E+03   -0.99911E+02   -0.98500E+02  7408   0.521E+01
DAV:   4    -0.269883259237E+03   -0.25166E+01   -0.24861E+01  7264   0.864E+00
DAV:   5    -0.269958541421E+03   -0.75282E-01   -0.75027E-01  7368   0.130E+00    0.199E+01
DAV:   6    -0.265802653508E+03    0.41559E+01   -0.65610E+00  7032   0.358E+00    0.117E+01
DAV:   7    -0.264999726426E+03    0.80293E+00   -0.42963E+00  7288   0.297E+00    0.245E+00
DAV:   8    -0.264957536659E+03    0.42190E-01   -0.51443E-01  7064   0.110E+00    0.614E-01
DAV:   9    -0.264969067604E+03   -0.11531E-01   -0.36814E-02  6904   0.398E-01    0.234E-01
DAV:  10    -0.264970254414E+03   -0.11868E-02   -0.10937E-03  7432   0.640E-02    0.103E-01
DAV:  11    -0.264971532052E+03   -0.12776E-02   -0.22301E-03  6568   0.867E-02    0.506E-02
DAV:  12    -0.264971537029E+03   -0.49773E-05   -0.38899E-05  7392   0.129E-02    0.219E-02
DAV:  13    -0.264971544858E+03   -0.78290E-05   -0.80710E-05  6968   0.133E-02    0.922E-03
DAV:  14    -0.264971544589E+03    0.26994E-06   -0.39499E-06  5784   0.384E-03
 Linear response reoptimize wavefunctions to high precision
DAV:   1    -0.264971545047E+03   -0.45809E-06   -0.18612E-06  7256   0.185E-03
DAV:   2    -0.264971545055E+03   -0.85129E-08   -0.81248E-08  6128   0.529E-04
DAV:   3    -0.264971545055E+03   -0.77307E-10   -0.15059E-09  3752   0.763E-05
 Linear response G [H, r] |phi>, progress :
  Direction:   1
       N       E                     dE             d eps       ncg     rms
RMM:   1    -0.127187696520E+04   -0.12719E+04    0.17393E+03 14219   0.837E+01
RMM:   2    -0.109794446062E+04    0.17393E+03   -0.20407E+02  9794   0.227E+01
RMM:   3    -0.110008130708E+04   -0.21368E+01   -0.99268E+00 10074   0.379E+00
RMM:   4    -0.110019229028E+04   -0.11098E+00   -0.29576E-01 10490   0.673E-01
RMM:   5    -0.110019614441E+04   -0.38541E-02   -0.16930E-02 10477   0.144E-01
RMM:   6    -0.110019642449E+04   -0.28008E-03   -0.24789E-03 10978   0.370E-02
RMM:   7    -0.110019642713E+04   -0.26344E-05   -0.14238E-03 11332   0.168E-02
RMM:   8    -0.110019643645E+04   -0.93280E-05   -0.14636E-03 12034   0.133E-02
RMM:   9    -0.110019643858E+04   -0.21266E-05   -0.13153E-03 12146   0.128E-02
RMM:  10    -0.110019644084E+04   -0.22642E-05   -0.15167E-03 12298   0.128E-02
RMM:  11    -0.110019644321E+04   -0.23641E-05   -0.14134E-03 12542   0.128E-02
 Linear response G [H, r] |phi>, progress :
  Direction:   2
       N       E                     dE             d eps       ncg     rms
RMM:   1    -0.125210929405E+04   -0.12521E+04    0.18843E+03 14318   0.838E+01
RMM:   2    -0.116540289221E+04    0.86706E+02   -0.20128E+02  9769   0.227E+01
RMM:   3    -0.116777243194E+04   -0.23695E+01   -0.97803E+00 10064   0.377E+00
RMM:   4    -0.116789731395E+04   -0.12488E+00   -0.40683E-01 10495   0.661E-01
RMM:   5    -0.116789396756E+04    0.33464E-02   -0.63475E-02 10454   0.143E-01
RMM:   6    -0.116789059746E+04    0.33701E-02   -0.10497E-02 10984   0.378E-02
RMM:   7    -0.116788986550E+04    0.73196E-03   -0.17785E-03 11479   0.177E-02
RMM:   8    -0.116789011893E+04   -0.25342E-03   -0.40591E-03 12128   0.142E-02
RMM:   9    -0.116789001218E+04    0.10675E-03   -0.31506E-03 12212   0.137E-02
RMM:  10    -0.116788994839E+04    0.63788E-04   -0.27394E-03 12400   0.137E-02
RMM:  11    -0.116788993642E+04    0.11968E-04   -0.25062E-03 12654   0.136E-02
 Linear response G [H, r] |phi>, progress :
  Direction:   3
       N       E                     dE             d eps       ncg     rms
RMM:   1    -0.136858058034E+04   -0.13686E+04    0.15563E+03 14633   0.859E+01
RMM:   2    -0.117042386954E+04    0.19816E+03   -0.23319E+02  9770   0.241E+01
RMM:   3    -0.117293437864E+04   -0.25105E+01   -0.11232E+01 10081   0.401E+00
RMM:   4    -0.117307307074E+04   -0.13869E+00   -0.42420E-01 10512   0.697E-01
RMM:   5    -0.117306932086E+04    0.37499E-02   -0.65822E-02 10483   0.150E-01
RMM:   6    -0.117306592615E+04    0.33947E-02   -0.12178E-02 10956   0.393E-02
RMM:   7    -0.117306497349E+04    0.95266E-03   -0.14688E-03 11463   0.185E-02
RMM:   8    -0.117306533023E+04   -0.35674E-03   -0.40823E-03 12137   0.150E-02
RMM:   9    -0.117306517471E+04    0.15552E-03   -0.30244E-03 12230   0.145E-02
RMM:  10    -0.117306516078E+04    0.13934E-04   -0.34850E-03 12399   0.144E-02
RMM:  11    -0.117306522272E+04   -0.61949E-04   -0.35887E-03 12630   0.144E-02
 Linear response to external field, progress :
  Direction:   1
       N       E                     dE             d eps       ncg     rms          rms(c)
RMM:   1    -0.100854588971E+03   -0.10085E+03   -0.73482E+02 15498   0.676E+00
RMM:   2    -0.192763043160E+03   -0.91908E+02    0.16143E+01 14731   0.151E+00    0.118E+01
RMM:   3    -0.191893276247E+03    0.86977E+00   -0.13887E+00 14624   0.176E+00    0.686E+00
RMM:   4    -0.184039320973E+03    0.78540E+01   -0.19580E+00 14215   0.230E+00    0.820E-01
RMM:   5    -0.183257458976E+03    0.78186E+00   -0.83372E-02 14957   0.485E-01    0.148E-01
RMM:   6    -0.183208955987E+03    0.48503E-01   -0.37888E-03 15382   0.968E-02    0.832E-02
RMM:   7    -0.183135310068E+03    0.73646E-01   -0.69104E-04 14886   0.694E-02    0.248E-02
RMM:   8    -0.183119123318E+03    0.16187E-01    0.54066E-04 15187   0.129E-02    0.720E-03
RMM:   9    -0.183124762442E+03   -0.56391E-02    0.58154E-05 15655   0.672E-03    0.144E-03
RMM:  10    -0.183124112427E+03    0.65002E-03   -0.44125E-06 16176   0.189E-03    0.491E-04
RMM:  11    -0.183124221212E+03   -0.10878E-03   -0.24225E-05 15456   0.156E-03    0.137E-04
RMM:  12    -0.183124249362E+03   -0.28150E-04   -0.14430E-05 13070   0.139E-03    0.320E-05
RMM:  13    -0.183124235562E+03    0.13800E-04   -0.20327E-05 13112   0.138E-03    0.653E-06
 change of polarisation eV/A/(eV/A) component  1 :   385.354    -8.419   -12.382
 dielectric tensor                  component  1 :    46.116    -0.986    -1.450
 Linear response to external field, progress :
  Direction:   2
       N       E                     dE             d eps       ncg     rms          rms(c)
RMM:   1    -0.362529698792E+04   -0.36253E+04   -0.29452E+04 22702   0.740E+00
RMM:   2    -0.145362404682E+06   -0.14174E+06   -0.14155E+04 21363   0.177E+00    0.611E+01
RMM:   3    -0.143733661126E+06    0.16287E+04   -0.17702E+02 20170   0.119E+01    0.331E+01
RMM:   4    -0.143456713642E+06    0.27695E+03   -0.23681E+02 22785   0.126E+01    0.396E+00
RMM:   5    -0.143444867651E+06    0.11846E+02   -0.47617E+01 21543   0.335E+00    0.133E+00
RMM:   6    -0.143443519202E+06    0.13484E+01   -0.15598E+01 22270   0.621E-01    0.634E-01
RMM:   7    -0.143444530610E+06   -0.10114E+01   -0.61275E+00 21924   0.287E-01    0.117E-01
RMM:   8    -0.143443770004E+06    0.76061E+00   -0.36195E+00 22882   0.751E-02    0.525E-02
RMM:   9    -0.143443325974E+06    0.44403E+00   -0.15773E+00 21381   0.342E-02    0.110E-02
RMM:  10    -0.143443329039E+06   -0.30641E-02   -0.76123E-01 22521   0.105E-02    0.362E-03
RMM:  11    -0.143443270936E+06    0.58103E-01   -0.29426E-01 24402   0.543E-03    0.846E-04
RMM:  12    -0.143443253343E+06    0.17593E-01   -0.14428E-01 25673   0.399E-03    0.302E-04
RMM:  13    -0.143443240731E+06    0.12612E-01   -0.27691E-02 26154   0.388E-03    0.148E-04
RMM:  14    -0.143443238606E+06    0.21253E-02   -0.78834E-03 26378   0.385E-03    0.372E-05
RMM:  15    -0.143443237812E+06    0.79367E-03   -0.30412E-03 26844   0.384E-03    0.542E-06
 change of polarisation eV/A/(eV/A) component  2 :    -4.089287190.478   -14.312
 dielectric tensor                  component  2 :    -0.479 33624.556    -1.676
 Linear response to external field, progress :
  Direction:   3
       N       E                     dE             d eps       ncg     rms          rms(c)
RMM:   1    -0.362529887207E+04   -0.36253E+04   -0.29452E+04 22700   0.740E+00
RMM:   2    -0.145362449000E+06   -0.14174E+06   -0.14155E+04 21380   0.177E+00    0.611E+01
RMM:   3    -0.143733701342E+06    0.16287E+04   -0.17701E+02 20164   0.119E+01    0.331E+01
RMM:   4    -0.143456753134E+06    0.27695E+03   -0.23686E+02 22787   0.126E+01    0.396E+00
RMM:   5    -0.143444878780E+06    0.11874E+02   -0.47545E+01 21548   0.335E+00    0.133E+00
RMM:   6    -0.143443461624E+06    0.14172E+01   -0.15151E+01 22270   0.621E-01    0.634E-01
RMM:   7    -0.143444304888E+06   -0.84326E+00   -0.57092E+00 21929   0.287E-01    0.117E-01
RMM:   8    -0.143443706928E+06    0.59796E+00   -0.31580E+00 22897   0.752E-02    0.525E-02
RMM:   9    -0.143443336090E+06    0.37084E+00   -0.14700E+00 21359   0.342E-02    0.110E-02
RMM:  10    -0.143443352764E+06   -0.16674E-01   -0.70411E-01 22519   0.105E-02    0.363E-03
RMM:  11    -0.143443303632E+06    0.49132E-01   -0.28081E-01 24435   0.544E-03    0.847E-04
RMM:  12    -0.143443283641E+06    0.19991E-01   -0.75723E-02 25675   0.401E-03    0.302E-04
RMM:  13    -0.143443276799E+06    0.68421E-02   -0.12661E-02 26172   0.390E-03    0.148E-04
RMM:  14    -0.143443277345E+06   -0.54582E-03   -0.11970E-02 26383   0.386E-03    0.375E-05
RMM:  15    -0.143443276829E+06    0.51579E-03   -0.86645E-03 26857   0.386E-03    0.926E-06
 change of polarisation eV/A/(eV/A) component  3 :   -10.521    -3.801287190.558
 dielectric tensor                  component  3 :    -1.232    -0.445 33624.565
 Born effective charges drift removed
   1 F= -.26497154E+03 E0= -.26497154E+03  d E =-.264972E+03
 curvature:   0.00 expect dE= 0.000E+00 dE for cont linesearch  0.000E+00
 trial: gam= 0.00000 g(F)=  0.442E-58 g(S)=  0.000E+00 ort = 0.000E+00 (trialstep = 0.100E+01)
 search vector abs. value=  0.100E-09
 reached required accuracy - stopping structural energy minimisation
 writing wavefunctions
 optical routines
 imaginary and real dielectric function
 recalculating local potential from charge density
 direction            1
 direction            2
 direction            3
