<?xml version="1.0" encoding="ISO-8859-1"?>
<modeling>
 <generator>
  <i name="program" type="string">vasp </i>
  <i name="version" type="string">6.4.3  </i>
  <i name="subversion" type="string">19Mar24 (build Aug 29 2024 15:27:20) complex                          parallel </i>
  <i name="platform" type="string">LinuxIFC </i>
  <i name="date" type="string">2025 03 24 </i>
  <i name="time" type="string">15:34:14 </i>
 </generator>
 <incar>
  <i type="string" name="SYSTEM">GaAs</i>
  <i type="string" name="PREC">Normal</i>
  <i type="int" name="IBRION">     2</i>
  <i type="int" name="NFREE">     2</i>
  <i type="int" name="NSW">   100</i>
  <i type="int" name="ISIF">     2</i>
  <i name="ENCUT">    400.00000000</i>
  <i name="POTIM">      0.10000000</i>
  <i type="int" name="ISMEAR">    -5</i>
  <i name="SIGMA">      0.10000000</i>
  <i type="logical" name="LOPTICS"> T  </i>
  <i type="logical" name="LEPSILON"> T  </i>
 </incar>
 <primitive_cell>
  <structure name="primitive_cell" >
   <crystal>
    <varray name="basis" >
     <v>       2.95374246       0.00000000       2.85936678 </v>
     <v>       2.95374246       0.00000000      -2.85936678 </v>
     <v>      -2.95374246       2.85936678       0.00000000 </v>
    </varray>
    <i name="volume">     48.29946908 </i>
    <varray name="rec_basis" >
     <v>       0.16927678       0.17486389       0.17486389 </v>
     <v>       0.16927678       0.17486389      -0.17486389 </v>
     <v>       0.00000000       0.34972778       0.00000000 </v>
    </varray>
   </crystal>
   <varray name="positions" >
    <v>       0.00000000       0.00000000       0.00000000 </v>
    <v>       0.75000000       0.25000000       0.50000000 </v>
   </varray>
  </structure>
  <varray name="primitive_index" >
   <v type="int" >        1 </v>
   <v type="int" >       33 </v>
  </varray>
 </primitive_cell>
 <kpoints>
  <generation param="Gamma">
   <v type="int" name="divisions">       5        5        5 </v>
   <v name="usershift">      0.00000000       0.00000000       0.00000000 </v>
   <v name="genvec1">      0.20000000       0.00000000       0.00000000 </v>
   <v name="genvec2">      0.00000000       0.20000000       0.00000000 </v>
   <v name="genvec3">      0.00000000       0.00000000       0.20000000 </v>
   <v name="shift">      0.00000000       0.00000000       0.00000000 </v>
  </generation>
  <varray name="kpointlist" >
   <v>       0.00000000       0.00000000       0.00000000 </v>
   <v>       0.20000000       0.00000000       0.00000000 </v>
   <v>       0.40000000       0.00000000       0.00000000 </v>
   <v>       0.00000000       0.20000000       0.00000000 </v>
   <v>       0.20000000       0.20000000       0.00000000 </v>
   <v>       0.40000000       0.20000000       0.00000000 </v>
   <v>       0.00000000       0.40000000       0.00000000 </v>
   <v>       0.20000000       0.40000000       0.00000000 </v>
   <v>       0.40000000       0.40000000       0.00000000 </v>
   <v>       0.00000000       0.20000000       0.20000000 </v>
   <v>       0.20000000       0.20000000       0.20000000 </v>
   <v>       0.40000000       0.20000000       0.20000000 </v>
   <v>       0.00000000       0.40000000       0.20000000 </v>
   <v>       0.20000000       0.40000000       0.20000000 </v>
   <v>       0.40000000       0.40000000       0.20000000 </v>
   <v>       0.00000000       0.40000000       0.40000000 </v>
   <v>       0.20000000       0.40000000       0.40000000 </v>
   <v>       0.40000000       0.40000000       0.40000000 </v>
  </varray>
  <varray name="weights" >
   <v>       0.00800000 </v>
   <v>       0.01600000 </v>
   <v>       0.01600000 </v>
   <v>       0.03200000 </v>
   <v>       0.06400000 </v>
   <v>       0.06400000 </v>
   <v>       0.03200000 </v>
   <v>       0.06400000 </v>
   <v>       0.06400000 </v>
   <v>       0.03200000 </v>
   <v>       0.06400000 </v>
   <v>       0.06400000 </v>
   <v>       0.06400000 </v>
   <v>       0.12800000 </v>
   <v>       0.12800000 </v>
   <v>       0.03200000 </v>
   <v>       0.06400000 </v>
   <v>       0.06400000 </v>
  </varray>
  <varray name="tetrahedronlist"  type="int" >
   <v type="int" >        4       11       12       14       15 </v>
   <v type="int" >        4       11       14       14       15 </v>
   <v type="int" >        8       14       14       15       17 </v>
   <v type="int" >        4       12       14       15       15 </v>
   <v type="int" >        8       14       15       15       18 </v>
   <v type="int" >        4       14       15       17       18 </v>
   <v type="int" >        2       12       12       15       15 </v>
   <v type="int" >        4       12       15       15       15 </v>
   <v type="int" >       12       15       15       15       18 </v>
   <v type="int" >       10       15       15       18       18 </v>
   <v type="int" >        4       10       11       13       14 </v>
   <v type="int" >        4       11       13       14       14 </v>
   <v type="int" >        8       13       14       14       17 </v>
   <v type="int" >        4       10       13       13       14 </v>
   <v type="int" >        8       13       13       14       16 </v>
   <v type="int" >        4       13       14       16       17 </v>
   <v type="int" >        4       14       15       15       17 </v>
   <v type="int" >        4       14       15       17       17 </v>
   <v type="int" >        4       15       15       17       18 </v>
   <v type="int" >        4       15       17       18       18 </v>
   <v type="int" >        4       15       17       17       18 </v>
   <v type="int" >        8       15       18       18       18 </v>
   <v type="int" >        4       14       14       15       18 </v>
   <v type="int" >        4       14       15       18       18 </v>
   <v type="int" >        4       14       14       17       18 </v>
   <v type="int" >        4       14       17       17       18 </v>
   <v type="int" >        4       14       17       18       18 </v>
   <v type="int" >        4       13       13       14       17 </v>
   <v type="int" >        4       13       14       17       17 </v>
   <v type="int" >        4       13       13       16       17 </v>
   <v type="int" >        4       13       16       16       17 </v>
   <v type="int" >        4       13       16       17       17 </v>
   <v type="int" >        4       13       14       14       16 </v>
   <v type="int" >        4       13       14       16       16 </v>
   <v type="int" >        4       14       14       16       17 </v>
   <v type="int" >        4       14       16       17       17 </v>
   <v type="int" >        4       14       16       16       17 </v>
   <v type="int" >        4       12       14       15       17 </v>
   <v type="int" >        4       11       12       14       17 </v>
   <v type="int" >        4       12       15       17       18 </v>
   <v type="int" >        4       12       15       15       18 </v>
   <v type="int" >        4       12       12       15       18 </v>
   <v type="int" >        4       12       15       18       18 </v>
   <v type="int" >        4       11       14       15       18 </v>
   <v type="int" >        4       11       12       15       18 </v>
   <v type="int" >        4       11       14       17       18 </v>
   <v type="int" >        4       10       13       14       17 </v>
   <v type="int" >        4       10       11       14       17 </v>
   <v type="int" >        4       10       13       16       17 </v>
   <v type="int" >        4       11       13       14       16 </v>
   <v type="int" >        4       10       11       13       16 </v>
   <v type="int" >        4       11       14       16       17 </v>
   <v type="int" >        4        6       11       12       14 </v>
   <v type="int" >        4        5        6       11       14 </v>
   <v type="int" >        4        5        6        8       14 </v>
   <v type="int" >        4        6       12       14       15 </v>
   <v type="int" >        4        6        9       14       15 </v>
   <v type="int" >        4        6        8        9       14 </v>
   <v type="int" >        4        6       12       12       15 </v>
   <v type="int" >        4        6        6       12       15 </v>
   <v type="int" >        4        6        6        9       15 </v>
   <v type="int" >        4        6       12       15       15 </v>
   <v type="int" >        4        6        9       15       15 </v>
   <v type="int" >        4        6        9        9       15 </v>
   <v type="int" >        4        5       11       12       15 </v>
   <v type="int" >        4        5        6       12       15 </v>
   <v type="int" >        4        5        6        9       15 </v>
   <v type="int" >        4        5       11       14       15 </v>
   <v type="int" >        4        5        8       14       15 </v>
   <v type="int" >        4        5        8        9       15 </v>
   <v type="int" >        4        4       10       11       14 </v>
   <v type="int" >        4        4        5       11       14 </v>
   <v type="int" >        4        4        5        8       14 </v>
   <v type="int" >        4        4       10       13       14 </v>
   <v type="int" >        4        4        7       13       14 </v>
   <v type="int" >        4        4        7        8       14 </v>
   <v type="int" >        4        5       10       11       13 </v>
   <v type="int" >        4        4        5       10       13 </v>
   <v type="int" >        4        4        5        7       13 </v>
   <v type="int" >        4        5       11       13       14 </v>
   <v type="int" >        4        5        8       13       14 </v>
   <v type="int" >        4        5        7        8       13 </v>
   <v type="int" >        4        5        6        8       12 </v>
   <v type="int" >        4        5        8       11       12 </v>
   <v type="int" >        4        8       11       12       14 </v>
   <v type="int" >        4        6        8        9       12 </v>
   <v type="int" >        4        8        9       12       15 </v>
   <v type="int" >        4        8       12       14       15 </v>
   <v type="int" >        4        6        6        9       12 </v>
   <v type="int" >        4        6        9       12       12 </v>
   <v type="int" >        4        9       12       12       15 </v>
   <v type="int" >        4        6        9        9       12 </v>
   <v type="int" >        4        9        9       12       15 </v>
   <v type="int" >        4        9       12       15       15 </v>
   <v type="int" >        4        5        6        9       11 </v>
   <v type="int" >        4        6        9       11       12 </v>
   <v type="int" >        4        9       11       12       15 </v>
   <v type="int" >        4        5        8        9       11 </v>
   <v type="int" >        4        8        9       11       14 </v>
   <v type="int" >        4        9       11       14       15 </v>
   <v type="int" >        4        4        5        8       10 </v>
   <v type="int" >        4        5        8       10       11 </v>
   <v type="int" >        4        8       10       11       14 </v>
   <v type="int" >        4        4        7        8       10 </v>
   <v type="int" >        4        7        8       10       13 </v>
   <v type="int" >        4        8       10       13       14 </v>
   <v type="int" >        4        4        5        7       11 </v>
   <v type="int" >        4        4        7       10       11 </v>
   <v type="int" >        4        7       10       11       13 </v>
   <v type="int" >        4        5        7        8       11 </v>
   <v type="int" >        4        7        8       11       14 </v>
   <v type="int" >        4        7       11       13       14 </v>
   <v type="int" >        4       17       17       18       18 </v>
   <v type="int" >        4       17       17       17       18 </v>
   <v type="int" >        4       17       18       18       18 </v>
   <v type="int" >        6       18       18       18       18 </v>
   <v type="int" >        4       16       16       17       17 </v>
   <v type="int" >        4       16       17       17       17 </v>
   <v type="int" >        4       16       16       16       17 </v>
   <v type="int" >        4        9       14       14       15 </v>
   <v type="int" >        4        8        9       14       14 </v>
   <v type="int" >        4        8        8        9       14 </v>
   <v type="int" >        4        9       14       15       15 </v>
   <v type="int" >        4        9        9       14       15 </v>
   <v type="int" >        4        8        9        9       14 </v>
   <v type="int" >        8        9       15       15       15 </v>
   <v type="int" >        8        9        9       15       15 </v>
   <v type="int" >        8        9        9        9       15 </v>
   <v type="int" >        4        8       14       15       15 </v>
   <v type="int" >        4        8        9       15       15 </v>
   <v type="int" >        4        8        9        9       15 </v>
   <v type="int" >        4        8       14       14       15 </v>
   <v type="int" >        4        8        8       14       15 </v>
   <v type="int" >        4        8        8        9       15 </v>
   <v type="int" >        4        7       13       14       14 </v>
   <v type="int" >        4        7        8       14       14 </v>
   <v type="int" >        4        7        8        8       14 </v>
   <v type="int" >        4        7       13       13       14 </v>
   <v type="int" >        4        7        7       13       14 </v>
   <v type="int" >        4        7        7        8       14 </v>
   <v type="int" >        4        8       13       13       14 </v>
   <v type="int" >        4        7        8       13       13 </v>
   <v type="int" >        4        7        7        8       13 </v>
   <v type="int" >        4        8       13       14       14 </v>
   <v type="int" >        4        8        8       13       14 </v>
   <v type="int" >        4        7        8        8       13 </v>
   <v type="int" >        4        5        6       11       12 </v>
   <v type="int" >        4        5        5        6       11 </v>
   <v type="int" >        4        2        5        5        6 </v>
   <v type="int" >        4        5        6        6       12 </v>
   <v type="int" >        4        3        5        6        6 </v>
   <v type="int" >        4        2        3        5        6 </v>
   <v type="int" >        2        6        6       12       12 </v>
   <v type="int" >        4        6        6        6       12 </v>
   <v type="int" >        4        3        6        6        6 </v>
   <v type="int" >        2        3        3        6        6 </v>
   <v type="int" >        4        4        5       10       11 </v>
   <v type="int" >        4        4        5        5       11 </v>
   <v type="int" >        4        2        4        5        5 </v>
   <v type="int" >        4        4        4        5       10 </v>
   <v type="int" >        4        1        4        4        5 </v>
   <v type="int" >        4        1        2        4        5 </v>
   <v type="int" >        4        2        5        6       12 </v>
   <v type="int" >        4        2        5       11       12 </v>
   <v type="int" >        4        2        3        6       12 </v>
   <v type="int" >        4        3        6        6       12 </v>
   <v type="int" >        4        3        6       12       12 </v>
   <v type="int" >        4        3        3        6       12 </v>
   <v type="int" >        4        3        5        6       11 </v>
   <v type="int" >        4        3        6       11       12 </v>
   <v type="int" >        4        2        3        5       11 </v>
   <v type="int" >        4        2        4        5       10 </v>
   <v type="int" >        4        2        5       10       11 </v>
   <v type="int" >        4        1        2        4       10 </v>
   <v type="int" >        4        1        4        5       11 </v>
   <v type="int" >        4        1        4       10       11 </v>
   <v type="int" >        4        1        2        5       11 </v>
  </varray>
  <i name="volumeweight">      0.00133333 </i>
 </kpoints>
 <parameters>
  <separator name="general" >
   <i type="string" name="SYSTEM">GaAs</i>
   <i type="logical" name="LCOMPAT"> F  </i>
  </separator>
  <separator name="electronic" >
   <i type="string" name="PREC">normal</i>
   <i name="ENMAX">    400.00000000</i>
   <i name="ENAUG">    462.75800000</i>
   <i name="EDIFF">      0.00000100</i>
   <i type="int" name="IALGO">    38</i>
   <i type="int" name="IWAVPR">    11</i>
   <i type="int" name="NBANDS">   168</i>
   <i type="int" name="NBANDSLOW">    -1</i>
   <i type="int" name="NBANDSHIGH">    -1</i>
   <i name="NELECT">    256.00000000</i>
   <i type="int" name="TURBO">     0</i>
   <i type="int" name="IRESTART">     0</i>
   <i type="int" name="NREBOOT">     0</i>
   <i type="int" name="NMIN">     0</i>
   <i name="EREF">      0.00000000</i>
   <separator name="electronic smearing" >
    <i type="int" name="ISMEAR">    -5</i>
    <i name="SIGMA">      0.10000000</i>
    <i name="KSPACING">      0.50000000</i>
    <i type="logical" name="KGAMMA"> T  </i>
    <i type="logical" name="KBLOWUP"> T  </i>
   </separator>
   <separator name="electronic projectors" >
    <i type="logical" name="LREAL"> F  </i>
    <v name="ROPT">      0.00000000      0.00000000</v>
    <i type="int" name="LMAXPAW">  -100</i>
    <i type="int" name="LMAXMIX">     2</i>
    <i type="logical" name="NLSPLINE"> F  </i>
   </separator>
   <separator name="electronic startup" >
    <i type="int" name="ISTART">     0</i>
    <i type="int" name="ICHARG">     2</i>
    <i type="int" name="INIWAV">     1</i>
   </separator>
   <separator name="electronic spin" >
    <i type="int" name="ISPIN">     1</i>
    <i type="logical" name="LNONCOLLINEAR"> F  </i>
    <v name="MAGMOM">      1.00000000      1.00000000      1.00000000      1.00000000      1.00000000      1.00000000      1.00000000      1.00000000      1.00000000      1.00000000      1.00000000      1.00000000      1.00000000      1.00000000      1.00000000      1.00000000      1.00000000      1.00000000      1.00000000      1.00000000
      1.00000000      1.00000000      1.00000000      1.00000000      1.00000000      1.00000000      1.00000000      1.00000000      1.00000000      1.00000000      1.00000000      1.00000000      1.00000000      1.00000000      1.00000000      1.00000000      1.00000000      1.00000000      1.00000000      1.00000000
      1.00000000      1.00000000      1.00000000      1.00000000      1.00000000      1.00000000      1.00000000      1.00000000      1.00000000      1.00000000      1.00000000      1.00000000      1.00000000      1.00000000      1.00000000      1.00000000      1.00000000      1.00000000      1.00000000      1.00000000
      1.00000000      1.00000000      1.00000000      1.00000000</v>
    <i name="NUPDOWN">     -1.00000000</i>
    <i type="logical" name="LSORBIT"> F  </i>
    <v name="SAXIS">      0.00000000      0.00000000      1.00000000</v>
    <i type="logical" name="LSPIRAL"> F  </i>
    <v name="QSPIRAL">      0.00000000      0.00000000      0.00000000</v>
    <i type="logical" name="LZEROZ"> F  </i>
   </separator>
   <separator name="electronic exchange-correlation" >
    <i type="logical" name="LASPH"> F  </i>
   </separator>
   <separator name="electronic convergence" >
    <i type="int" name="NELM">    60</i>
    <i type="int" name="NELMDL">    -5</i>
    <i type="int" name="NELMIN">     2</i>
    <i name="ENINI">    400.00000000</i>
    <separator name="electronic convergence detail" >
     <i type="logical" name="LDIAG"> T  </i>
     <i type="logical" name="LSUBROT"> F  </i>
     <i name="WEIMIN">      0.00100000</i>
     <i name="EBREAK">      0.00000000</i>
     <i name="DEPER">      0.30000000</i>
     <i type="int" name="NRMM">     4</i>
     <i name="TIME">      0.40000000</i>
    </separator>
   </separator>
   <separator name="electronic mixer" >
    <i name="AMIX">      0.40000000</i>
    <i name="BMIX">      1.00000000</i>
    <i name="AMIN">      0.10000000</i>
    <i name="AMIX_MAG">      1.60000000</i>
    <i name="BMIX_MAG">      1.00000000</i>
    <separator name="electronic mixer details" >
     <i type="int" name="IMIX">     4</i>
     <i type="logical" name="MIXFIRST"> F  </i>
     <i type="int" name="MAXMIX">   -45</i>
     <i name="WC">    100.00000000</i>
     <i type="int" name="INIMIX">     1</i>
     <i type="int" name="MIXPRE">     1</i>
     <i type="int" name="MREMOVE">     5</i>
    </separator>
   </separator>
   <separator name="electronic dipolcorrection" >
    <i type="logical" name="LDIPOL"> F  </i>
    <i type="logical" name="LMONO"> F  </i>
    <i type="int" name="IDIPOL">     0</i>
    <i name="EPSILON">      1.00000000</i>
    <v name="DIPOL">   -100.00000000   -100.00000000   -100.00000000</v>
    <i name="EFIELD">      0.00000000</i>
    <i type="logical" name="LVACPOTAV"> F  </i>
   </separator>
  </separator>
  <separator name="grids" >
   <i type="int" name="NGX">    60</i>
   <i type="int" name="NGY">    56</i>
   <i type="int" name="NGZ">    56</i>
   <i type="int" name="NGXF">   120</i>
   <i type="int" name="NGYF">   112</i>
   <i type="int" name="NGZF">   112</i>
   <i type="logical" name="ADDGRID"> F  </i>
  </separator>
  <separator name="ionic" >
   <i type="int" name="NSW">   100</i>
   <i type="int" name="IBRION">     2</i>
   <i type="int" name="MDALGO">     0</i>
   <i type="int" name="ISIF">     2</i>
   <i name="PSTRESS">      0.00000000</i>
   <i name="EDIFFG">      0.00100000</i>
   <i type="int" name="NFREE">     2</i>
   <i name="POTIM">      0.10000000</i>
   <i name="SMASS">     -3.00000000</i>
   <i name="SCALEE">      1.00000000</i>
  </separator>
  <separator name="ionic md" >
   <i name="TEBEG">      0.00010000</i>
   <i name="TEEND">      0.00010000</i>
   <i type="int" name="NBLOCK">     1</i>
   <i type="int" name="KBLOCK">   100</i>
   <i type="int" name="NPACO">   256</i>
   <i name="APACO">     10.00000000</i>
  </separator>
  <separator name="symmetry" >
   <i type="int" name="ISYM">     2</i>
   <i name="SYMPREC">      0.00001000</i>
  </separator>
  <separator name="dos" >
   <i type="int" name="LORBIT">     0</i>
   <v name="RWIGS">     -1.00000000     -1.00000000</v>
   <i type="int" name="NEDOS">   301</i>
   <i name="EMIN">     10.00000000</i>
   <i name="EMAX">    -10.00000000</i>
   <i name="EFERMI">      0.00000000</i>
  </separator>
  <separator name="writing" >
   <i type="int" name="NWRITE">     2</i>
   <i type="logical" name="LWAVE"> T  </i>
   <i type="logical" name="LDOWNSAMPLE"> F  </i>
   <i type="logical" name="LCHARG"> T  </i>
   <i type="logical" name="LPARD"> F  </i>
   <i type="logical" name="LVTOT"> F  </i>
   <i type="logical" name="LVHAR"> F  </i>
   <i type="logical" name="LELF"> F  </i>
   <i type="logical" name="LOPTICS"> T  </i>
   <v name="STM">      0.00000000      0.00000000      0.00000000      0.00000000      0.00000000      0.00000000      0.00000000</v>
  </separator>
  <separator name="performance" >
   <i type="int" name="NPAR">     8</i>
   <i type="int" name="NSIM">     4</i>
   <i type="int" name="NBLK">    -1</i>
   <i type="logical" name="LPLANE"> T  </i>
   <i type="logical" name="LSCALAPACK"> T  </i>
   <i type="logical" name="LSCAAWARE"> F  </i>
   <i type="logical" name="LSCALU"> F  </i>
   <i type="logical" name="LASYNC"> F  </i>
   <i type="logical" name="LORBITALREAL"> F  </i>
  </separator>
  <separator name="miscellaneous" >
   <i type="int" name="IDIOT">     3</i>
   <i type="int" name="PHON_NSTRUCT">    -1</i>
   <i type="logical" name="LMUSIC"> F  </i>
   <v name="POMASS">     74.92200000     69.72300000</v>
   <v name="DARWINR">      0.00000000      0.00000000</v>
   <v name="DARWINV">      1.00000000      1.00000000</v>
   <i type="logical" name="LCORR"> T  </i>
  </separator>
  <i type="logical" name="GGA_COMPAT"> T  </i>
  <i type="logical" name="LBERRY"> F  </i>
  <i type="int" name="ICORELEVEL">     0</i>
  <i type="logical" name="LDAU"> F  </i>
  <i type="int" name="I_CONSTRAINED_M">     0</i>
  <separator name="electronic exchange-correlation" >
   <i type="string" name="GGA    ">PE</i>
   <i type="string" name="XC_C">1</i>
   <i type="int" name="VOSKOWN">     0</i>
   <i type="logical" name="LHFCALC"> F  </i>
   <i type="string" name="PRECFOCK"></i>
   <i type="logical" name="LSYMGRAD"> F  </i>
   <i type="logical" name="LHFONE"> F  </i>
   <i type="logical" name="LRHFCALC"> F  </i>
   <i type="logical" name="LTHOMAS"> F  </i>
   <i type="logical" name="LMODELHF"> F  </i>
   <i type="logical" name="LFOCKACE"> F  </i>
   <i name="ENCUT4O">     -1.00000000</i>
   <i type="int" name="EXXOEP">     0</i>
   <i type="int" name="FOURORBIT">     0</i>
   <i name="AEXX">      0.00000000</i>
   <i name="HFALPHA">      0.00000000</i>
   <i name="MCALPHA">      0.00000000</i>
   <i name="ALDAX">      1.00000000</i>
   <i name="AGGAX">      1.00000000</i>
   <i name="AMGGAX">      1.00000000</i>
   <i name="ALDAC">      1.00000000</i>
   <i name="AGGAC">      1.00000000</i>
   <i name="AMGGAC">      1.00000000</i>
   <i type="int" name="NKREDX">     1</i>
   <i type="int" name="NKREDY">     1</i>
   <i type="int" name="NKREDZ">     1</i>
   <i type="logical" name="SHIFTRED"> F  </i>
   <i type="logical" name="ODDONLY"> F  </i>
   <i type="logical" name="EVENONLY"> F  </i>
   <i type="int" name="LMAXFOCK">     0</i>
   <i type="int" name="NMAXFOCKAE">     0</i>
   <i type="logical" name="LFOCKAEDFT"> F  </i>
   <i name="HFSCREEN">      0.00000000</i>
   <i name="HFSCREENC">      0.00000000</i>
   <i type="int" name="NBANDSGWLOW">     0</i>
  </separator>
  <separator name="vdW DFT" >
   <i type="logical" name="LUSE_VDW"> F  </i>
   <i type="int" name="IVDW_NL">    -1</i>
   <i type="logical" name="LSPIN_VDW"> F  </i>
   <i name="ZAB_VDW">     -0.84910000</i>
   <i name="GAMMA_VDW">      1.39626340</i>
   <i name="ALPHA_VDW">      0.00000000</i>
   <i name="PARAM1">      0.12340000</i>
   <i name="PARAM2">      1.00000000</i>
   <i name="BPARAM">      6.30000000</i>
   <i name="CPARAM">      0.00930000</i>
  </separator>
  <separator name="model GW" >
   <i type="int" name="MODEL_GW">     0</i>
   <i name="MODEL_EPS0">     14.48984073</i>
   <i name="MODEL_ALPHA">      1.00000000</i>
  </separator>
  <separator name="linear response parameters" >
   <i type="logical" name="LEPSILON"> T  </i>
   <i type="logical" name="LRPA"> F  </i>
   <i type="logical" name="LNABLA"> F  </i>
   <i type="logical" name="LVEL"> F  </i>
   <i name="CSHIFT">      0.10000000</i>
   <i name="OMEGAMAX">     -1.00000000</i>
   <i name="DEG_THRESHOLD">      0.00200000</i>
   <i name="RTIME">     -0.10000000</i>
   <i name="WPLASMAI">      0.00000000</i>
   <v name="DFIELD">      0.00000000      0.00000000      0.00000000</v>
   <v name="WPLASMA">      0.00000000      0.00000000      0.00000000      0.00000000      0.00000000      0.00000000      0.00000000      0.00000000      0.00000000</v>
  </separator>
  <separator name="orbital magnetization" >
   <i type="logical" name="NUCIND"> F  </i>
   <v name="MAGPOS">      0.00000000      0.00000000      0.00000000</v>
   <i type="logical" name="LNICSALL"> T  </i>
   <i type="logical" name="ORBITALMAG"> F  </i>
   <i type="logical" name="LMAGBLOCH"> F  </i>
   <i type="logical" name="LCHIMAG"> F  </i>
   <i type="logical" name="LGAUGE"> T  </i>
   <i type="int" name="MAGATOM">     0</i>
   <v name="MAGDIPOL">      0.00000000      0.00000000      0.00000000</v>
   <v name="AVECCONST">      0.00000000      0.00000000      0.00000000</v>
  </separator>
  <separator name="response functions" >
   <i type="logical" name="LALL_IN_ONE"> F  </i>
   <i type="int" name="IALL_IN_ONE">    -1</i>
   <i type="int" name="NBANDS_WAVE">    -1</i>
   <i type="logical" name="LFINITE_TEMPERATURE"> F  </i>
   <i type="logical" name="LADDER"> F  </i>
   <i type="logical" name="LRPAFORCE"> F  </i>
   <i type="logical" name="LFXC"> F  </i>
   <i type="logical" name="LHARTREE"> T  </i>
   <i type="int" name="IBSE">     0</i>
   <v type="int" name="KPOINT">    -1     0     0     0</v>
   <i type="logical" name="LTCTC"> F  </i>
   <i type="logical" name="LTCTE"> F  </i>
   <i type="logical" name="LTETE"> F  </i>
   <i type="logical" name="LTRIPLET"> F  </i>
   <i type="logical" name="LFXCEPS"> F  </i>
   <i type="logical" name="LFXHEG"> F  </i>
   <i type="int" name="NATURALO">     2</i>
   <i type="logical" name="LHOLEGF"> F  </i>
   <i type="logical" name="L2ORDER"> F  </i>
   <i type="logical" name="LDMP1"> F  </i>
   <i type="logical" name="LMP2LT"> F  </i>
   <i type="logical" name="LSMP2LT"> F  </i>
   <i type="logical" name="LGWLF"> F  </i>
   <i name="ENCUTGW">     -1.60000002</i>
   <i name="ENCUTGWSOFT">     -1.60000002</i>
   <i name="ENCUTLF">     -1.00000000</i>
   <i type="logical" name="ESF_SPLINES"> F  </i>
   <i name="ESF_CONV">      0.01000000</i>
   <i type="int" name="ESF_NINTER">    15</i>
   <i type="int" name="LMAXMP2">    -1</i>
   <i name="SCISSOR">      0.00000000</i>
   <i type="int" name="NOMEGA">     0</i>
   <i type="int" name="NOMEGAR">     0</i>
   <i type="int" name="NBANDSGW">    -1</i>
   <i type="int" name="NBANDSO">    -1</i>
   <i type="int" name="NBANDSV">    -1</i>
   <i type="int" name="NELMGW">     1</i>
   <i type="int" name="NELMHF">     1</i>
   <i type="int" name="DIM">     3</i>
   <i type="int" name="IESPILON">     4</i>
   <i type="int" name="ANTIRES">     0</i>
   <i name="OMEGAMAX">    -30.00000000</i>
   <i name="OMEGAMIN">    -30.00000000</i>
   <i name="OMEGATL">   -200.00000000</i>
   <i type="int" name="OMEGAGRID">     0</i>
   <i name="CSHIFT">     -0.10000000</i>
   <i type="logical" name="LSELFENERGY"> F  </i>
   <i type="logical" name="LSPECTRAL"> F  </i>
   <i type="logical" name="LSPECTRALGW"> F  </i>
   <i type="logical" name="LSINGLES"> F  </i>
   <i type="logical" name="LFERMIGW"> F  </i>
   <i type="logical" name="ODDONLYGW"> F  </i>
   <i type="logical" name="EVENONLYGW"> F  </i>
   <i type="int" name="NKREDLFX">     1</i>
   <i type="int" name="NKREDLFY">     1</i>
   <i type="int" name="NKREDLFZ">     1</i>
   <i type="int" name="MAXMEM">  2800</i>
   <i type="int" name="TELESCOPE">     0</i>
   <i type="int" name="NTAUPAR">    -1</i>
   <i type="int" name="NOMEGAPAR">    -1</i>
   <i name="DAMP_NEWTON">      0.80000001</i>
   <i name="LAMBDA">      1.00000000</i>
  </separator>
  <separator name="External order field" >
   <i name="OFIELD_KAPPA">      0.00000000</i>
   <v name="OFIELD_K">      0.00000000      0.00000000      0.00000000</v>
   <i name="OFIELD_Q6_NEAR">      0.00000000</i>
   <i name="OFIELD_Q6_FAR">      0.00000000</i>
   <i name="OFIELD_A">      0.00000000</i>
  </separator>
  <separator name="optional k-points parameters" >
   <i type="int" name="KPOINTS_OPT_MODE">     1</i>
   <i type="logical" name="LKPOINTS_OPT"> F  </i>
  </separator>
 </parameters>
 <atominfo>
  <atoms>      64 </atoms>
  <types>       2 </types>
  <array name="atoms" >
   <dimension dim="1">ion</dimension>
   <field type="string">element</field>
   <field type="int">atomtype</field>
   <set>
    <rc><c>As</c><c>   1</c></rc>
    <rc><c>As</c><c>   1</c></rc>
    <rc><c>As</c><c>   1</c></rc>
    <rc><c>As</c><c>   1</c></rc>
    <rc><c>As</c><c>   1</c></rc>
    <rc><c>As</c><c>   1</c></rc>
    <rc><c>As</c><c>   1</c></rc>
    <rc><c>As</c><c>   1</c></rc>
    <rc><c>As</c><c>   1</c></rc>
    <rc><c>As</c><c>   1</c></rc>
    <rc><c>As</c><c>   1</c></rc>
    <rc><c>As</c><c>   1</c></rc>
    <rc><c>As</c><c>   1</c></rc>
    <rc><c>As</c><c>   1</c></rc>
    <rc><c>As</c><c>   1</c></rc>
    <rc><c>As</c><c>   1</c></rc>
    <rc><c>As</c><c>   1</c></rc>
    <rc><c>As</c><c>   1</c></rc>
    <rc><c>As</c><c>   1</c></rc>
    <rc><c>As</c><c>   1</c></rc>
    <rc><c>As</c><c>   1</c></rc>
    <rc><c>As</c><c>   1</c></rc>
    <rc><c>As</c><c>   1</c></rc>
    <rc><c>As</c><c>   1</c></rc>
    <rc><c>As</c><c>   1</c></rc>
    <rc><c>As</c><c>   1</c></rc>
    <rc><c>As</c><c>   1</c></rc>
    <rc><c>As</c><c>   1</c></rc>
    <rc><c>As</c><c>   1</c></rc>
    <rc><c>As</c><c>   1</c></rc>
    <rc><c>As</c><c>   1</c></rc>
    <rc><c>As</c><c>   1</c></rc>
    <rc><c>Ga</c><c>   2</c></rc>
    <rc><c>Ga</c><c>   2</c></rc>
    <rc><c>Ga</c><c>   2</c></rc>
    <rc><c>Ga</c><c>   2</c></rc>
    <rc><c>Ga</c><c>   2</c></rc>
    <rc><c>Ga</c><c>   2</c></rc>
    <rc><c>Ga</c><c>   2</c></rc>
    <rc><c>Ga</c><c>   2</c></rc>
    <rc><c>Ga</c><c>   2</c></rc>
    <rc><c>Ga</c><c>   2</c></rc>
    <rc><c>Ga</c><c>   2</c></rc>
    <rc><c>Ga</c><c>   2</c></rc>
    <rc><c>Ga</c><c>   2</c></rc>
    <rc><c>Ga</c><c>   2</c></rc>
    <rc><c>Ga</c><c>   2</c></rc>
    <rc><c>Ga</c><c>   2</c></rc>
    <rc><c>Ga</c><c>   2</c></rc>
    <rc><c>Ga</c><c>   2</c></rc>
    <rc><c>Ga</c><c>   2</c></rc>
    <rc><c>Ga</c><c>   2</c></rc>
    <rc><c>Ga</c><c>   2</c></rc>
    <rc><c>Ga</c><c>   2</c></rc>
    <rc><c>Ga</c><c>   2</c></rc>
    <rc><c>Ga</c><c>   2</c></rc>
    <rc><c>Ga</c><c>   2</c></rc>
    <rc><c>Ga</c><c>   2</c></rc>
    <rc><c>Ga</c><c>   2</c></rc>
    <rc><c>Ga</c><c>   2</c></rc>
    <rc><c>Ga</c><c>   2</c></rc>
    <rc><c>Ga</c><c>   2</c></rc>
    <rc><c>Ga</c><c>   2</c></rc>
    <rc><c>Ga</c><c>   2</c></rc>
   </set>
  </array>
  <array name="atomtypes" >
   <dimension dim="1">type</dimension>
   <field type="int">atomspertype</field>
   <field type="string">element</field>
   <field>mass</field>
   <field>valence</field>
   <field type="string">pseudopotential</field>
   <set>
    <rc><c>  32</c><c>As</c><c>     74.92200000</c><c>      5.00000000</c><c>  PAW_PBE As 22Sep2009                  </c></rc>
    <rc><c>  32</c><c>Ga</c><c>     69.72300000</c><c>      3.00000000</c><c>  PAW_PBE Ga 08Apr2002                  </c></rc>
   </set>
  </array>
 </atominfo>
 <structure name="initialpos" >
  <crystal>
   <varray name="basis" >
    <v>      11.81496983       0.00000000       0.00000000 </v>
    <v>       0.00000000      11.43746713       0.00000000 </v>
    <v>       0.00000000       0.00000000      11.43746713 </v>
   </varray>
   <i name="volume">   1545.58301067 </i>
   <varray name="rec_basis" >
    <v>       0.08463839       0.00000000       0.00000000 </v>
    <v>       0.00000000       0.08743195       0.00000000 </v>
    <v>       0.00000000       0.00000000       0.08743195 </v>
   </varray>
  </crystal>
  <varray name="positions" >
   <v>       0.00000000       0.00000000       0.00000000 </v>
   <v>       0.00000000       0.00000000       0.50000000 </v>
   <v>       0.00000000       0.50000000       0.00000000 </v>
   <v>       0.00000000       0.50000000       0.50000000 </v>
   <v>       0.50000000       0.00000000       0.00000000 </v>
   <v>       0.50000000       0.00000000       0.50000000 </v>
   <v>       0.50000000       0.50000000       0.00000000 </v>
   <v>       0.50000000       0.50000000       0.50000000 </v>
   <v>       0.25000000       0.25000000       0.00000000 </v>
   <v>       0.25000000       0.25000000       0.50000000 </v>
   <v>       0.25000000       0.75000000       0.00000000 </v>
   <v>       0.25000000       0.75000000       0.50000000 </v>
   <v>       0.75000000       0.25000000       0.00000000 </v>
   <v>       0.75000000       0.25000000       0.50000000 </v>
   <v>       0.75000000       0.75000000       0.00000000 </v>
   <v>       0.75000000       0.75000000       0.50000000 </v>
   <v>       0.25000000       0.00000000       0.25000000 </v>
   <v>       0.25000000       0.00000000       0.75000000 </v>
   <v>       0.25000000       0.50000000       0.25000000 </v>
   <v>       0.25000000       0.50000000       0.75000000 </v>
   <v>       0.75000000       0.00000000       0.25000000 </v>
   <v>       0.75000000       0.00000000       0.75000000 </v>
   <v>       0.75000000       0.50000000       0.25000000 </v>
   <v>       0.75000000       0.50000000       0.75000000 </v>
   <v>       0.00000000       0.25000000       0.25000000 </v>
   <v>       0.00000000       0.25000000       0.75000000 </v>
   <v>       0.00000000       0.75000000       0.25000000 </v>
   <v>       0.00000000       0.75000000       0.75000000 </v>
   <v>       0.50000000       0.25000000       0.25000000 </v>
   <v>       0.50000000       0.25000000       0.75000000 </v>
   <v>       0.50000000       0.75000000       0.25000000 </v>
   <v>       0.50000000       0.75000000       0.75000000 </v>
   <v>       0.12500000       0.12500000       0.12500000 </v>
   <v>       0.12500000       0.12500000       0.62500000 </v>
   <v>       0.12500000       0.62500000       0.12500000 </v>
   <v>       0.12500000       0.62500000       0.62500000 </v>
   <v>       0.62500000       0.12500000       0.12500000 </v>
   <v>       0.62500000       0.12500000       0.62500000 </v>
   <v>       0.62500000       0.62500000       0.12500000 </v>
   <v>       0.62500000       0.62500000       0.62500000 </v>
   <v>       0.37500000       0.12500000       0.37500000 </v>
   <v>       0.37500000       0.12500000       0.87500000 </v>
   <v>       0.37500000       0.62500000       0.37500000 </v>
   <v>       0.37500000       0.62500000       0.87500000 </v>
   <v>       0.87500000       0.12500000       0.37500000 </v>
   <v>       0.87500000       0.12500000       0.87500000 </v>
   <v>       0.87500000       0.62500000       0.37500000 </v>
   <v>       0.87500000       0.62500000       0.87500000 </v>
   <v>       0.37500000       0.37500000       0.12500000 </v>
   <v>       0.37500000       0.37500000       0.62500000 </v>
   <v>       0.37500000       0.87500000       0.12500000 </v>
   <v>       0.37500000       0.87500000       0.62500000 </v>
   <v>       0.87500000       0.37500000       0.12500000 </v>
   <v>       0.87500000       0.37500000       0.62500000 </v>
   <v>       0.87500000       0.87500000       0.12500000 </v>
   <v>       0.87500000       0.87500000       0.62500000 </v>
   <v>       0.12500000       0.37500000       0.37500000 </v>
   <v>       0.12500000       0.37500000       0.87500000 </v>
   <v>       0.12500000       0.87500000       0.37500000 </v>
   <v>       0.12500000       0.87500000       0.87500000 </v>
   <v>       0.62500000       0.37500000       0.37500000 </v>
   <v>       0.62500000       0.37500000       0.87500000 </v>
   <v>       0.62500000       0.87500000       0.37500000 </v>
   <v>       0.62500000       0.87500000       0.87500000 </v>
  </varray>
 </structure>
 <calculation>
  <scstep>
   <time name="dav">   74.22   75.27</time>
   <time name="total">   74.36   75.42</time>
   <energy>
    <i name="alphaZ">    566.62537604 </i>
    <i name="ewald">  -7172.54278532 </i>
    <i name="hartreedc">   -607.27178851 </i>
    <i name="XCdc">   -997.02941813 </i>
    <i name="pawpsdc">   6692.16565901 </i>
    <i name="pawaedc">  -5247.93935635 </i>
    <i name="eentropy">      0.00000000 </i>
    <i name="bandstr">    369.17429527 </i>
    <i name="atom">   7329.73306348 </i>
    <i name="e_fr_energy">    932.91504549 </i>
    <i name="e_wo_entrp">    932.91504549 </i>
    <i name="e_0_energy">    932.91504549 </i>
   </energy>
  </scstep>
  <scstep>
   <time name="dav">   84.76   85.98</time>
   <time name="total">   84.77   85.99</time>
   <energy>
    <i name="e_fr_energy">   -167.45551674 </i>
    <i name="e_wo_entrp">   -167.45551674 </i>
    <i name="e_0_energy">   -167.45551674 </i>
   </energy>
  </scstep>
  <scstep>
   <time name="dav">   78.59   79.67</time>
   <time name="total">   78.60   79.68</time>
   <energy>
    <i name="e_fr_energy">   -267.36661176 </i>
    <i name="e_wo_entrp">   -267.36661176 </i>
    <i name="e_0_energy">   -267.36661176 </i>
   </energy>
  </scstep>
  <scstep>
   <time name="dav">   76.32   77.37</time>
   <time name="total">   76.33   77.38</time>
   <energy>
    <i name="e_fr_energy">   -269.88325924 </i>
    <i name="e_wo_entrp">   -269.88325924 </i>
    <i name="e_0_energy">   -269.88325924 </i>
   </energy>
  </scstep>
  <scstep>
   <time name="dav">   77.16   78.22</time>
   <time name="total">   77.91   78.98</time>
   <energy>
    <i name="e_fr_energy">   -269.95854142 </i>
    <i name="e_wo_entrp">   -269.95854142 </i>
    <i name="e_0_energy">   -269.95854142 </i>
   </energy>
  </scstep>
  <scstep>
   <time name="dav">   73.62   74.63</time>
   <time name="total">   74.50   75.52</time>
   <energy>
    <i name="e_fr_energy">   -265.80265351 </i>
    <i name="e_wo_entrp">   -265.80265351 </i>
    <i name="e_0_energy">   -265.80265351 </i>
   </energy>
  </scstep>
  <scstep>
   <time name="dav">   76.06   77.10</time>
   <time name="total">   76.96   78.01</time>
   <energy>
    <i name="e_fr_energy">   -264.99972643 </i>
    <i name="e_wo_entrp">   -264.99972643 </i>
    <i name="e_0_energy">   -264.99972643 </i>
   </energy>
  </scstep>
  <scstep>
   <time name="dav">   74.14   75.17</time>
   <time name="total">   75.02   76.06</time>
   <energy>
    <i name="e_fr_energy">   -264.95753666 </i>
    <i name="e_wo_entrp">   -264.95753666 </i>
    <i name="e_0_energy">   -264.95753666 </i>
   </energy>
  </scstep>
  <scstep>
   <time name="dav">   71.90   72.89</time>
   <time name="total">   72.78   73.78</time>
   <energy>
    <i name="e_fr_energy">   -264.96906760 </i>
    <i name="e_wo_entrp">   -264.96906760 </i>
    <i name="e_0_energy">   -264.96906760 </i>
   </energy>
  </scstep>
  <scstep>
   <time name="dav">   76.74   77.81</time>
   <time name="total">   77.62   78.70</time>
   <energy>
    <i name="e_fr_energy">   -264.97025441 </i>
    <i name="e_wo_entrp">   -264.97025441 </i>
    <i name="e_0_energy">   -264.97025441 </i>
   </energy>
  </scstep>
  <scstep>
   <time name="dav">   70.18   71.17</time>
   <time name="total">   71.06   72.05</time>
   <energy>
    <i name="e_fr_energy">   -264.97153205 </i>
    <i name="e_wo_entrp">   -264.97153205 </i>
    <i name="e_0_energy">   -264.97153205 </i>
   </energy>
  </scstep>
  <scstep>
   <time name="dav">   77.05   78.12</time>
   <time name="total">   77.93   79.01</time>
   <energy>
    <i name="e_fr_energy">   -264.97153703 </i>
    <i name="e_wo_entrp">   -264.97153703 </i>
    <i name="e_0_energy">   -264.97153703 </i>
   </energy>
  </scstep>
  <scstep>
   <time name="dav">   73.83   74.85</time>
   <time name="total">   74.71   75.74</time>
   <energy>
    <i name="e_fr_energy">   -264.97154486 </i>
    <i name="e_wo_entrp">   -264.97154486 </i>
    <i name="e_0_energy">   -264.97154486 </i>
   </energy>
  </scstep>
  <scstep>
   <time name="dav">   63.78   64.67</time>
   <time name="total">   63.91   64.81</time>
   <energy>
    <i name="alphaZ">    566.62537604 </i>
    <i name="ewald">  -7172.54278532 </i>
    <i name="hartreedc">   -714.92008012 </i>
    <i name="XCdc">   -975.24313324 </i>
    <i name="pawpsdc">  14469.82111169 </i>
    <i name="pawaedc"> -13037.05361393 </i>
    <i name="eentropy">      0.00000000 </i>
    <i name="bandstr">   -731.39148320 </i>
    <i name="atom">   7329.73306348 </i>
    <i name="e_fr_energy">   -264.97154459 </i>
    <i name="e_wo_entrp">   -264.97154459 </i>
    <i name="e_0_energy">   -264.97154459 </i>
   </energy>
  </scstep>
  <structure>
   <crystal>
    <varray name="basis" >
     <v>      11.81496983       0.00000000       0.00000000 </v>
     <v>       0.00000000      11.43746713       0.00000000 </v>
     <v>       0.00000000       0.00000000      11.43746713 </v>
    </varray>
    <i name="volume">   1545.58301067 </i>
    <varray name="rec_basis" >
     <v>       0.08463839       0.00000000       0.00000000 </v>
     <v>       0.00000000       0.08743195       0.00000000 </v>
     <v>       0.00000000       0.00000000       0.08743195 </v>
    </varray>
   </crystal>
   <varray name="positions" >
    <v>       0.00000000       0.00000000       0.00000000 </v>
    <v>       0.00000000       0.00000000       0.50000000 </v>
    <v>       0.00000000       0.50000000       0.00000000 </v>
    <v>       0.00000000       0.50000000       0.50000000 </v>
    <v>       0.50000000       0.00000000       0.00000000 </v>
    <v>       0.50000000       0.00000000       0.50000000 </v>
    <v>       0.50000000       0.50000000       0.00000000 </v>
    <v>       0.50000000       0.50000000       0.50000000 </v>
    <v>       0.25000000       0.25000000       0.00000000 </v>
    <v>       0.25000000       0.25000000       0.50000000 </v>
    <v>       0.25000000       0.75000000       0.00000000 </v>
    <v>       0.25000000       0.75000000       0.50000000 </v>
    <v>       0.75000000       0.25000000       0.00000000 </v>
    <v>       0.75000000       0.25000000       0.50000000 </v>
    <v>       0.75000000       0.75000000       0.00000000 </v>
    <v>       0.75000000       0.75000000       0.50000000 </v>
    <v>       0.25000000       0.00000000       0.25000000 </v>
    <v>       0.25000000       0.00000000       0.75000000 </v>
    <v>       0.25000000       0.50000000       0.25000000 </v>
    <v>       0.25000000       0.50000000       0.75000000 </v>
    <v>       0.75000000       0.00000000       0.25000000 </v>
    <v>       0.75000000       0.00000000       0.75000000 </v>
    <v>       0.75000000       0.50000000       0.25000000 </v>
    <v>       0.75000000       0.50000000       0.75000000 </v>
    <v>       0.00000000       0.25000000       0.25000000 </v>
    <v>       0.00000000       0.25000000       0.75000000 </v>
    <v>       0.00000000       0.75000000       0.25000000 </v>
    <v>       0.00000000       0.75000000       0.75000000 </v>
    <v>       0.50000000       0.25000000       0.25000000 </v>
    <v>       0.50000000       0.25000000       0.75000000 </v>
    <v>       0.50000000       0.75000000       0.25000000 </v>
    <v>       0.50000000       0.75000000       0.75000000 </v>
    <v>       0.12500000       0.12500000       0.12500000 </v>
    <v>       0.12500000       0.12500000       0.62500000 </v>
    <v>       0.12500000       0.62500000       0.12500000 </v>
    <v>       0.12500000       0.62500000       0.62500000 </v>
    <v>       0.62500000       0.12500000       0.12500000 </v>
    <v>       0.62500000       0.12500000       0.62500000 </v>
    <v>       0.62500000       0.62500000       0.12500000 </v>
    <v>       0.62500000       0.62500000       0.62500000 </v>
    <v>       0.37500000       0.12500000       0.37500000 </v>
    <v>       0.37500000       0.12500000       0.87500000 </v>
    <v>       0.37500000       0.62500000       0.37500000 </v>
    <v>       0.37500000       0.62500000       0.87500000 </v>
    <v>       0.87500000       0.12500000       0.37500000 </v>
    <v>       0.87500000       0.12500000       0.87500000 </v>
    <v>       0.87500000       0.62500000       0.37500000 </v>
    <v>       0.87500000       0.62500000       0.87500000 </v>
    <v>       0.37500000       0.37500000       0.12500000 </v>
    <v>       0.37500000       0.37500000       0.62500000 </v>
    <v>       0.37500000       0.87500000       0.12500000 </v>
    <v>       0.37500000       0.87500000       0.62500000 </v>
    <v>       0.87500000       0.37500000       0.12500000 </v>
    <v>       0.87500000       0.37500000       0.62500000 </v>
    <v>       0.87500000       0.87500000       0.12500000 </v>
    <v>       0.87500000       0.87500000       0.62500000 </v>
    <v>       0.12500000       0.37500000       0.37500000 </v>
    <v>       0.12500000       0.37500000       0.87500000 </v>
    <v>       0.12500000       0.87500000       0.37500000 </v>
    <v>       0.12500000       0.87500000       0.87500000 </v>
    <v>       0.62500000       0.37500000       0.37500000 </v>
    <v>       0.62500000       0.37500000       0.87500000 </v>
    <v>       0.62500000       0.87500000       0.37500000 </v>
    <v>       0.62500000       0.87500000       0.87500000 </v>
   </varray>
  </structure>
  <varray name="forces" >
   <v>       0.00000000       0.00000000      -0.00000000 </v>
   <v>       0.00000000       0.00000000      -0.00000000 </v>
   <v>       0.00000000      -0.00000000      -0.00000000 </v>
   <v>      -0.00000000       0.00000000      -0.00000000 </v>
   <v>      -0.00000000      -0.00000000      -0.00000000 </v>
   <v>       0.00000000      -0.00000000      -0.00000000 </v>
   <v>      -0.00000000      -0.00000000       0.00000000 </v>
   <v>       0.00000000       0.00000000      -0.00000000 </v>
   <v>       0.00000000      -0.00000000      -0.00000000 </v>
   <v>       0.00000000       0.00000000      -0.00000000 </v>
   <v>       0.00000000       0.00000000      -0.00000000 </v>
   <v>      -0.00000000      -0.00000000      -0.00000000 </v>
   <v>       0.00000000       0.00000000       0.00000000 </v>
   <v>      -0.00000000       0.00000000       0.00000000 </v>
   <v>      -0.00000000       0.00000000      -0.00000000 </v>
   <v>      -0.00000000       0.00000000       0.00000000 </v>
   <v>      -0.00000000       0.00000000      -0.00000000 </v>
   <v>      -0.00000000      -0.00000000      -0.00000000 </v>
   <v>      -0.00000000       0.00000000      -0.00000000 </v>
   <v>      -0.00000000       0.00000000       0.00000000 </v>
   <v>      -0.00000000       0.00000000       0.00000000 </v>
   <v>       0.00000000      -0.00000000      -0.00000000 </v>
   <v>       0.00000000      -0.00000000       0.00000000 </v>
   <v>      -0.00000000      -0.00000000       0.00000000 </v>
   <v>       0.00000000      -0.00000000      -0.00000000 </v>
   <v>      -0.00000000       0.00000000       0.00000000 </v>
   <v>      -0.00000000       0.00000000      -0.00000000 </v>
   <v>       0.00000000      -0.00000000      -0.00000000 </v>
   <v>       0.00000000      -0.00000000      -0.00000000 </v>
   <v>      -0.00000000       0.00000000       0.00000000 </v>
   <v>      -0.00000000      -0.00000000      -0.00000000 </v>
   <v>       0.00000000       0.00000000      -0.00000000 </v>
   <v>      -0.00000000       0.00000000       0.00000000 </v>
   <v>       0.00000000       0.00000000       0.00000000 </v>
   <v>      -0.00000000       0.00000000       0.00000000 </v>
   <v>      -0.00000000       0.00000000       0.00000000 </v>
   <v>      -0.00000000      -0.00000000       0.00000000 </v>
   <v>      -0.00000000      -0.00000000       0.00000000 </v>
   <v>      -0.00000000       0.00000000       0.00000000 </v>
   <v>       0.00000000      -0.00000000       0.00000000 </v>
   <v>      -0.00000000      -0.00000000       0.00000000 </v>
   <v>      -0.00000000      -0.00000000       0.00000000 </v>
   <v>       0.00000000      -0.00000000       0.00000000 </v>
   <v>      -0.00000000       0.00000000       0.00000000 </v>
   <v>      -0.00000000      -0.00000000       0.00000000 </v>
   <v>      -0.00000000      -0.00000000       0.00000000 </v>
   <v>      -0.00000000       0.00000000       0.00000000 </v>
   <v>       0.00000000       0.00000000       0.00000000 </v>
   <v>       0.00000000      -0.00000000       0.00000000 </v>
   <v>      -0.00000000       0.00000000       0.00000000 </v>
   <v>      -0.00000000      -0.00000000       0.00000000 </v>
   <v>      -0.00000000      -0.00000000       0.00000000 </v>
   <v>      -0.00000000      -0.00000000       0.00000000 </v>
   <v>      -0.00000000      -0.00000000       0.00000000 </v>
   <v>       0.00000000      -0.00000000       0.00000000 </v>
   <v>       0.00000000      -0.00000000       0.00000000 </v>
   <v>      -0.00000000       0.00000000       0.00000000 </v>
   <v>      -0.00000000      -0.00000000       0.00000000 </v>
   <v>       0.00000000      -0.00000000       0.00000000 </v>
   <v>       0.00000000      -0.00000000       0.00000000 </v>
   <v>       0.00000000      -0.00000000       0.00000000 </v>
   <v>       0.00000000       0.00000000       0.00000000 </v>
   <v>      -0.00000000      -0.00000000       0.00000000 </v>
   <v>      -0.00000000      -0.00000000       0.00000000 </v>
  </varray>
  <varray name="stress" >
   <v>     -18.77254461       0.00000000       0.00000000 </v>
   <v>       0.00000000       0.49984963       0.00000000 </v>
   <v>       0.00000000       0.00000000       0.49984963 </v>
  </varray>
  <scstep>
   <time name="total">  106.10  107.38</time>
   <energy>
    <i name="e_fr_energy">  -1271.87696520 </i>
    <i name="e_wo_entrp">  -1271.87696520 </i>
    <i name="e_0_energy">  -1271.87696520 </i>
   </energy>
  </scstep>
  <scstep>
   <time name="total">   79.28   80.25</time>
   <energy>
    <i name="e_fr_energy">  -1097.94446062 </i>
    <i name="e_wo_entrp">  -1097.94446062 </i>
    <i name="e_0_energy">  -1097.94446062 </i>
   </energy>
  </scstep>
  <scstep>
   <time name="total">   81.63   82.62</time>
   <energy>
    <i name="e_fr_energy">  -1100.08130708 </i>
    <i name="e_wo_entrp">  -1100.08130708 </i>
    <i name="e_0_energy">  -1100.08130708 </i>
   </energy>
  </scstep>
  <scstep>
   <time name="total">   50.64   51.28</time>
   <energy>
    <i name="e_fr_energy">  -1100.19229028 </i>
    <i name="e_wo_entrp">  -1100.19229028 </i>
    <i name="e_0_energy">  -1100.19229028 </i>
   </energy>
  </scstep>
  <scstep>
   <time name="total">   50.90   51.56</time>
   <energy>
    <i name="e_fr_energy">  -1100.19614441 </i>
    <i name="e_wo_entrp">  -1100.19614441 </i>
    <i name="e_0_energy">  -1100.19614441 </i>
   </energy>
  </scstep>
  <scstep>
   <time name="total">   53.21   53.89</time>
   <energy>
    <i name="e_fr_energy">  -1100.19642449 </i>
    <i name="e_wo_entrp">  -1100.19642449 </i>
    <i name="e_0_energy">  -1100.19642449 </i>
   </energy>
  </scstep>
  <scstep>
   <time name="total">   55.06   55.76</time>
   <energy>
    <i name="e_fr_energy">  -1100.19642713 </i>
    <i name="e_wo_entrp">  -1100.19642713 </i>
    <i name="e_0_energy">  -1100.19642713 </i>
   </energy>
  </scstep>
  <scstep>
   <time name="total">   58.76   59.49</time>
   <energy>
    <i name="e_fr_energy">  -1100.19643645 </i>
    <i name="e_wo_entrp">  -1100.19643645 </i>
    <i name="e_0_energy">  -1100.19643645 </i>
   </energy>
  </scstep>
  <scstep>
   <time name="total">   59.75   60.50</time>
   <energy>
    <i name="e_fr_energy">  -1100.19643858 </i>
    <i name="e_wo_entrp">  -1100.19643858 </i>
    <i name="e_0_energy">  -1100.19643858 </i>
   </energy>
  </scstep>
  <scstep>
   <time name="total">   60.64   61.40</time>
   <energy>
    <i name="e_fr_energy">  -1100.19644084 </i>
    <i name="e_wo_entrp">  -1100.19644084 </i>
    <i name="e_0_energy">  -1100.19644084 </i>
   </energy>
  </scstep>
  <scstep>
   <time name="total">   62.20   62.97</time>
   <energy>
    <i name="e_fr_energy">  -1100.19644321 </i>
    <i name="e_wo_entrp">  -1100.19644321 </i>
    <i name="e_0_energy">  -1100.19644321 </i>
   </energy>
  </scstep>
  <scstep>
   <time name="total">  106.57  107.85</time>
   <energy>
    <i name="e_fr_energy">  -1252.10929405 </i>
    <i name="e_wo_entrp">  -1252.10929405 </i>
    <i name="e_0_energy">  -1252.10929405 </i>
   </energy>
  </scstep>
  <scstep>
   <time name="total">   78.88   79.84</time>
   <energy>
    <i name="e_fr_energy">  -1165.40289221 </i>
    <i name="e_wo_entrp">  -1165.40289221 </i>
    <i name="e_0_energy">  -1165.40289221 </i>
   </energy>
  </scstep>
  <scstep>
   <time name="total">   81.57   82.56</time>
   <energy>
    <i name="e_fr_energy">  -1167.77243194 </i>
    <i name="e_wo_entrp">  -1167.77243194 </i>
    <i name="e_0_energy">  -1167.77243194 </i>
   </energy>
  </scstep>
  <scstep>
   <time name="total">   51.17   51.82</time>
   <energy>
    <i name="e_fr_energy">  -1167.89731395 </i>
    <i name="e_wo_entrp">  -1167.89731395 </i>
    <i name="e_0_energy">  -1167.89731395 </i>
   </energy>
  </scstep>
  <scstep>
   <time name="total">   50.76   51.40</time>
   <energy>
    <i name="e_fr_energy">  -1167.89396756 </i>
    <i name="e_wo_entrp">  -1167.89396756 </i>
    <i name="e_0_energy">  -1167.89396756 </i>
   </energy>
  </scstep>
  <scstep>
   <time name="total">   53.21   53.89</time>
   <energy>
    <i name="e_fr_energy">  -1167.89059746 </i>
    <i name="e_wo_entrp">  -1167.89059746 </i>
    <i name="e_0_energy">  -1167.89059746 </i>
   </energy>
  </scstep>
  <scstep>
   <time name="total">   56.22   56.94</time>
   <energy>
    <i name="e_fr_energy">  -1167.88986550 </i>
    <i name="e_wo_entrp">  -1167.88986550 </i>
    <i name="e_0_energy">  -1167.88986550 </i>
   </energy>
  </scstep>
  <scstep>
   <time name="total">   59.48   60.22</time>
   <energy>
    <i name="e_fr_energy">  -1167.89011893 </i>
    <i name="e_wo_entrp">  -1167.89011893 </i>
    <i name="e_0_energy">  -1167.89011893 </i>
   </energy>
  </scstep>
  <scstep>
   <time name="total">   60.27   61.01</time>
   <energy>
    <i name="e_fr_energy">  -1167.89001218 </i>
    <i name="e_wo_entrp">  -1167.89001218 </i>
    <i name="e_0_energy">  -1167.89001218 </i>
   </energy>
  </scstep>
  <scstep>
   <time name="total">   61.30   62.07</time>
   <energy>
    <i name="e_fr_energy">  -1167.88994839 </i>
    <i name="e_wo_entrp">  -1167.88994839 </i>
    <i name="e_0_energy">  -1167.88994839 </i>
   </energy>
  </scstep>
  <scstep>
   <time name="total">   63.29   64.07</time>
   <energy>
    <i name="e_fr_energy">  -1167.88993642 </i>
    <i name="e_wo_entrp">  -1167.88993642 </i>
    <i name="e_0_energy">  -1167.88993642 </i>
   </energy>
  </scstep>
  <scstep>
   <time name="total">  109.19  110.50</time>
   <energy>
    <i name="e_fr_energy">  -1368.58058034 </i>
    <i name="e_wo_entrp">  -1368.58058034 </i>
    <i name="e_0_energy">  -1368.58058034 </i>
   </energy>
  </scstep>
  <scstep>
   <time name="total">   78.75   79.72</time>
   <energy>
    <i name="e_fr_energy">  -1170.42386954 </i>
    <i name="e_wo_entrp">  -1170.42386954 </i>
    <i name="e_0_energy">  -1170.42386954 </i>
   </energy>
  </scstep>
  <scstep>
   <time name="total">   81.10   82.08</time>
   <energy>
    <i name="e_fr_energy">  -1172.93437864 </i>
    <i name="e_wo_entrp">  -1172.93437864 </i>
    <i name="e_0_energy">  -1172.93437864 </i>
   </energy>
  </scstep>
  <scstep>
   <time name="total">   50.54   51.18</time>
   <energy>
    <i name="e_fr_energy">  -1173.07307074 </i>
    <i name="e_wo_entrp">  -1173.07307074 </i>
    <i name="e_0_energy">  -1173.07307074 </i>
   </energy>
  </scstep>
  <scstep>
   <time name="total">   50.97   51.61</time>
   <energy>
    <i name="e_fr_energy">  -1173.06932086 </i>
    <i name="e_wo_entrp">  -1173.06932086 </i>
    <i name="e_0_energy">  -1173.06932086 </i>
   </energy>
  </scstep>
  <scstep>
   <time name="total">   52.80   53.47</time>
   <energy>
    <i name="e_fr_energy">  -1173.06592615 </i>
    <i name="e_wo_entrp">  -1173.06592615 </i>
    <i name="e_0_energy">  -1173.06592615 </i>
   </energy>
  </scstep>
  <scstep>
   <time name="total">   55.94   56.64</time>
   <energy>
    <i name="e_fr_energy">  -1173.06497349 </i>
    <i name="e_wo_entrp">  -1173.06497349 </i>
    <i name="e_0_energy">  -1173.06497349 </i>
   </energy>
  </scstep>
  <scstep>
   <time name="total">   59.43   60.17</time>
   <energy>
    <i name="e_fr_energy">  -1173.06533023 </i>
    <i name="e_wo_entrp">  -1173.06533023 </i>
    <i name="e_0_energy">  -1173.06533023 </i>
   </energy>
  </scstep>
  <scstep>
   <time name="total">   60.08   60.82</time>
   <energy>
    <i name="e_fr_energy">  -1173.06517471 </i>
    <i name="e_wo_entrp">  -1173.06517471 </i>
    <i name="e_0_energy">  -1173.06517471 </i>
   </energy>
  </scstep>
  <scstep>
   <time name="total">   61.31   62.07</time>
   <energy>
    <i name="e_fr_energy">  -1173.06516078 </i>
    <i name="e_wo_entrp">  -1173.06516078 </i>
    <i name="e_0_energy">  -1173.06516078 </i>
   </energy>
  </scstep>
  <scstep>
   <time name="total">   62.45   63.22</time>
   <energy>
    <i name="e_fr_energy">  -1173.06522272 </i>
    <i name="e_wo_entrp">  -1173.06522272 </i>
    <i name="e_0_energy">  -1173.06522272 </i>
   </energy>
  </scstep>
  <kpoints>
   <generation param="Gamma">
    <v type="int" name="divisions">       5        5        5 </v>
    <v name="usershift">      0.00000000       0.00000000       0.00000000 </v>
    <v name="genvec1">      0.20000000       0.00000000       0.00000000 </v>
    <v name="genvec2">      0.00000000       0.20000000       0.00000000 </v>
    <v name="genvec3">      0.00000000       0.00000000       0.20000000 </v>
    <v name="shift">      0.00000000       0.00000000       0.00000000 </v>
   </generation>
   <varray name="kpointlist" >
    <v>       0.00000000       0.00000000       0.00000000 </v>
    <v>       0.20000000       0.00000000       0.00000000 </v>
    <v>       0.40000000       0.00000000       0.00000000 </v>
    <v>       0.00000000       0.20000000       0.00000000 </v>
    <v>       0.20000000       0.20000000       0.00000000 </v>
    <v>       0.40000000       0.20000000       0.00000000 </v>
    <v>       0.00000000       0.40000000       0.00000000 </v>
    <v>       0.20000000       0.40000000       0.00000000 </v>
    <v>       0.40000000       0.40000000       0.00000000 </v>
    <v>       0.00000000       0.20000000       0.20000000 </v>
    <v>       0.00000000      -0.20000000       0.20000000 </v>
    <v>       0.20000000       0.20000000       0.20000000 </v>
    <v>       0.20000000      -0.20000000       0.20000000 </v>
    <v>       0.40000000       0.20000000       0.20000000 </v>
    <v>       0.40000000      -0.20000000       0.20000000 </v>
    <v>       0.00000000       0.40000000       0.20000000 </v>
    <v>       0.00000000      -0.20000000       0.40000000 </v>
    <v>       0.20000000       0.40000000       0.20000000 </v>
    <v>       0.20000000      -0.20000000       0.40000000 </v>
    <v>       0.40000000       0.40000000       0.20000000 </v>
    <v>       0.40000000      -0.20000000       0.40000000 </v>
    <v>       0.00000000       0.40000000       0.40000000 </v>
    <v>       0.00000000      -0.40000000       0.40000000 </v>
    <v>       0.20000000       0.40000000       0.40000000 </v>
    <v>       0.20000000      -0.40000000       0.40000000 </v>
    <v>       0.40000000       0.40000000       0.40000000 </v>
    <v>       0.40000000      -0.40000000       0.40000000 </v>
   </varray>
   <varray name="weights" >
    <v>       0.00800000 </v>
    <v>       0.01600000 </v>
    <v>       0.01600000 </v>
    <v>       0.03200000 </v>
    <v>       0.06400000 </v>
    <v>       0.06400000 </v>
    <v>       0.03200000 </v>
    <v>       0.06400000 </v>
    <v>       0.06400000 </v>
    <v>       0.01600000 </v>
    <v>       0.01600000 </v>
    <v>       0.03200000 </v>
    <v>       0.03200000 </v>
    <v>       0.03200000 </v>
    <v>       0.03200000 </v>
    <v>       0.03200000 </v>
    <v>       0.03200000 </v>
    <v>       0.06400000 </v>
    <v>       0.06400000 </v>
    <v>       0.06400000 </v>
    <v>       0.06400000 </v>
    <v>       0.01600000 </v>
    <v>       0.01600000 </v>
    <v>       0.03200000 </v>
    <v>       0.03200000 </v>
    <v>       0.03200000 </v>
    <v>       0.03200000 </v>
   </varray>
   <varray name="tetrahedronlist"  type="int" >
    <v type="int" >        4       12       14       18       20 </v>
    <v type="int" >        4       12       18       18       20 </v>
    <v type="int" >        4       18       18       20       24 </v>
    <v type="int" >        4       14       18       20       20 </v>
    <v type="int" >        4       18       20       20       26 </v>
    <v type="int" >        4       18       20       24       26 </v>
    <v type="int" >        2       14       14       20       20 </v>
    <v type="int" >        4       14       20       20       20 </v>
    <v type="int" >        4       20       20       20       26 </v>
    <v type="int" >        2       20       20       26       26 </v>
    <v type="int" >        4       10       12       16       18 </v>
    <v type="int" >        4       12       16       18       18 </v>
    <v type="int" >        4       16       18       18       24 </v>
    <v type="int" >        4       10       16       16       18 </v>
    <v type="int" >        4       16       16       18       22 </v>
    <v type="int" >        4       16       18       22       24 </v>
    <v type="int" >        4       18       20       21       24 </v>
    <v type="int" >        4       18       19       21       24 </v>
    <v type="int" >        4       19       21       24       25 </v>
    <v type="int" >        4       20       21       24       26 </v>
    <v type="int" >        4       21       24       26       27 </v>
    <v type="int" >        4       21       24       25       27 </v>
    <v type="int" >        4       20       20       21       26 </v>
    <v type="int" >        4       20       21       21       26 </v>
    <v type="int" >        4       21       21       26       27 </v>
    <v type="int" >        4       20       21       26       26 </v>
    <v type="int" >        4       21       26       26       27 </v>
    <v type="int" >        4       21       26       27       27 </v>
    <v type="int" >        4       18       19       20       26 </v>
    <v type="int" >        4       19       20       21       26 </v>
    <v type="int" >        4       19       21       26       27 </v>
    <v type="int" >        4       18       19       24       26 </v>
    <v type="int" >        4       19       24       25       26 </v>
    <v type="int" >        4       19       25       26       27 </v>
    <v type="int" >        4       16       17       18       24 </v>
    <v type="int" >        4       17       18       19       24 </v>
    <v type="int" >        4       17       19       24       25 </v>
    <v type="int" >        4       16       17       22       24 </v>
    <v type="int" >        4       17       22       23       24 </v>
    <v type="int" >        4       17       23       24       25 </v>
    <v type="int" >        4       16       18       19       22 </v>
    <v type="int" >        4       16       17       19       22 </v>
    <v type="int" >        4       17       19       22       23 </v>
    <v type="int" >        4       18       19       22       24 </v>
    <v type="int" >        4       19       22       24       25 </v>
    <v type="int" >        4       19       22       23       25 </v>
    <v type="int" >        4       15       19       21       25 </v>
    <v type="int" >        4       13       15       19       25 </v>
    <v type="int" >        4       15       21       25       27 </v>
    <v type="int" >        4       15       21       21       27 </v>
    <v type="int" >        4       15       15       21       27 </v>
    <v type="int" >        4       15       21       27       27 </v>
    <v type="int" >        4       13       19       21       27 </v>
    <v type="int" >        4       13       15       21       27 </v>
    <v type="int" >        4       13       19       25       27 </v>
    <v type="int" >        4       11       17       19       25 </v>
    <v type="int" >        4       11       13       19       25 </v>
    <v type="int" >        4       11       17       23       25 </v>
    <v type="int" >        4       13       17       19       23 </v>
    <v type="int" >        4       11       13       17       23 </v>
    <v type="int" >        4       13       19       23       25 </v>
    <v type="int" >        4        6       13       15       19 </v>
    <v type="int" >        4        5        6       13       19 </v>
    <v type="int" >        4        5        6        8       19 </v>
    <v type="int" >        4        6       15       19       21 </v>
    <v type="int" >        4        6        9       19       21 </v>
    <v type="int" >        4        6        8        9       19 </v>
    <v type="int" >        4        6       15       15       21 </v>
    <v type="int" >        4        6        6       15       21 </v>
    <v type="int" >        4        6        6        9       21 </v>
    <v type="int" >        4        6       15       21       21 </v>
    <v type="int" >        4        6        9       21       21 </v>
    <v type="int" >        4        6        9        9       21 </v>
    <v type="int" >        4        5       13       15       21 </v>
    <v type="int" >        4        5        6       15       21 </v>
    <v type="int" >        4        5        6        9       21 </v>
    <v type="int" >        4        5       13       19       21 </v>
    <v type="int" >        4        5        8       19       21 </v>
    <v type="int" >        4        5        8        9       21 </v>
    <v type="int" >        4        4       11       13       19 </v>
    <v type="int" >        4        4        5       13       19 </v>
    <v type="int" >        4        4        5        8       19 </v>
    <v type="int" >        4        4       11       17       19 </v>
    <v type="int" >        4        4        7       17       19 </v>
    <v type="int" >        4        4        7        8       19 </v>
    <v type="int" >        4        5       11       13       17 </v>
    <v type="int" >        4        4        5       11       17 </v>
    <v type="int" >        4        4        5        7       17 </v>
    <v type="int" >        4        5       13       17       19 </v>
    <v type="int" >        4        5        8       17       19 </v>
    <v type="int" >        4        5        7        8       17 </v>
    <v type="int" >        4        5        6        8       14 </v>
    <v type="int" >        4        5        8       12       14 </v>
    <v type="int" >        4        8       12       14       18 </v>
    <v type="int" >        4        6        8        9       14 </v>
    <v type="int" >        4        8        9       14       20 </v>
    <v type="int" >        4        8       14       18       20 </v>
    <v type="int" >        4        6        6        9       14 </v>
    <v type="int" >        4        6        9       14       14 </v>
    <v type="int" >        4        9       14       14       20 </v>
    <v type="int" >        4        6        9        9       14 </v>
    <v type="int" >        4        9        9       14       20 </v>
    <v type="int" >        4        9       14       20       20 </v>
    <v type="int" >        4        5        6        9       12 </v>
    <v type="int" >        4        6        9       12       14 </v>
    <v type="int" >        4        9       12       14       20 </v>
    <v type="int" >        4        5        8        9       12 </v>
    <v type="int" >        4        8        9       12       18 </v>
    <v type="int" >        4        9       12       18       20 </v>
    <v type="int" >        4        4        5        8       10 </v>
    <v type="int" >        4        5        8       10       12 </v>
    <v type="int" >        4        8       10       12       18 </v>
    <v type="int" >        4        4        7        8       10 </v>
    <v type="int" >        4        7        8       10       16 </v>
    <v type="int" >        4        8       10       16       18 </v>
    <v type="int" >        4        4        5        7       12 </v>
    <v type="int" >        4        4        7       10       12 </v>
    <v type="int" >        4        7       10       12       16 </v>
    <v type="int" >        4        5        7        8       12 </v>
    <v type="int" >        4        7        8       12       18 </v>
    <v type="int" >        4        7       12       16       18 </v>
    <v type="int" >        4       24       25       26       27 </v>
    <v type="int" >        4       24       25       25       27 </v>
    <v type="int" >        4       25       26       27       27 </v>
    <v type="int" >        2       26       26       27       27 </v>
    <v type="int" >        4       26       27       27       27 </v>
    <v type="int" >        4       22       23       24       25 </v>
    <v type="int" >        4       23       24       25       25 </v>
    <v type="int" >        4       22       23       23       25 </v>
    <v type="int" >        4        9       18       19       21 </v>
    <v type="int" >        4        8        9       18       19 </v>
    <v type="int" >        4        8        8        9       18 </v>
    <v type="int" >        4        9       18       20       21 </v>
    <v type="int" >        4        9        9       18       20 </v>
    <v type="int" >        4        8        9        9       18 </v>
    <v type="int" >        4        9       20       21       21 </v>
    <v type="int" >        4        9        9       20       21 </v>
    <v type="int" >        8        9        9        9       20 </v>
    <v type="int" >        4        9       20       20       21 </v>
    <v type="int" >        4        9        9       20       20 </v>
    <v type="int" >        4        8       19       20       21 </v>
    <v type="int" >        4        8        9       20       21 </v>
    <v type="int" >        4        8        9        9       20 </v>
    <v type="int" >        4        8       18       19       20 </v>
    <v type="int" >        4        8        8       18       20 </v>
    <v type="int" >        4        8        8        9       20 </v>
    <v type="int" >        4        7       17       18       19 </v>
    <v type="int" >        4        7        8       18       19 </v>
    <v type="int" >        4        7        8        8       18 </v>
    <v type="int" >        4        7       16       17       18 </v>
    <v type="int" >        4        7        7       16       18 </v>
    <v type="int" >        4        7        7        8       18 </v>
    <v type="int" >        4        8       16       17       19 </v>
    <v type="int" >        4        7        8       16       17 </v>
    <v type="int" >        4        7        7        8       16 </v>
    <v type="int" >        4        8       16       18       19 </v>
    <v type="int" >        4        8        8       16       18 </v>
    <v type="int" >        4        7        8        8       16 </v>
    <v type="int" >        4        5        6       12       14 </v>
    <v type="int" >        4        5        5        6       12 </v>
    <v type="int" >        4        2        5        5        6 </v>
    <v type="int" >        4        5        6        6       14 </v>
    <v type="int" >        4        3        5        6        6 </v>
    <v type="int" >        4        2        3        5        6 </v>
    <v type="int" >        2        6        6       14       14 </v>
    <v type="int" >        4        6        6        6       14 </v>
    <v type="int" >        4        3        6        6        6 </v>
    <v type="int" >        2        3        3        6        6 </v>
    <v type="int" >        4        4        5       10       12 </v>
    <v type="int" >        4        4        5        5       12 </v>
    <v type="int" >        4        2        4        5        5 </v>
    <v type="int" >        4        4        4        5       10 </v>
    <v type="int" >        4        1        4        4        5 </v>
    <v type="int" >        4        1        2        4        5 </v>
    <v type="int" >        4        2        5        6       15 </v>
    <v type="int" >        4        2        5       13       15 </v>
    <v type="int" >        4        2        3        6       15 </v>
    <v type="int" >        4        3        6        6       15 </v>
    <v type="int" >        4        3        6       15       15 </v>
    <v type="int" >        4        3        3        6       15 </v>
    <v type="int" >        4        3        5        6       13 </v>
    <v type="int" >        4        3        6       13       15 </v>
    <v type="int" >        4        2        3        5       13 </v>
    <v type="int" >        4        2        4        5       11 </v>
    <v type="int" >        4        2        5       11       13 </v>
    <v type="int" >        4        1        2        4       11 </v>
    <v type="int" >        4        1        4        5       13 </v>
    <v type="int" >        4        1        4       11       13 </v>
    <v type="int" >        4        1        2        5       13 </v>
   </varray>
   <i name="volumeweight">      0.00133333 </i>
  </kpoints>
  <scstep>
   <time name="total">  116.64  118.19</time>
   <energy>
    <i name="e_fr_energy">   -100.85458897 </i>
    <i name="e_wo_entrp">   -100.85458897 </i>
    <i name="e_0_energy">   -100.85458897 </i>
   </energy>
  </scstep>
  <scstep>
   <time name="total">  107.69  109.10</time>
   <energy>
    <i name="e_fr_energy">   -192.76304316 </i>
    <i name="e_wo_entrp">   -192.76304316 </i>
    <i name="e_0_energy">   -192.76304316 </i>
   </energy>
  </scstep>
  <scstep>
   <time name="total">  107.68  109.08</time>
   <energy>
    <i name="e_fr_energy">   -191.89327625 </i>
    <i name="e_wo_entrp">   -191.89327625 </i>
    <i name="e_0_energy">   -191.89327625 </i>
   </energy>
  </scstep>
  <scstep>
   <time name="total">  106.53  107.92</time>
   <energy>
    <i name="e_fr_energy">   -184.03932097 </i>
    <i name="e_wo_entrp">   -184.03932097 </i>
    <i name="e_0_energy">   -184.03932097 </i>
   </energy>
  </scstep>
  <scstep>
   <time name="total">  109.06  110.50</time>
   <energy>
    <i name="e_fr_energy">   -183.25745898 </i>
    <i name="e_wo_entrp">   -183.25745898 </i>
    <i name="e_0_energy">   -183.25745898 </i>
   </energy>
  </scstep>
  <scstep>
   <time name="total">  110.47  111.91</time>
   <energy>
    <i name="e_fr_energy">   -183.20895599 </i>
    <i name="e_wo_entrp">   -183.20895599 </i>
    <i name="e_0_energy">   -183.20895599 </i>
   </energy>
  </scstep>
  <scstep>
   <time name="total">  108.83  110.25</time>
   <energy>
    <i name="e_fr_energy">   -183.13531007 </i>
    <i name="e_wo_entrp">   -183.13531007 </i>
    <i name="e_0_energy">   -183.13531007 </i>
   </energy>
  </scstep>
  <scstep>
   <time name="total">  109.28  110.72</time>
   <energy>
    <i name="e_fr_energy">   -183.11912332 </i>
    <i name="e_wo_entrp">   -183.11912332 </i>
    <i name="e_0_energy">   -183.11912332 </i>
   </energy>
  </scstep>
  <scstep>
   <time name="total">  111.81  113.29</time>
   <energy>
    <i name="e_fr_energy">   -183.12476244 </i>
    <i name="e_wo_entrp">   -183.12476244 </i>
    <i name="e_0_energy">   -183.12476244 </i>
   </energy>
  </scstep>
  <scstep>
   <time name="total">  114.32  115.83</time>
   <energy>
    <i name="e_fr_energy">   -183.12411243 </i>
    <i name="e_wo_entrp">   -183.12411243 </i>
    <i name="e_0_energy">   -183.12411243 </i>
   </energy>
  </scstep>
  <scstep>
   <time name="total">  116.19  117.71</time>
   <energy>
    <i name="e_fr_energy">   -183.12422121 </i>
    <i name="e_wo_entrp">   -183.12422121 </i>
    <i name="e_0_energy">   -183.12422121 </i>
   </energy>
  </scstep>
  <scstep>
   <time name="total">  105.81  107.22</time>
   <energy>
    <i name="e_fr_energy">   -183.12424936 </i>
    <i name="e_wo_entrp">   -183.12424936 </i>
    <i name="e_0_energy">   -183.12424936 </i>
   </energy>
  </scstep>
  <scstep>
   <time name="total">  108.62  110.06</time>
   <energy>
    <i name="e_fr_energy">   -183.12423556 </i>
    <i name="e_wo_entrp">   -183.12423556 </i>
    <i name="e_0_energy">   -183.12423556 </i>
   </energy>
  </scstep>
  <kpoints>
[...]
     <r>     7.2752     0.0000     0.0000     0.0000     0.0000     0.0000     0.0000 </r>
     <r>     7.2852     0.0000     0.0000     0.0000     0.0000     0.0000     0.0000 </r>
    </set>
   </array>
  </conductivity>
  <dos>
   <i name="efermi">      2.28008459 </i>
   <total>
    <array>
     <dimension dim="1">gridpoints</dimension>
     <dimension dim="2">spin</dimension>
     <field>energy</field>
     <field>total</field>
     <field>integrated</field>
     <set>
      <set comment="spin 1">
       <r>   -11.0289     0.0000     0.0000 </r>
       <r>   -10.9676     0.0000     0.0000 </r>
       <r>   -10.9062     0.0000     0.0000 </r>
       <r>   -10.8449     0.0000     0.0000 </r>
       <r>   -10.7836     0.0000     0.0000 </r>
       <r>   -10.7223     0.0000     0.0000 </r>
       <r>   -10.6610     0.0000     0.0000 </r>
       <r>   -10.5997     0.0000     0.0000 </r>
       <r>   -10.5384     0.0000     0.0000 </r>
       <r>   -10.4770     0.0000     0.0000 </r>
       <r>   -10.4157     0.0000     0.0000 </r>
       <r>   -10.3544     0.0000     0.0000 </r>
       <r>   -10.2931     0.0000     0.0000 </r>
       <r>   -10.2318     0.0000     0.0000 </r>
       <r>   -10.1705     0.0000     0.0000 </r>
       <r>   -10.1092     0.0000     0.0000 </r>
       <r>   -10.0478     0.0000     0.0000 </r>
       <r>    -9.9865     2.8538     0.0434 </r>
       <r>    -9.9252     4.7444     0.2845 </r>
       <r>    -9.8639    11.4487     0.7331 </r>
       <r>    -9.8026     8.2102     1.2716 </r>
       <r>    -9.7413     6.5299     1.7440 </r>
       <r>    -9.6800    11.4650     2.2183 </r>
       <r>    -9.6186    11.4035     2.9049 </r>
       <r>    -9.5573    15.3410     3.7642 </r>
       <r>    -9.4960    12.0114     4.4995 </r>
       <r>    -9.4347    22.0189     5.4006 </r>
       <r>    -9.3734    12.0772     6.4788 </r>
       <r>    -9.3121    14.9053     7.2553 </r>
       <r>    -9.2508    15.2149     8.1860 </r>
       <r>    -9.1894    27.3995     9.3812 </r>
       <r>    -9.1281    29.6377    11.0805 </r>
       <r>    -9.0668    15.7392    12.5631 </r>
       <r>    -9.0055    21.6575    13.3138 </r>
       <r>    -8.9442    25.4694    15.0243 </r>
       <r>    -8.8829    16.0069    16.2233 </r>
       <r>    -8.8216    42.6489    17.9697 </r>
       <r>    -8.7602    32.2309    20.1926 </r>
       <r>    -8.6989    31.8482    22.0062 </r>
       <r>    -8.6376    48.7615    24.1502 </r>
       <r>    -8.5763    54.2153    26.5495 </r>
       <r>    -8.5150    59.4961    29.9283 </r>
       <r>    -8.4537    52.9011    33.4970 </r>
       <r>    -8.3924    61.9204    36.9075 </r>
       <r>    -8.3311    58.7724    40.1202 </r>
       <r>    -8.2697    48.8006    42.4742 </r>
       <r>    -8.2084    49.0096    45.6158 </r>
       <r>    -8.1471    91.4769    49.2318 </r>
       <r>    -8.0858    55.2821    52.5503 </r>
       <r>    -8.0245    64.8809    56.0050 </r>
       <r>    -7.9632    77.8156    60.2515 </r>
       <r>    -7.9019    35.9001    63.4528 </r>
       <r>    -7.8405     2.6095    64.0000 </r>
       <r>    -7.7792     0.0000    64.0000 </r>
       <r>    -7.7179     0.0000    64.0000 </r>
       <r>    -7.6566     0.0000    64.0000 </r>
       <r>    -7.5953     0.0000    64.0000 </r>
       <r>    -7.5340     0.0000    64.0000 </r>
       <r>    -7.4727     0.0000    64.0000 </r>
       <r>    -7.4113     0.0000    64.0000 </r>
       <r>    -7.3500     0.0000    64.0000 </r>
       <r>    -7.2887     0.0000    64.0000 </r>
       <r>    -7.2274     0.0000    64.0000 </r>
       <r>    -7.1661     0.0000    64.0000 </r>
       <r>    -7.1048     0.0000    64.0000 </r>
       <r>    -7.0435     0.0000    64.0000 </r>
       <r>    -6.9821     0.0000    64.0000 </r>
       <r>    -6.9208     0.0000    64.0000 </r>
       <r>    -6.8595     0.0000    64.0000 </r>
       <r>    -6.7982     0.0000    64.0000 </r>
       <r>    -6.7369     0.0000    64.0000 </r>
       <r>    -6.6756     0.0000    64.0000 </r>
       <r>    -6.6143     0.0000    64.0000 </r>
       <r>    -6.5529     0.0000    64.0000 </r>
       <r>    -6.4916     0.0000    64.0000 </r>
       <r>    -6.4303     0.0000    64.0000 </r>
       <r>    -6.3690     0.0000    64.0000 </r>
       <r>    -6.3077     0.0000    64.0000 </r>
       <r>    -6.2464     0.0000    64.0000 </r>
       <r>    -6.1851     0.0000    64.0000 </r>
       <r>    -6.1238     0.0000    64.0000 </r>
       <r>    -6.0624     0.0000    64.0000 </r>
       <r>    -6.0011     0.0000    64.0000 </r>
       <r>    -5.9398     0.0000    64.0000 </r>
       <r>    -5.8785     0.0000    64.0000 </r>
       <r>    -5.8172     0.0000    64.0000 </r>
       <r>    -5.7559     0.0000    64.0000 </r>
       <r>    -5.6946     0.0000    64.0000 </r>
       <r>    -5.6332     0.0000    64.0000 </r>
       <r>    -5.5719     0.0000    64.0000 </r>
       <r>    -5.5106     0.0000    64.0000 </r>
       <r>    -5.4493     0.0000    64.0000 </r>
       <r>    -5.3880     0.0000    64.0000 </r>
       <r>    -5.3267     0.0000    64.0000 </r>
       <r>    -5.2654     0.0000    64.0000 </r>
       <r>    -5.2040     0.0000    64.0000 </r>
       <r>    -5.1427     0.0000    64.0000 </r>
       <r>    -5.0814     0.0000    64.0000 </r>
       <r>    -5.0201     0.0000    64.0000 </r>
       <r>    -4.9588     0.0000    64.0000 </r>
       <r>    -4.8975     0.0000    64.0000 </r>
       <r>    -4.8362     0.0000    64.0000 </r>
       <r>    -4.7748     0.0000    64.0000 </r>
       <r>    -4.7135     0.0000    64.0000 </r>
       <r>    -4.6522     0.0000    64.0000 </r>
       <r>    -4.5909     0.0000    64.0000 </r>
       <r>    -4.5296     0.0000    64.0000 </r>
       <r>    -4.4683     0.0000    64.0000 </r>
       <r>    -4.4070     0.0000    64.0000 </r>
       <r>    -4.3456     1.6198    64.0307 </r>
       <r>    -4.2843     5.3835    64.2447 </r>
       <r>    -4.2230    10.0768    64.6726 </r>
       <r>    -4.1617    23.5742    65.6752 </r>
       <r>    -4.1004    38.4305    67.4302 </r>
       <r>    -4.0391    72.8205    70.9562 </r>
       <r>    -3.9778   105.7881    75.5187 </r>
       <r>    -3.9165   218.4351    82.1067 </r>
       <r>    -3.8551    73.0312    87.1348 </r>
       <r>    -3.7938   112.9562    90.5427 </r>
       <r>    -3.7325    39.7510    93.4891 </r>
       <r>    -3.6712    19.4013    95.1835 </r>
       <r>    -3.6099    29.5699    96.5074 </r>
       <r>    -3.5486    44.0507    99.1219 </r>
       <r>    -3.4873    22.8140   100.8762 </r>
       <r>    -3.4259    17.8345   102.0989 </r>
       <r>    -3.3646    18.6551   103.1274 </r>
       <r>    -3.3033    53.2852   104.9857 </r>
       <r>    -3.2420    18.9336   106.8843 </r>
       <r>    -3.1807    12.4277   107.7174 </r>
       <r>    -3.1194    10.8144   108.4992 </r>
       <r>    -3.0581     9.5489   109.0305 </r>
       <r>    -2.9967    12.6874   109.7457 </r>
       <r>    -2.9354    20.3587   110.6083 </r>
       <r>    -2.8741    14.9748   111.6479 </r>
       <r>    -2.8128    13.2696   112.4790 </r>
       <r>    -2.7515    13.2154   113.2908 </r>
       <r>    -2.6902    13.2740   114.1048 </r>
       <r>    -2.6289    11.3860   114.8786 </r>
       <r>    -2.5675     9.5262   115.5352 </r>
       <r>    -2.5062     6.0828   115.9974 </r>
       <r>    -2.4449     7.2043   116.4005 </r>
       <r>    -2.3836     7.9596   116.8562 </r>
       <r>    -2.3223    10.2025   117.3985 </r>
       <r>    -2.2610    11.7752   118.0928 </r>
       <r>    -2.1997     9.2653   118.7507 </r>
       <r>    -2.1383     7.5246   119.2461 </r>
       <r>    -2.0770     7.7280   119.7460 </r>
       <r>    -2.0157     4.8369   120.0958 </r>
       <r>    -1.9544     4.3291   120.3627 </r>
       <r>    -1.8931     4.0004   120.6178 </r>
       <r>    -1.8318     3.8752   120.8577 </r>
       <r>    -1.7705     4.0039   121.0980 </r>
       <r>    -1.7092     5.5088   121.3754 </r>
       <r>    -1.6478     9.3106   121.8221 </r>
       <r>    -1.5865     8.8196   122.4176 </r>
       <r>    -1.5252     7.7023   122.9301 </r>
       <r>    -1.4639     6.0383   123.3305 </r>
       <r>    -1.4026     6.9878   123.7024 </r>
       <r>    -1.3413    13.1240   124.2486 </r>
       <r>    -1.2800    29.9619   125.6418 </r>
       <r>    -1.2186    35.6946   127.5594 </r>
       <r>    -1.1573    57.9343   130.6434 </r>
       <r>    -1.0960    39.3609   133.2515 </r>
       <r>    -1.0347    64.0204   136.2839 </r>
       <r>    -0.9734    52.7279   139.3614 </r>
       <r>    -0.9121    30.7563   141.6133 </r>
       <r>    -0.8508    46.9122   143.7330 </r>
       <r>    -0.7894    33.9526   145.7438 </r>
       <r>    -0.7281    34.0132   147.6092 </r>
       <r>    -0.6668    35.3572   149.8371 </r>
       <r>    -0.6055    40.1295   151.9021 </r>
       <r>    -0.5442    45.1790   154.4370 </r>
       <r>    -0.4829    44.6021   157.0998 </r>
       <r>    -0.4216    48.3471   160.0914 </r>
       <r>    -0.3602    49.6275   162.9779 </r>
       <r>    -0.2989    51.4768   166.2063 </r>
       <r>    -0.2376    45.0980   169.1518 </r>
       <r>    -0.1763    53.8349   171.8398 </r>
       <r>    -0.1150    57.6020   175.2312 </r>
       <r>    -0.0537    58.8733   178.8214 </r>
       <r>     0.0076    67.4880   181.9858 </r>
       <r>     0.0690    51.2797   185.3919 </r>
       <r>     0.1303    56.8257   188.2262 </r>
       <r>     0.1916    42.9749   191.5168 </r>
       <r>     0.2529    40.6272   193.7948 </r>
       <r>     0.3142    66.7009   197.4258 </r>
       <r>     0.3755    46.2194   200.6452 </r>
       <r>     0.4368    47.4002   203.6111 </r>
       <r>     0.4981    75.2002   207.1201 </r>
       <r>     0.5595    45.3520   210.3002 </r>
       <r>     0.6208    51.9390   213.3098 </r>
       <r>     0.6821    39.5701   216.3007 </r>
       <r>     0.7434    52.3563   219.1731 </r>
       <r>     0.8047    43.3006   221.5905 </r>
       <r>     0.8660    52.6476   224.5702 </r>
       <r>     0.9273    42.1229   227.3906 </r>
       <r>     0.9887    41.4481   229.9387 </r>
       <r>     1.0500    47.8305   232.6745 </r>
       <r>     1.1113    35.1985   235.0959 </r>
       <r>     1.1726    49.7513   237.7301 </r>
       <r>     1.2339    40.8608   240.3088 </r>
       <r>     1.2952    35.5363   242.5571 </r>
       <r>     1.3565    30.5163   244.5093 </r>
       <r>     1.4179    23.8331   246.1010 </r>
       <r>     1.4792    20.8367   247.4834 </r>
       <r>     1.5405    19.5195   248.7270 </r>
       <r>     1.6018    17.4852   249.7776 </r>
       <r>     1.6631    14.1891   250.7295 </r>
       <r>     1.7244    14.5866   251.5995 </r>
       <r>     1.7857    16.0229   252.7005 </r>
       <r>     1.8471     7.6741   253.2796 </r>
       <r>     1.9084    11.3392   253.8497 </r>
       <r>     1.9697    12.5937   254.6505 </r>
       <r>     2.0310     6.8624   255.2662 </r>
       <r>     2.0923     4.7305   255.6170 </r>
       <r>     2.1536     4.1399   255.8512 </r>
       <r>     2.2149     0.8806   255.9822 </r>
       <r>     2.2763     0.0000   256.0000 </r>
       <r>     2.3376     0.0007   256.0000 </r>
       <r>     2.3989     0.0035   256.0001 </r>
       <r>     2.4602     0.0083   256.0005 </r>
       <r>     2.5215     0.0153   256.0012 </r>
       <r>     2.5828     0.0243   256.0024 </r>
       <r>     2.6441     0.0355   256.0042 </r>
       <r>     2.7054     0.0488   256.0068 </r>
       <r>     2.7668     0.0641   256.0102 </r>
       <r>     2.8281     0.0816   256.0147 </r>
       <r>     2.8894     0.1012   256.0203 </r>
       <r>     2.9507     0.1229   256.0272 </r>
       <r>     3.0120     0.1466   256.0354 </r>
       <r>     3.0733     0.1904   256.0453 </r>
       <r>     3.1346     0.5103   256.0640 </r>
       <r>     3.1960     1.3269   256.1207 </r>
       <r>     3.2573     2.0762   256.2254 </r>
       <r>     3.3186     2.8002   256.3741 </r>
       <r>     3.3799     6.3179   256.7010 </r>
       <r>     3.4412     6.5973   257.0513 </r>
       <r>     3.5025     8.5622   257.5314 </r>
       <r>     3.5638     6.8627   257.9878 </r>
       <r>     3.6252     8.3920   258.4637 </r>
       <r>     3.6865    11.0996   259.0607 </r>
       <r>     3.7478    15.0686   259.7813 </r>
       <r>     3.8091    19.3524   261.0797 </r>
       <r>     3.8704    27.1571   262.3374 </r>
       <r>     3.9317    28.2526   264.0201 </r>
       <r>     3.9930    27.0628   265.8108 </r>
       <r>     4.0544    20.9228   267.1403 </r>
       <r>     4.1157    21.9936   268.4167 </r>
       <r>     4.1770    39.1194   270.0982 </r>
       <r>     4.2383    39.7660   272.4575 </r>
       <r>     4.2996    34.6662   274.8525 </r>
       <r>     4.3609    53.8034   277.7361 </r>
       <r>     4.4222    51.8858   280.8044 </r>
       <r>     4.4836    56.7127   284.2948 </r>
       <r>     4.5449    61.9299   287.9348 </r>
       <r>     4.6062    56.4482   291.5189 </r>
       <r>     4.6675    66.5794   295.1852 </r>
       <r>     4.7288    49.0210   298.4458 </r>
       <r>     4.7901    56.8145   301.7145 </r>
       <r>     4.8514    49.7029   304.8067 </r>
       <r>     4.9128    38.5077   307.3061 </r>
       <r>     4.9741    37.0950   309.5432 </r>
       <r>     5.0354    34.9530   311.8356 </r>
       <r>     5.0967    28.3801   313.6877 </r>
       <r>     5.1580    38.0915   315.7603 </r>
       <r>     5.2193    21.9137   317.5053 </r>
       <r>     5.2806    32.1115   319.1055 </r>
       <r>     5.3419    28.4129   320.9348 </r>
       <r>     5.4033    27.5011   322.6327 </r>
       <r>     5.4646    38.0813   324.5214 </r>
       <r>     5.5259    27.8151   326.5098 </r>
       <r>     5.5872    20.7035   327.8736 </r>
       <r>     5.6485    22.4630   329.1518 </r>
       <r>     5.7098    23.9653   330.5221 </r>
       <r>     5.7711    20.8323   331.8610 </r>
       <r>     5.8325    16.4728   333.0345 </r>
       <r>     5.8938    12.6353   333.9205 </r>
       <r>     5.9551     9.4987   334.6168 </r>
       <r>     6.0164     5.9614   335.0701 </r>
       <r>     6.0777     4.1701   335.3954 </r>
       <r>     6.1390     2.8288   335.5934 </r>
       <r>     6.2003     2.1260   335.7447 </r>
       <r>     6.2617     1.5638   335.8658 </r>
       <r>     6.3230     0.9423   335.9440 </r>
       <r>     6.3843     0.5219   336.0000 </r>
       <r>     6.4456     0.0000   336.0000 </r>
       <r>     6.5069     0.0000   336.0000 </r>
       <r>     6.5682     0.0000   336.0000 </r>
       <r>     6.6295     0.0000   336.0000 </r>
       <r>     6.6909     0.0000   336.0000 </r>
       <r>     6.7522     0.0000   336.0000 </r>
       <r>     6.8135     0.0000   336.0000 </r>
       <r>     6.8748     0.0000   336.0000 </r>
       <r>     6.9361     0.0000   336.0000 </r>
       <r>     6.9974     0.0000   336.0000 </r>
       <r>     7.0587     0.0000   336.0000 </r>
       <r>     7.1201     0.0000   336.0000 </r>
       <r>     7.1814     0.0000   336.0000 </r>
       <r>     7.2427     0.0000   336.0000 </r>
       <r>     7.3040     0.0000   336.0000 </r>
       <r>     7.3653     0.0000   336.0000 </r>
      </set>
     </set>
    </array>
   </total>
  </dos>
 </calculation>
 <structure name="finalpos" >
  <crystal>
   <varray name="basis" >
    <v>      11.81496983       0.00000000       0.00000000 </v>
    <v>       0.00000000      11.43746713       0.00000000 </v>
    <v>       0.00000000       0.00000000      11.43746713 </v>
   </varray>
   <i name="volume">   1545.58301067 </i>
   <varray name="rec_basis" >
    <v>       0.08463839       0.00000000       0.00000000 </v>
    <v>       0.00000000       0.08743195       0.00000000 </v>
    <v>       0.00000000       0.00000000       0.08743195 </v>
   </varray>
  </crystal>
  <varray name="positions" >
   <v>       0.00000000       0.00000000       0.00000000 </v>
   <v>       0.00000000       0.00000000       0.50000000 </v>
   <v>       0.00000000       0.50000000       0.00000000 </v>
   <v>       0.00000000       0.50000000       0.50000000 </v>
   <v>       0.50000000       0.00000000       0.00000000 </v>
   <v>       0.50000000       0.00000000       0.50000000 </v>
   <v>       0.50000000       0.50000000       0.00000000 </v>
   <v>       0.50000000       0.50000000       0.50000000 </v>
   <v>       0.25000000       0.25000000       0.00000000 </v>
   <v>       0.25000000       0.25000000       0.50000000 </v>
   <v>       0.25000000       0.75000000       0.00000000 </v>
   <v>       0.25000000       0.75000000       0.50000000 </v>
   <v>       0.75000000       0.25000000       0.00000000 </v>
   <v>       0.75000000       0.25000000       0.50000000 </v>
   <v>       0.75000000       0.75000000       0.00000000 </v>
   <v>       0.75000000       0.75000000       0.50000000 </v>
   <v>       0.25000000       0.00000000       0.25000000 </v>
   <v>       0.25000000       0.00000000       0.75000000 </v>
   <v>       0.25000000       0.50000000       0.25000000 </v>
   <v>       0.25000000       0.50000000       0.75000000 </v>
   <v>       0.75000000       0.00000000       0.25000000 </v>
   <v>       0.75000000       0.00000000       0.75000000 </v>
   <v>       0.75000000       0.50000000       0.25000000 </v>
   <v>       0.75000000       0.50000000       0.75000000 </v>
   <v>       0.00000000       0.25000000       0.25000000 </v>
   <v>       0.00000000       0.25000000       0.75000000 </v>
   <v>       0.00000000       0.75000000       0.25000000 </v>
   <v>       0.00000000       0.75000000       0.75000000 </v>
   <v>       0.50000000       0.25000000       0.25000000 </v>
   <v>       0.50000000       0.25000000       0.75000000 </v>
   <v>       0.50000000       0.75000000       0.25000000 </v>
   <v>       0.50000000       0.75000000       0.75000000 </v>
   <v>       0.12500000       0.12500000       0.12500000 </v>
   <v>       0.12500000       0.12500000       0.62500000 </v>
   <v>       0.12500000       0.62500000       0.12500000 </v>
   <v>       0.12500000       0.62500000       0.62500000 </v>
   <v>       0.62500000       0.12500000       0.12500000 </v>
   <v>       0.62500000       0.12500000       0.62500000 </v>
   <v>       0.62500000       0.62500000       0.12500000 </v>
   <v>       0.62500000       0.62500000       0.62500000 </v>
   <v>       0.37500000       0.12500000       0.37500000 </v>
   <v>       0.37500000       0.12500000       0.87500000 </v>
   <v>       0.37500000       0.62500000       0.37500000 </v>
   <v>       0.37500000       0.62500000       0.87500000 </v>
   <v>       0.87500000       0.12500000       0.37500000 </v>
   <v>       0.87500000       0.12500000       0.87500000 </v>
   <v>       0.87500000       0.62500000       0.37500000 </v>
   <v>       0.87500000       0.62500000       0.87500000 </v>
   <v>       0.37500000       0.37500000       0.12500000 </v>
   <v>       0.37500000       0.37500000       0.62500000 </v>
   <v>       0.37500000       0.87500000       0.12500000 </v>
   <v>       0.37500000       0.87500000       0.62500000 </v>
   <v>       0.87500000       0.37500000       0.12500000 </v>
   <v>       0.87500000       0.37500000       0.62500000 </v>
   <v>       0.87500000       0.87500000       0.12500000 </v>
   <v>       0.87500000       0.87500000       0.62500000 </v>
   <v>       0.12500000       0.37500000       0.37500000 </v>
   <v>       0.12500000       0.37500000       0.87500000 </v>
   <v>       0.12500000       0.87500000       0.37500000 </v>
   <v>       0.12500000       0.87500000       0.87500000 </v>
   <v>       0.62500000       0.37500000       0.37500000 </v>
   <v>       0.62500000       0.37500000       0.87500000 </v>
   <v>       0.62500000       0.87500000       0.37500000 </v>
   <v>       0.62500000       0.87500000       0.87500000 </v>
  </varray>
 </structure>
</modeling>
