  64  64   0   0
  0.2410707E+02  0.1175734E-08  0.1145533E-08  0.1145533E-08  0.1000000E-15
  1.000000000000000E-004
  CAR 
 GaAs                                    
      7.40114535    -11.02763293  301      2.31019535      1.00000000
    -11.028  0.0000E+00  0.0000E+00
    -10.966  0.0000E+00  0.0000E+00
    -10.905  0.0000E+00  0.0000E+00
    -10.843  0.0000E+00  0.0000E+00
    -10.782  0.0000E+00  0.0000E+00
    -10.720  0.0000E+00  0.0000E+00
    -10.659  0.0000E+00  0.0000E+00
    -10.598  0.0000E+00  0.0000E+00
    -10.536  0.0000E+00  0.0000E+00
    -10.475  0.0000E+00  0.0000E+00
    -10.413  0.0000E+00  0.0000E+00
    -10.352  0.0000E+00  0.0000E+00
    -10.290  0.0000E+00  0.0000E+00
    -10.229  0.0000E+00  0.0000E+00
    -10.168  0.0000E+00  0.0000E+00
    -10.106  0.0000E+00  0.0000E+00
    -10.045  0.0000E+00  0.0000E+00
     -9.983  0.3000E-01  0.4884E-03
     -9.922  0.4808E-01  0.2932E-02
     -9.860  0.1148E+00  0.7537E-02
     -9.799  0.7644E-01  0.1285E-01
     -9.738  0.6273E-01  0.1755E-01
     -9.676  0.1143E+00  0.2236E-01
     -9.615  0.1132E+00  0.2918E-01
     -9.553  0.1524E+00  0.3780E-01
     -9.492  0.1194E+00  0.4514E-01
     -9.430  0.2223E+00  0.5436E-01
     -9.369  0.1157E+00  0.6500E-01
     -9.308  0.1488E+00  0.7274E-01
     -9.246  0.1509E+00  0.8200E-01
     -9.185  0.2742E+00  0.9426E-01
     -9.123  0.2929E+00  0.1112E+00
     -9.062  0.1657E+00  0.1258E+00
     -9.000  0.2160E+00  0.1332E+00
     -8.939  0.2554E+00  0.1504E+00
     -8.878  0.1626E+00  0.1624E+00
     -8.816  0.4150E+00  0.1802E+00
     -8.755  0.3164E+00  0.2021E+00
     -8.693  0.3243E+00  0.2203E+00
     -8.632  0.4751E+00  0.2417E+00
     -8.570  0.5459E+00  0.2657E+00
     -8.509  0.5976E+00  0.2998E+00
     -8.448  0.5286E+00  0.3352E+00
     -8.386  0.5953E+00  0.3693E+00
     -8.325  0.6136E+00  0.4014E+00
     -8.263  0.4437E+00  0.4239E+00
     -8.202  0.3689E+00  0.4539E+00
     -8.140  0.8206E+00  0.4926E+00
     -8.079  0.5416E+00  0.5248E+00
     -8.018  0.6607E+00  0.5589E+00
     -7.956  0.8423E+00  0.6026E+00
     -7.895  0.3221E+00  0.6358E+00
     -7.833  0.2605E-01  0.6400E+00
     -7.772  0.0000E+00  0.6400E+00
     -7.710  0.0000E+00  0.6400E+00
     -7.649  0.0000E+00  0.6400E+00
     -7.588  0.0000E+00  0.6400E+00
     -7.526  0.0000E+00  0.6400E+00
     -7.465  0.0000E+00  0.6400E+00
     -7.403  0.0000E+00  0.6400E+00
     -7.342  0.0000E+00  0.6400E+00
     -7.280  0.0000E+00  0.6400E+00
     -7.219  0.0000E+00  0.6400E+00
     -7.158  0.0000E+00  0.6400E+00
     -7.096  0.0000E+00  0.6400E+00
     -7.035  0.0000E+00  0.6400E+00
     -6.973  0.0000E+00  0.6400E+00
     -6.912  0.0000E+00  0.6400E+00
     -6.850  0.0000E+00  0.6400E+00
     -6.789  0.0000E+00  0.6400E+00
     -6.728  0.0000E+00  0.6400E+00
     -6.666  0.0000E+00  0.6400E+00
     -6.605  0.0000E+00  0.6400E+00
     -6.543  0.0000E+00  0.6400E+00
     -6.482  0.0000E+00  0.6400E+00
     -6.420  0.0000E+00  0.6400E+00
     -6.359  0.0000E+00  0.6400E+00
     -6.298  0.0000E+00  0.6400E+00
     -6.236  0.0000E+00  0.6400E+00
     -6.175  0.0000E+00  0.6400E+00
     -6.113  0.0000E+00  0.6400E+00
     -6.052  0.0000E+00  0.6400E+00
     -5.990  0.0000E+00  0.6400E+00
     -5.929  0.0000E+00  0.6400E+00
     -5.868  0.0000E+00  0.6400E+00
     -5.806  0.0000E+00  0.6400E+00
     -5.745  0.0000E+00  0.6400E+00
     -5.683  0.0000E+00  0.6400E+00
     -5.622  0.0000E+00  0.6400E+00
     -5.560  0.0000E+00  0.6400E+00
     -5.499  0.0000E+00  0.6400E+00
     -5.438  0.0000E+00  0.6400E+00
     -5.376  0.0000E+00  0.6400E+00
     -5.315  0.0000E+00  0.6400E+00
     -5.253  0.0000E+00  0.6400E+00
     -5.192  0.0000E+00  0.6400E+00
     -5.130  0.0000E+00  0.6400E+00
     -5.069  0.0000E+00  0.6400E+00
     -5.008  0.0000E+00  0.6400E+00
     -4.946  0.0000E+00  0.6400E+00
     -4.885  0.0000E+00  0.6400E+00
     -4.823  0.0000E+00  0.6400E+00
     -4.762  0.0000E+00  0.6400E+00
     -4.700  0.0000E+00  0.6400E+00
     -4.639  0.0000E+00  0.6400E+00
     -4.578  0.0000E+00  0.6400E+00
     -4.516  0.0000E+00  0.6400E+00
     -4.455  0.0000E+00  0.6400E+00
     -4.393  0.0000E+00  0.6400E+00
     -4.332  0.1042E-01  0.6401E+00
     -4.270  0.4905E-01  0.6418E+00
     -4.209  0.1158E+00  0.6458E+00
     -4.148  0.2588E+00  0.6575E+00
     -4.086  0.4741E+00  0.6775E+00
     -4.025  0.7769E+00  0.7175E+00
     -3.963  0.1213E+01  0.7640E+00
     -3.902  0.1208E+01  0.8303E+00
     -3.840  0.5844E+00  0.8740E+00
     -3.779  0.8780E+00  0.9149E+00
     -3.718  0.2983E+00  0.9392E+00
     -3.656  0.1705E+00  0.9531E+00
     -3.595  0.2891E+00  0.9675E+00
     -3.533  0.4263E+00  0.9939E+00
     -3.472  0.2089E+00  0.1010E+01
     -3.410  0.1702E+00  0.1022E+01
     -3.349  0.1912E+00  0.1032E+01
     -3.288  0.5142E+00  0.1055E+01
     -3.226  0.1659E+00  0.1071E+01
     -3.165  0.1470E+00  0.1079E+01
     -3.103  0.8212E-01  0.1086E+01
     -3.042  0.1063E+00  0.1091E+01
     -2.980  0.1307E+00  0.1098E+01
     -2.919  0.2080E+00  0.1108E+01
     -2.858  0.1414E+00  0.1117E+01
     -2.796  0.1337E+00  0.1126E+01
     -2.735  0.1314E+00  0.1134E+01
     -2.673  0.1331E+00  0.1142E+01
     -2.612  0.1147E+00  0.1150E+01
     -2.550  0.8830E-01  0.1156E+01
     -2.489  0.5926E-01  0.1161E+01
     -2.428  0.6993E-01  0.1165E+01
     -2.366  0.8000E-01  0.1169E+01
     -2.305  0.1042E+00  0.1175E+01
     -2.243  0.1154E+00  0.1182E+01
     -2.182  0.9013E-01  0.1188E+01
     -2.120  0.7754E-01  0.1193E+01
     -2.059  0.6972E-01  0.1198E+01
     -1.998  0.5083E-01  0.1201E+01
     -1.936  0.4325E-01  0.1204E+01
     -1.875  0.3915E-01  0.1206E+01
     -1.813  0.3821E-01  0.1209E+01
     -1.752  0.3986E-01  0.1211E+01
     -1.690  0.5989E-01  0.1214E+01
     -1.629  0.1026E+00  0.1219E+01
     -1.568  0.8675E-01  0.1225E+01
     -1.506  0.7697E-01  0.1230E+01
     -1.445  0.5764E-01  0.1234E+01
     -1.383  0.7322E-01  0.1238E+01
     -1.322  0.1881E+00  0.1244E+01
     -1.260  0.3017E+00  0.1261E+01
     -1.199  0.4637E+00  0.1281E+01
     -1.138  0.4652E+00  0.1313E+01
     -1.076  0.4165E+00  0.1338E+01
     -1.015  0.5492E+00  0.1370E+01
     -0.953  0.4795E+00  0.1399E+01
     -0.892  0.3275E+00  0.1421E+01
     -0.830  0.3256E+00  0.1442E+01
     -0.769  0.3592E+00  0.1462E+01
     -0.708  0.3555E+00  0.1481E+01
     -0.646  0.4361E+00  0.1502E+01
     -0.585  0.6621E+00  0.1525E+01
     -0.523  0.4540E+00  0.1550E+01
     -0.462  0.4682E+00  0.1577E+01
     -0.400  0.4628E+00  0.1607E+01
     -0.339  0.5219E+00  0.1637E+01
     -0.278  0.4913E+00  0.1668E+01
     -0.216  0.4170E+00  0.1697E+01
     -0.155  0.6019E+00  0.1726E+01
     -0.093  0.5591E+00  0.1759E+01
     -0.032  0.5252E+00  0.1795E+01
      0.030  0.6990E+00  0.1830E+01
      0.091  0.4810E+00  0.1859E+01
      0.152  0.6161E+00  0.1892E+01
      0.214  0.3673E+00  0.1922E+01
      0.275  0.5120E+00  0.1945E+01
      0.337  0.5658E+00  0.1982E+01
      0.398  0.5438E+00  0.2012E+01
      0.460  0.4913E+00  0.2043E+01
      0.521  0.6452E+00  0.2081E+01
      0.582  0.4595E+00  0.2109E+01
      0.644  0.5744E+00  0.2141E+01
      0.705  0.5366E+00  0.2169E+01
      0.767  0.4810E+00  0.2198E+01
      0.828  0.4682E+00  0.2222E+01
      0.890  0.5185E+00  0.2253E+01
      0.951  0.3800E+00  0.2280E+01
      1.013  0.4198E+00  0.2304E+01
      1.074  0.4648E+00  0.2332E+01
      1.135  0.3927E+00  0.2356E+01
      1.197  0.4647E+00  0.2385E+01
      1.258  0.4097E+00  0.2412E+01
      1.320  0.3064E+00  0.2433E+01
      1.381  0.2520E+00  0.2450E+01
      1.443  0.2278E+00  0.2465E+01
      1.504  0.2004E+00  0.2478E+01
      1.565  0.1959E+00  0.2491E+01
      1.627  0.1577E+00  0.2501E+01
      1.688  0.1308E+00  0.2509E+01
      1.750  0.1598E+00  0.2518E+01
      1.811  0.1371E+00  0.2529E+01
      1.873  0.8292E-01  0.2535E+01
      1.934  0.1194E+00  0.2540E+01
      1.995  0.1247E+00  0.2548E+01
      2.057  0.6318E-01  0.2554E+01
      2.118  0.3898E-01  0.2557E+01
      2.180  0.2957E-01  0.2559E+01
      2.241  0.3090E-02  0.2560E+01
      2.303  0.0000E+00  0.2560E+01
      2.364  0.6270E-05  0.2560E+01
      2.425  0.3347E-04  0.2560E+01
      2.487  0.8219E-04  0.2560E+01
      2.548  0.1525E-03  0.2560E+01
      2.610  0.2442E-03  0.2560E+01
      2.671  0.3576E-03  0.2560E+01
      2.733  0.4924E-03  0.2560E+01
      2.794  0.6488E-03  0.2560E+01
      2.855  0.8267E-03  0.2560E+01
      2.917  0.1026E-02  0.2560E+01
      2.978  0.1247E-02  0.2560E+01
      3.040  0.1490E-02  0.2560E+01
      3.101  0.1938E-02  0.2560E+01
      3.163  0.5888E-02  0.2561E+01
      3.224  0.1386E-01  0.2561E+01
      3.285  0.2125E-01  0.2562E+01
      3.347  0.3034E-01  0.2564E+01
      3.408  0.5316E-01  0.2567E+01
      3.470  0.6856E-01  0.2571E+01
      3.531  0.8558E-01  0.2576E+01
      3.593  0.6880E-01  0.2580E+01
      3.654  0.8447E-01  0.2585E+01
      3.715  0.1124E+00  0.2591E+01
      3.777  0.1575E+00  0.2598E+01
      3.838  0.2076E+00  0.2612E+01
      3.900  0.2791E+00  0.2625E+01
      3.961  0.2937E+00  0.2642E+01
      4.023  0.2642E+00  0.2660E+01
      4.084  0.2159E+00  0.2673E+01
      4.145  0.2315E+00  0.2687E+01
      4.207  0.4030E+00  0.2704E+01
      4.268  0.4547E+00  0.2728E+01
      4.330  0.3641E+00  0.2754E+01
      4.391  0.5784E+00  0.2783E+01
      4.453  0.5058E+00  0.2812E+01
      4.514  0.5574E+00  0.2845E+01
      4.575  0.6893E+00  0.2884E+01
      4.637  0.6148E+00  0.2923E+01
      4.698  0.6650E+00  0.2959E+01
      4.760  0.5188E+00  0.2994E+01
      4.821  0.5007E+00  0.3024E+01
      4.883  0.4834E+00  0.3054E+01
      4.944  0.3730E+00  0.3079E+01
      5.005  0.3730E+00  0.3102E+01
      5.067  0.3220E+00  0.3123E+01
      5.128  0.3167E+00  0.3142E+01
      5.190  0.3410E+00  0.3164E+01
      5.251  0.2081E+00  0.3179E+01
      5.313  0.3416E+00  0.3194E+01
      5.374  0.3991E+00  0.3214E+01
      5.435  0.2335E+00  0.3231E+01
      5.497  0.3980E+00  0.3250E+01
      5.558  0.2548E+00  0.3269E+01
      5.620  0.1927E+00  0.3282E+01
      5.681  0.2349E+00  0.3295E+01
      5.743  0.2332E+00  0.3308E+01
      5.804  0.1895E+00  0.3321E+01
      5.865  0.1478E+00  0.3332E+01
      5.927  0.1163E+00  0.3340E+01
      5.988  0.9281E-01  0.3346E+01
      6.050  0.6055E-01  0.3351E+01
      6.111  0.4268E-01  0.3354E+01
      6.173  0.2879E-01  0.3356E+01
      6.234  0.2097E-01  0.3358E+01
      6.295  0.1266E-01  0.3359E+01
      6.357  0.6952E-02  0.3360E+01
      6.418  0.5209E-02  0.3360E+01
      6.480  0.0000E+00  0.3360E+01
      6.541  0.0000E+00  0.3360E+01
      6.603  0.0000E+00  0.3360E+01
      6.664  0.0000E+00  0.3360E+01
      6.725  0.0000E+00  0.3360E+01
      6.787  0.0000E+00  0.3360E+01
      6.848  0.0000E+00  0.3360E+01
      6.910  0.0000E+00  0.3360E+01
      6.971  0.0000E+00  0.3360E+01
      7.033  0.0000E+00  0.3360E+01
      7.094  0.0000E+00  0.3360E+01
      7.155  0.0000E+00  0.3360E+01
      7.217  0.0000E+00  0.3360E+01
      7.278  0.0000E+00  0.3360E+01
      7.340  0.0000E+00  0.3360E+01
      7.401  0.0000E+00  0.3360E+01
