 vasp.6.4.3 19Mar24 (build Aug 29 2024 15:27:20) complex                        
  
 executed on             LinuxIFC date 2025.03.24  15:30:10
 running    8 mpi-ranks, on    1 nodes
 distrk:  each k-point on    8 cores,    1 groups
 distr:  one band on NCORE=   1 cores,    8 groups


--------------------------------------------------------------------------------------------------------


 INCAR:
   SYSTEM = GaAs
   PREC = Normal
   ENCUT = 400
   ISMEAR = -5
   SIGMA = 0.1
   IBRION = 2
   POTIM = 0.1
   NFREE = 2
   NSW = 100
   ISIF = 2
   LEPSILON = .TRUE.
   LOPTICS = .TRUE.

 POTCAR:    PAW_PBE As 22Sep2009                  
 POTCAR:    PAW_PBE Ga 08Apr2002                  
 -----------------------------------------------------------------------------
|                                                                             |
|           W    W    AA    RRRRR   N    N  II  N    N   GGGG   !!!           |
|           W    W   A  A   R    R  NN   N  II  NN   N  G    G  !!!           |
|           W    W  A    A  R    R  N N  N  II  N N  N  G       !!!           |
|           W WW W  AAAAAA  RRRRR   N  N N  II  N  N N  G  GGG   !            |
|           WW  WW  A    A  R   R   N   NN  II  N   NN  G    G                |
|           W    W  A    A  R    R  N    N  II  N    N   GGGG   !!!           |
|                                                                             |
|     For optimal performance we recommend to set                             |
|       NCORE = 2 up to number-of-cores-per-socket                            |
|     NCORE specifies how many cores store one orbital (NPAR=cpu/NCORE).      |
|     This setting can greatly improve the performance of VASP for DFT.       |
|     The default, NCORE=1 might be grossly inefficient on modern             |
|     multi-core architectures or massively parallel machines. Do your        |
|     own testing! More info at https://www.vasp.at/wiki/index.php/NCORE      |
|     Unfortunately you need to use the default for GW and RPA                |
|     calculations (for HF NCORE is supported but not extensively tested      |
|     yet).                                                                   |
|                                                                             |
 -----------------------------------------------------------------------------

 POTCAR:    PAW_PBE As 22Sep2009                  
   VRHFIN =As: s2p3                                                                                 
   LEXCH  = PE                                                                                      
   EATOM  =   170.1867 eV,   12.5084 Ry                                                             
                                                                                                    
   TITEL  = PAW_PBE As 22Sep2009                                                                    
   LULTRA =        F    use ultrasoft PP ?                                                          
   IUNSCR =        1    unscreen: 0-lin 1-nonlin 2-no                                               
   RPACOR =    1.900    partial core radius                                                         
   POMASS =   74.922; ZVAL   =    5.000    mass and valenz                                          
   RCORE  =    2.100    outmost cutoff radius                                                       
   RWIGS  =    2.300; RWIGS  =    1.217    wigner-seitz radius (au A)                               
   ENMAX  =  208.702; ENMIN  =  156.526 eV                                                          
   ICORE  =        3    local potential                                                             
   LCOR   =        T    correct aug charges                                                         
   LPAW   =        T    paw PP                                                                      
   EAUG   =  462.758                                                                                
   DEXC   =    0.000                                                                                
   RMAX   =    2.144    core radius for proj-oper                                                   
   RAUG   =    1.300    factor for augmentation sphere                                              
   RDEP   =    2.140    radius for radial grids                                                     
   RDEPT  =    1.956    core radius for aug-charge                                                  
                                                                                                    
   Atomic configuration                                                                             
   10 entries                                                                                       
     n  l   j            E        occ.                                                              
     1  0  0.50    -11718.0418   2.0000                                                             
     2  0  0.50     -1486.5454   2.0000                                                             
     2  1  1.50     -1303.3889   6.0000                                                             
     3  0  0.50      -190.2849   2.0000                                                             
     3  1  1.50      -133.6555   6.0000                                                             
     3  2  2.50       -40.6443  10.0000                                                             
     4  0  0.50       -14.4936   2.0000                                                             
     4  1  0.50        -5.1947   3.0000                                                             
     4  2  1.50        -5.4423   0.0000                                                             
     4  3  2.50        -5.4423   0.0000                                                             
   Description                                                                                      
     l       E           TYP  RCUT    TYP  RCUT                                                     
     0    -14.4935570     23  2.100                                                                 
     0    -11.9212055     23  2.100                                                                 
     1     -5.1947127     23  2.100                                                                 
     1     27.2116520     23  2.100                                                                 
     2     -5.4423304     23  2.100                                                                 
     3     -1.3605826      7  2.100                                                                 
  local pseudopotential read in
  partial core-charges read in
  partial kinetic energy density read in
  atomic valenz-charges read in
  non local Contribution for L=           0  read in
    real space projection operators read in
  non local Contribution for L=           0  read in
    real space projection operators read in
  non local Contribution for L=           1  read in
    real space projection operators read in
  non local Contribution for L=           1  read in
    real space projection operators read in
  non local Contribution for L=           2  read in
    real space projection operators read in
    PAW grid and wavefunctions read in
 
   number of l-projection  operators is LMAX  =           5
   number of lm-projection operators is LMMAX =          13
 
 POTCAR:    PAW_PBE Ga 08Apr2002                  
   VRHFIN =Ga: s2p1                                                                                 
   LEXCH  = PE                                                                                      
   EATOM  =    58.8688 eV,    4.3267 Ry                                                             
                                                                                                    
   TITEL  = PAW_PBE Ga 08Apr2002                                                                    
   LULTRA =        F    use ultrasoft PP ?                                                          
   IUNSCR =        1    unscreen: 0-lin 1-nonlin 2-no                                               
   RPACOR =    2.170    partial core radius                                                         
   POMASS =   69.723; ZVAL   =    3.000    mass and valenz                                          
   RCORE  =    2.600    outmost cutoff radius                                                       
   RWIGS  =    2.650; RWIGS  =    1.402    wigner-seitz radius (au A)                               
   ENMAX  =  134.678; ENMIN  =  101.009 eV                                                          
   ICORE  =        3    local potential                                                             
   LCOR   =        T    correct aug charges                                                         
   LPAW   =        T    paw PP                                                                      
   EAUG   =  320.264                                                                                
   DEXC   =    0.000                                                                                
   RMAX   =    2.658    core radius for proj-oper                                                   
   RAUG   =    1.300    factor for augmentation sphere                                              
   RDEP   =    2.684    radius for radial grids                                                     
   RDEPT  =    2.308    core radius for aug-charge                                                  
                                                                                                    
   Atomic configuration                                                                             
   10 entries                                                                                       
     n  l   j            E        occ.                                                              
     1  0  0.50    -10228.7830   2.0000                                                             
     2  0  0.50     -1262.1604   2.0000                                                             
     2  1  1.50     -1098.6333   6.0000                                                             
     3  0  0.50      -148.1110   2.0000                                                             
     3  1  1.50       -98.8436   6.0000                                                             
     3  2  2.50       -19.1549  10.0000                                                             
     4  0  0.50        -8.9483   2.0000                                                             
     4  1  0.50        -2.5791   1.0000                                                             
     4  2  1.50         5.4423   0.0000                                                             
     4  3  2.50        -2.7416   0.0000                                                             
   Description                                                                                      
     l       E           TYP  RCUT    TYP  RCUT                                                     
     0     -8.9483097     23  2.600                                                                 
     0     -5.8232215     23  2.600                                                                 
     1     -2.5790793     23  2.600                                                                 
     1      5.2230115     23  2.600                                                                 
     2      1.3605826     23  2.600                                                                 
     3     -1.3605826      7  2.600                                                                 
  local pseudopotential read in
  partial core-charges read in
  partial kinetic energy density read in
  atomic valenz-charges read in
  non local Contribution for L=           0  read in
    real space projection operators read in
  non local Contribution for L=           0  read in
    real space projection operators read in
  non local Contribution for L=           1  read in
    real space projection operators read in
  non local Contribution for L=           1  read in
    real space projection operators read in
  non local Contribution for L=           2  read in
    real space projection operators read in
    PAW grid and wavefunctions read in
 
   number of l-projection  operators is LMAX  =           5
   number of lm-projection operators is LMMAX =          13
 
 -----------------------------------------------------------------------------
|                                                                             |
|               ----> ADVICE to this user running VASP <----                  |
|                                                                             |
|     You have a (more or less) 'large supercell' and for larger cells it     |
|     might be more efficient to use real-space projection operators.         |
|     Therefore, try LREAL= Auto in the INCAR file.                           |
|     Mind: For very accurate calculation, you might also keep the            |
|     reciprocal projection scheme (i.e. LREAL=.FALSE.).                      |
|                                                                             |
 -----------------------------------------------------------------------------

  PAW_PBE As 22Sep2009                  :
 energy of atom  1       EATOM= -170.1867
 kinetic energy error for atom=    0.0013 (will be added to EATOM!!)
  PAW_PBE Ga 08Apr2002                  :
 energy of atom  2       EATOM=  -58.8688
 kinetic energy error for atom=    0.0001 (will be added to EATOM!!)
 
 
 POSCAR: cubic gallium arsenide
  positions in direct lattice
  velocities in cartesian coordinates


 exchange-correlation table for PE
   RHO(1)=    0.500       N(1)  =     2000
   RHO(2)=  100.500       N(2)  =     4000
 


--------------------------------------------------------------------------------------------------------


 ion  position               nearest neighbor table
   1  0.000  0.000  0.000-  33 2.50  46 2.50  55 2.50  60 2.50
   2  0.000  0.000  0.500-  34 2.50  45 2.50  56 2.50  59 2.50
   3  0.000  0.500  0.000-  35 2.50  48 2.50  53 2.50  58 2.50
   4  0.000  0.500  0.500-  36 2.50  47 2.50  54 2.50  57 2.50
   5  0.500  0.000  0.000-  37 2.50  42 2.50  51 2.50  64 2.50
   6  0.500  0.000  0.500-  38 2.50  41 2.50  52 2.50  63 2.50
   7  0.500  0.500  0.000-  39 2.50  44 2.50  49 2.50  62 2.50
   8  0.500  0.500  0.500-  40 2.50  43 2.50  50 2.50  61 2.50
   9  0.250  0.250  0.000-  33 2.50  42 2.50  49 2.50  58 2.50
  10  0.250  0.250  0.500-  34 2.50  41 2.50  50 2.50  57 2.50
  11  0.250  0.750  0.000-  35 2.50  44 2.50  51 2.50  60 2.50
  12  0.250  0.750  0.500-  36 2.50  43 2.50  52 2.50  59 2.50
  13  0.750  0.250  0.000-  37 2.50  46 2.50  53 2.50  62 2.50
  14  0.750  0.250  0.500-  38 2.50  45 2.50  54 2.50  61 2.50
  15  0.750  0.750  0.000-  39 2.50  48 2.50  55 2.50  64 2.50
  16  0.750  0.750  0.500-  40 2.50  47 2.50  56 2.50  63 2.50
  17  0.250  0.000  0.250-  33 2.50  41 2.50  51 2.50  59 2.50
  18  0.250  0.000  0.750-  34 2.50  42 2.50  52 2.50  60 2.50
  19  0.250  0.500  0.250-  35 2.50  43 2.50  49 2.50  57 2.50
  20  0.250  0.500  0.750-  36 2.50  44 2.50  50 2.50  58 2.50
  21  0.750  0.000  0.250-  37 2.50  45 2.50  55 2.50  63 2.50
  22  0.750  0.000  0.750-  38 2.50  46 2.50  56 2.50  64 2.50
  23  0.750  0.500  0.250-  39 2.50  47 2.50  53 2.50  61 2.50
  24  0.750  0.500  0.750-  40 2.50  48 2.50  54 2.50  62 2.50
  25  0.000  0.250  0.250-  33 2.50  45 2.50  53 2.50  57 2.50
  26  0.000  0.250  0.750-  34 2.50  46 2.50  54 2.50  58 2.50
  27  0.000  0.750  0.250-  35 2.50  47 2.50  55 2.50  59 2.50
  28  0.000  0.750  0.750-  36 2.50  48 2.50  56 2.50  60 2.50
  29  0.500  0.250  0.250-  37 2.50  41 2.50  49 2.50  61 2.50
  30  0.500  0.250  0.750-  38 2.50  42 2.50  50 2.50  62 2.50
  31  0.500  0.750  0.250-  39 2.50  43 2.50  51 2.50  63 2.50
  32  0.500  0.750  0.750-  40 2.50  44 2.50  52 2.50  64 2.50
  33  0.125  0.125  0.125-   1 2.50   9 2.50  17 2.50  25 2.50
  34  0.125  0.125  0.625-   2 2.50  10 2.50  18 2.50  26 2.50
  35  0.125  0.625  0.125-   3 2.50  11 2.50  19 2.50  27 2.50
  36  0.125  0.625  0.625-   4 2.50  12 2.50  20 2.50  28 2.50
  37  0.625  0.125  0.125-   5 2.50  13 2.50  21 2.50  29 2.50
  38  0.625  0.125  0.625-   6 2.50  14 2.50  22 2.50  30 2.50
  39  0.625  0.625  0.125-   7 2.50  15 2.50  23 2.50  31 2.50
  40  0.625  0.625  0.625-   8 2.50  16 2.50  24 2.50  32 2.50
  41  0.375  0.125  0.375-   6 2.50  10 2.50  17 2.50  29 2.50
  42  0.375  0.125  0.875-   5 2.50   9 2.50  18 2.50  30 2.50
  43  0.375  0.625  0.375-   8 2.50  12 2.50  19 2.50  31 2.50
  44  0.375  0.625  0.875-   7 2.50  11 2.50  20 2.50  32 2.50
  45  0.875  0.125  0.375-   2 2.50  14 2.50  21 2.50  25 2.50
  46  0.875  0.125  0.875-   1 2.50  13 2.50  22 2.50  26 2.50
  47  0.875  0.625  0.375-   4 2.50  16 2.50  23 2.50  27 2.50
  48  0.875  0.625  0.875-   3 2.50  15 2.50  24 2.50  28 2.50
  49  0.375  0.375  0.125-   7 2.50   9 2.50  19 2.50  29 2.50
  50  0.375  0.375  0.625-   8 2.50  10 2.50  20 2.50  30 2.50
  51  0.375  0.875  0.125-   5 2.50  11 2.50  17 2.50  31 2.50
  52  0.375  0.875  0.625-   6 2.50  12 2.50  18 2.50  32 2.50
  53  0.875  0.375  0.125-   3 2.50  13 2.50  23 2.50  25 2.50
  54  0.875  0.375  0.625-   4 2.50  14 2.50  24 2.50  26 2.50
  55  0.875  0.875  0.125-   1 2.50  15 2.50  21 2.50  27 2.50
  56  0.875  0.875  0.625-   2 2.50  16 2.50  22 2.50  28 2.50
  57  0.125  0.375  0.375-   4 2.50  10 2.50  19 2.50  25 2.50
  58  0.125  0.375  0.875-   3 2.50   9 2.50  20 2.50  26 2.50
  59  0.125  0.875  0.375-   2 2.50  12 2.50  17 2.50  27 2.50
  60  0.125  0.875  0.875-   1 2.50  11 2.50  18 2.50  28 2.50
  61  0.625  0.375  0.375-   8 2.50  14 2.50  23 2.50  29 2.50
  62  0.625  0.375  0.875-   7 2.50  13 2.50  24 2.50  30 2.50
  63  0.625  0.875  0.375-   6 2.50  16 2.50  21 2.50  31 2.50
  64  0.625  0.875  0.875-   5 2.50  15 2.50  22 2.50  32 2.50
 
  LATTYP: Found a simple tetragonal cell.
 ALAT       =    11.4553336746
 C/A-ratio  =     1.0263634534
  
  Lattice vectors:
  
 A1 = (   0.0000000000,  11.4553336746,   0.0000000000)
 A2 = (   0.0000000000,   0.0000000000,  11.4553336746)
 A3 = (  11.7573358302,   0.0000000000,   0.0000000000)


Analysis of symmetry for initial positions (statically):
=====================================================================
 Subroutine PRICEL returns following result:
 
  LATTYP: Found a body centered tetragonal cell.
 ALAT       =     4.0500720610
 C/A-ratio  =     1.4514971157
  
  Lattice vectors:
  
 A1 = (   2.9393339576,   0.0000000000,   2.8638334186)
 A2 = (   2.9393339576,   0.0000000000,  -2.8638334186)
 A3 = (  -2.9393339576,   2.8638334186,   0.0000000000)
 
  32 primitive cells build up your supercell.
 

 Routine SETGRP: Setting up the symmetry group for a 
 simple tetragonal supercell.


 Subroutine GETGRP returns: Found  8 space group operations
 (whereof  8 operations were pure point group operations)
 out of a pool of 16 trial point group operations.


The static configuration has the point symmetry D_2d.


Analysis of symmetry for dynamics (positions and initial velocities):
=====================================================================
 Subroutine PRICEL returns following result:
 
  LATTYP: Found a body centered tetragonal cell.
 ALAT       =     4.0500720610
 C/A-ratio  =     1.4514971157
  
  Lattice vectors:
  
 A1 = (   2.9393339576,   0.0000000000,   2.8638334186)
 A2 = (   2.9393339576,   0.0000000000,  -2.8638334186)
 A3 = (  -2.9393339576,   2.8638334186,   0.0000000000)
 
  32 primitive cells build up your supercell.
 

 Routine SETGRP: Setting up the symmetry group for a 
 simple tetragonal supercell.


 Subroutine GETGRP returns: Found  8 space group operations
 (whereof  8 operations were pure point group operations)
 out of a pool of 16 trial point group operations.


The dynamic configuration has the point symmetry D_2d.


 Subroutine INISYM returns: Found  8 space group operations
 (whereof  8 operations are pure point group operations),
 and found    32 'primitive' translations


----------------------------------------------------------------------------------------

                                     Primitive cell                                     

  volume of cell :      48.2141

  direct lattice vectors                    reciprocal lattice vectors
     2.939333958  0.000000000  2.863833419     0.170106564  0.174591160  0.174591160
     2.939333958  0.000000000 -2.863833419     0.170106564  0.174591160 -0.174591160
    -2.939333958  2.863833419  0.000000000     0.000000000  0.349182321  0.000000000

  length of vectors
     4.103806278  4.103806278  4.103806278     0.299833937  0.299833937  0.349182321

  position of ions in fractional coordinates (direct lattice)
     0.000000000  0.000000000  0.000000000
     0.750000000  0.250000000  0.500000000

  ion indices of the primitive-cell ions
   primitive index   ion index
                 1           1
                 2          33

----------------------------------------------------------------------------------------

 
 
 KPOINTS: Automatic mesh                          

Automatic generation of k-mesh.
 Grid dimensions read from file:
 generate k-points for:    5    5    5

 Generating k-lattice:

  Cartesian coordinates                     Fractional coordinates (reciprocal lattice)
     0.017010656  0.000000000  0.000000000     0.200000000  0.000000000  0.000000000
     0.000000000  0.017459116  0.000000000     0.000000000  0.200000000  0.000000000
     0.000000000  0.000000000  0.017459116     0.000000000  0.000000000  0.200000000

  Length of vectors
     0.017010656  0.017459116  0.017459116

  Shift w.r.t. Gamma in fractional coordinates (k-lattice)
     0.000000000  0.000000000  0.000000000

 TETIRR: Found    177 inequivalent tetrahedra from      750
 
 Subroutine IBZKPT returns following result:
 ===========================================
 
 Found     18 irreducible k-points:
 
 Following reciprocal coordinates:
            Coordinates               Weight
  0.000000  0.000000  0.000000      1.000000
  0.200000  0.000000  0.000000      2.000000
  0.400000  0.000000  0.000000      2.000000
  0.000000  0.200000  0.000000      4.000000
  0.200000  0.200000  0.000000      8.000000
  0.400000  0.200000  0.000000      8.000000
  0.000000  0.400000  0.000000      4.000000
  0.200000  0.400000  0.000000      8.000000
  0.400000  0.400000  0.000000      8.000000
  0.000000  0.200000  0.200000      4.000000
  0.200000  0.200000  0.200000      8.000000
  0.400000  0.200000  0.200000      8.000000
  0.000000  0.400000  0.200000      8.000000
  0.200000  0.400000  0.200000     16.000000
  0.400000  0.400000  0.200000     16.000000
  0.000000  0.400000  0.400000      4.000000
  0.200000  0.400000  0.400000      8.000000
  0.400000  0.400000  0.400000      8.000000
 
 Following cartesian coordinates:
            Coordinates               Weight
  0.000000  0.000000  0.000000      1.000000
  0.017011  0.000000  0.000000      2.000000
  0.034021  0.000000  0.000000      2.000000
  0.000000  0.017459  0.000000      4.000000
  0.017011  0.017459  0.000000      8.000000
  0.034021  0.017459  0.000000      8.000000
  0.000000  0.034918  0.000000      4.000000
  0.017011  0.034918  0.000000      8.000000
  0.034021  0.034918  0.000000      8.000000
  0.000000  0.017459  0.017459      4.000000
  0.017011  0.017459  0.017459      8.000000
  0.034021  0.017459  0.017459      8.000000
  0.000000  0.034918  0.017459      8.000000
  0.017011  0.034918  0.017459     16.000000
  0.034021  0.034918  0.017459     16.000000
  0.000000  0.034918  0.034918      4.000000
  0.017011  0.034918  0.034918      8.000000
  0.034021  0.034918  0.034918      8.000000
 
 
 Subroutine IBZKPT_HF returns following result:
 ==============================================
 
 Found    125 k-points in 1st BZ
 the following    125 k-points will be used (e.g. in the exchange kernel)
 Following reciprocal coordinates:   # in IRBZ
  0.000000  0.000000  0.000000    0.00800000   1 t-inv F
  0.200000  0.000000  0.000000    0.00800000   2 t-inv F
  0.400000  0.000000  0.000000    0.00800000   3 t-inv F
  0.000000  0.200000  0.000000    0.00800000   4 t-inv F
  0.200000  0.200000  0.000000    0.00800000   5 t-inv F
  0.400000  0.200000  0.000000    0.00800000   6 t-inv F
  0.000000  0.400000  0.000000    0.00800000   7 t-inv F
  0.200000  0.400000  0.000000    0.00800000   8 t-inv F
  0.400000  0.400000  0.000000    0.00800000   9 t-inv F
  0.000000  0.200000  0.200000    0.00800000  10 t-inv F
  0.200000  0.200000  0.200000    0.00800000  11 t-inv F
  0.400000  0.200000  0.200000    0.00800000  12 t-inv F
  0.000000  0.400000  0.200000    0.00800000  13 t-inv F
  0.200000  0.400000  0.200000    0.00800000  14 t-inv F
  0.400000  0.400000  0.200000    0.00800000  15 t-inv F
  0.000000  0.400000  0.400000    0.00800000  16 t-inv F
  0.200000  0.400000  0.400000    0.00800000  17 t-inv F
  0.400000  0.400000  0.400000    0.00800000  18 t-inv F
 -0.200000  0.000000  0.000000    0.00800000   2 t-inv F
 -0.400000  0.000000  0.000000    0.00800000   3 t-inv F
  0.000000  0.000000 -0.200000    0.00800000   4 t-inv F
  0.000000 -0.200000  0.000000    0.00800000   4 t-inv F
  0.000000  0.000000  0.200000    0.00800000   4 t-inv F
 -0.200000  0.000000 -0.200000    0.00800000   5 t-inv F
  0.200000 -0.200000  0.000000    0.00800000   5 t-inv F
 -0.200000  0.000000  0.200000    0.00800000   5 t-inv F
 -0.200000 -0.200000  0.000000    0.00800000   5 t-inv F
  0.200000  0.000000 -0.200000    0.00800000   5 t-inv F
 -0.200000  0.200000  0.000000    0.00800000   5 t-inv F
  0.200000  0.000000  0.200000    0.00800000   5 t-inv F
 -0.400000  0.000000 -0.200000    0.00800000   6 t-inv F
  0.400000 -0.200000  0.000000    0.00800000   6 t-inv F
 -0.400000  0.000000  0.200000    0.00800000   6 t-inv F
 -0.400000 -0.200000  0.000000    0.00800000   6 t-inv F
  0.400000  0.000000 -0.200000    0.00800000   6 t-inv F
 -0.400000  0.200000  0.000000    0.00800000   6 t-inv F
  0.400000  0.000000  0.200000    0.00800000   6 t-inv F
  0.000000  0.000000 -0.400000    0.00800000   7 t-inv F
  0.000000 -0.400000  0.000000    0.00800000   7 t-inv F
  0.000000  0.000000  0.400000    0.00800000   7 t-inv F
 -0.200000  0.000000 -0.400000    0.00800000   8 t-inv F
  0.200000 -0.400000  0.000000    0.00800000   8 t-inv F
 -0.200000  0.000000  0.400000    0.00800000   8 t-inv F
 -0.200000 -0.400000  0.000000    0.00800000   8 t-inv F
  0.200000  0.000000 -0.400000    0.00800000   8 t-inv F
 -0.200000  0.400000  0.000000    0.00800000   8 t-inv F
  0.200000  0.000000  0.400000    0.00800000   8 t-inv F
 -0.400000  0.000000 -0.400000    0.00800000   9 t-inv F
  0.400000 -0.400000  0.000000    0.00800000   9 t-inv F
 -0.400000  0.000000  0.400000    0.00800000   9 t-inv F
 -0.400000 -0.400000  0.000000    0.00800000   9 t-inv F
  0.400000  0.000000 -0.400000    0.00800000   9 t-inv F
 -0.400000  0.400000  0.000000    0.00800000   9 t-inv F
  0.400000  0.000000  0.400000    0.00800000   9 t-inv F
  0.000000  0.200000 -0.200000    0.00800000  10 t-inv F
  0.000000 -0.200000 -0.200000    0.00800000  10 t-inv F
  0.000000 -0.200000  0.200000    0.00800000  10 t-inv F
 -0.200000  0.200000 -0.200000    0.00800000  11 t-inv F
  0.200000 -0.200000 -0.200000    0.00800000  11 t-inv F
 -0.200000 -0.200000  0.200000    0.00800000  11 t-inv F
 -0.400000  0.200000 -0.200000    0.00800000  12 t-inv F
  0.400000 -0.200000 -0.200000    0.00800000  12 t-inv F
 -0.400000 -0.200000  0.200000    0.00800000  12 t-inv F
  0.000000  0.200000 -0.400000    0.00800000  13 t-inv F
  0.000000 -0.400000 -0.200000    0.00800000  13 t-inv F
  0.000000 -0.200000  0.400000    0.00800000  13 t-inv F
  0.000000 -0.400000  0.200000    0.00800000  13 t-inv F
  0.000000 -0.200000 -0.400000    0.00800000  13 t-inv F
  0.000000  0.400000 -0.200000    0.00800000  13 t-inv F
  0.000000  0.200000  0.400000    0.00800000  13 t-inv F
 -0.200000  0.200000 -0.400000    0.00800000  14 t-inv F
  0.200000 -0.400000 -0.200000    0.00800000  14 t-inv F
 -0.200000 -0.200000  0.400000    0.00800000  14 t-inv F
 -0.200000 -0.400000  0.200000    0.00800000  14 t-inv F
  0.200000 -0.200000 -0.400000    0.00800000  14 t-inv F
 -0.200000  0.400000 -0.200000    0.00800000  14 t-inv F
  0.200000  0.200000  0.400000    0.00800000  14 t-inv F
 -0.400000  0.200000 -0.400000    0.00800000  15 t-inv F
  0.400000 -0.400000 -0.200000    0.00800000  15 t-inv F
 -0.400000 -0.200000  0.400000    0.00800000  15 t-inv F
 -0.400000 -0.400000  0.200000    0.00800000  15 t-inv F
  0.400000 -0.200000 -0.400000    0.00800000  15 t-inv F
 -0.400000  0.400000 -0.200000    0.00800000  15 t-inv F
  0.400000  0.200000  0.400000    0.00800000  15 t-inv F
  0.000000  0.400000 -0.400000    0.00800000  16 t-inv F
  0.000000 -0.400000 -0.400000    0.00800000  16 t-inv F
  0.000000 -0.400000  0.400000    0.00800000  16 t-inv F
 -0.200000  0.400000 -0.400000    0.00800000  17 t-inv F
  0.200000 -0.400000 -0.400000    0.00800000  17 t-inv F
 -0.200000 -0.400000  0.400000    0.00800000  17 t-inv F
 -0.400000  0.400000 -0.400000    0.00800000  18 t-inv F
  0.400000 -0.400000 -0.400000    0.00800000  18 t-inv F
 -0.400000 -0.400000  0.400000    0.00800000  18 t-inv F
 -0.200000 -0.200000 -0.200000    0.00800000  11 t-inv T
  0.200000 -0.200000  0.200000    0.00800000  11 t-inv T
 -0.200000  0.200000  0.200000    0.00800000  11 t-inv T
  0.200000  0.200000 -0.200000    0.00800000  11 t-inv T
 -0.400000 -0.200000 -0.200000    0.00800000  12 t-inv T
  0.400000 -0.200000  0.200000    0.00800000  12 t-inv T
 -0.400000  0.200000  0.200000    0.00800000  12 t-inv T
  0.400000  0.200000 -0.200000    0.00800000  12 t-inv T
 -0.200000 -0.400000 -0.200000    0.00800000  14 t-inv T
  0.200000 -0.200000  0.400000    0.00800000  14 t-inv T
 -0.200000  0.400000  0.200000    0.00800000  14 t-inv T
  0.200000  0.200000 -0.400000    0.00800000  14 t-inv T
  0.200000  0.400000 -0.200000    0.00800000  14 t-inv T
 -0.200000  0.200000  0.400000    0.00800000  14 t-inv T
  0.200000 -0.400000  0.200000    0.00800000  14 t-inv T
 -0.200000 -0.200000 -0.400000    0.00800000  14 t-inv T
 -0.400000 -0.400000 -0.200000    0.00800000  15 t-inv T
  0.400000 -0.200000  0.400000    0.00800000  15 t-inv T
 -0.400000  0.400000  0.200000    0.00800000  15 t-inv T
  0.400000  0.200000 -0.400000    0.00800000  15 t-inv T
  0.400000  0.400000 -0.200000    0.00800000  15 t-inv T
 -0.400000  0.200000  0.400000    0.00800000  15 t-inv T
  0.400000 -0.400000  0.200000    0.00800000  15 t-inv T
 -0.400000 -0.200000 -0.400000    0.00800000  15 t-inv T
 -0.200000 -0.400000 -0.400000    0.00800000  17 t-inv T
  0.200000 -0.400000  0.400000    0.00800000  17 t-inv T
 -0.200000  0.400000  0.400000    0.00800000  17 t-inv T
  0.200000  0.400000 -0.400000    0.00800000  17 t-inv T
 -0.400000 -0.400000 -0.400000    0.00800000  18 t-inv T
  0.400000 -0.400000  0.400000    0.00800000  18 t-inv T
 -0.400000  0.400000  0.400000    0.00800000  18 t-inv T
  0.400000  0.400000 -0.400000    0.00800000  18 t-inv T


--------------------------------------------------------------------------------------------------------




 Dimension of arrays:
   k-points           NKPTS =     18   k-points in BZ     NKDIM =     18   number of bands    NBANDS=    168
   number of dos      NEDOS =    301   number of ions     NIONS =     64
   non local maximal  LDIM  =      5   non local SUM 2l+1 LMDIM =     13
   total plane-waves  NPLWV = 188160
   max r-space proj   IRMAX =      1   max aug-charges    IRDMAX=   8964
   dimension x,y,z NGX =    60 NGY =   56 NGZ =   56
   dimension x,y,z NGXF=   120 NGYF=  112 NGZF=  112
   support grid    NGXF=   120 NGYF=  112 NGZF=  112
   ions per type =              32  32
   NGX,Y,Z   is equivalent  to a cutoff of   8.48,  8.13,  8.13 a.u.
   NGXF,Y,Z  is equivalent  to a cutoff of  16.97, 16.25, 16.25 a.u.

 SYSTEM =  GaAs                                    
 POSCAR =  cubic gallium arsenide                  

 Startparameter for this run:
   NWRITE =      2    write-flag & timer
   PREC   = normal    normal or accurate (medium, high low for compatibility)
   ISTART =      0    job   : 0-new  1-cont  2-samecut
   ICHARG =      2    charge: 1-file 2-atom 10-const
   ISPIN  =      1    spin polarized calculation?
   LNONCOLLINEAR =      F non collinear calculations
   LSORBIT =      F    spin-orbit coupling
   INIWAV =      1    electr: 0-lowe 1-rand  2-diag
   LASPH  =      F    aspherical Exc in radial PAW
 Electronic Relaxation 1
   ENCUT  =  400.0 eV  29.40 Ry    5.42 a.u.  19.17 18.68 18.68*2*pi/ulx,y,z
   ENINI  =  400.0     initial cutoff
   ENAUG  =  462.8 eV  augmentation charge cutoff
   NELM   =     60;   NELMIN=  2; NELMDL= -5     # of ELM steps 
   EDIFF  = 0.1E-05   stopping-criterion for ELM
   LREAL  =      F    real-space projection
   NLSPLINE    = F    spline interpolate recip. space projectors
   LCOMPAT=      F    compatible to vasp.4.4
   GGA_COMPAT  = T    GGA compatible to vasp.4.4-vasp.4.6
   LMAXPAW     = -100 max onsite density
   LMAXMIX     =    2 max onsite mixed and CHGCAR
   VOSKOWN=      0    Vosko Wilk Nusair interpolation
   ROPT   =    0.00000   0.00000
 Ionic relaxation
   EDIFFG = 0.1E-02   stopping-criterion for IOM
   NSW    =    100    number of steps for IOM
   NBLOCK =      1;   KBLOCK =    100    inner block; outer block 
   IBRION =      2    ionic relax: 0-MD 1-quasi-New 2-CG
   NFREE  =      2    steps in history (QN), initial steepest desc. (CG)
   ISIF   =      2    stress and relaxation
   IWAVPR =     11    prediction:  0-non 1-charg 2-wave 3-comb
   ISYM   =      2    0-nonsym 1-usesym 2-fastsym
   LCORR  =      T    Harris-Foulkes like correction to forces

   POTIM  = 0.1000    time-step for ionic-motion
   TEIN   =    0.0    initial temperature
   TEBEG  =    0.0;   TEEND  =   0.0 temperature during run
   SMASS  =  -3.00    Nose mass-parameter (am)
   estimated Nose-frequenzy (Omega)   =  0.10E-29 period in steps = 0.63E+47 mass=  -0.316E-26a.u.
   SCALEE = 1.0000    scale energy and forces
   NPACO  =    256;   APACO  = 10.0  distance and # of slots for P.C.
   PSTRESS=    0.0 pullay stress

  Mass of Ions in am
   POMASS =  74.92 69.72
  Ionic Valenz
   ZVAL   =   5.00  3.00
  Atomic Wigner-Seitz radii
   RWIGS  =  -1.00 -1.00
  virtual crystal weights 
   VCA    =   1.00  1.00
   NELECT =     256.0000    total number of electrons
   NUPDOWN=      -1.0000    fix difference up-down

 DOS related values:
   EMIN   =  10.00;   EMAX   =-10.00  energy-range for DOS
   EFERMI =   0.00;   METHOD = LEGACY      
   ISMEAR =    -5;   SIGMA  =   0.10  broadening in eV -4-tet -1-fermi 0-gaus

 Electronic relaxation 2 (details)
   IALGO  =     38    algorithm
   LDIAG  =      T    sub-space diagonalisation (order eigenvalues)
   LSUBROT=      F    optimize rotation matrix (better conditioning)
   TURBO    =      0    0=normal 1=particle mesh
   IRESTART =      0    0=no restart 2=restart with 2 vectors
   NREBOOT  =      0    no. of reboots
   NMIN     =      0    reboot dimension
   EREF     =   0.00    reference energy to select bands
   IMIX   =      4    mixing-type and parameters
     AMIX     =   0.40;   BMIX     =  1.00
     AMIX_MAG =   1.60;   BMIX_MAG =  1.00
     AMIN     =   0.10
     WC   =   100.;   INIMIX=   1;  MIXPRE=   1;  MAXMIX= -45

 Intra band minimization:
   WEIMIN = 0.0010     energy-eigenvalue tresh-hold
   EBREAK =  0.15E-08  absolut break condition
   DEPER  =   0.30     relativ break condition  

   TIME   =   0.40     timestep for ELM

  volume/ion in A,a.u.               =      24.11       162.68
  Fermi-wavevector in a.u.,A,eV,Ry     =   0.899594  1.699987 11.010785  0.809270
  Thomas-Fermi vector in A             =   2.022447
 
 Write flags
   LWAVE        =      T    write WAVECAR
   LDOWNSAMPLE  =      F    k-point downsampling of WAVECAR
   LCHARG       =      T    write CHGCAR
   LVTOT        =      F    write LOCPOT, total local potential
   LVHAR        =      F    write LOCPOT, Hartree potential only
   WRT_POTENTIAL= false  ! write potential to hdf5 file
   LELF         =      F    write electronic localiz. function (ELF)
   LORBIT       =      0    0 simple, 1 ext, 2 COOP (PROOUT), +10 PAW based schemes


 Dipole corrections
   LMONO      =      F    monopole corrections only (constant potential shift)
   LDIPOL     =      F    correct potential (dipole corrections)
   IDIPOL     =      0    1-x, 2-y, 3-z, 4-all directions 
   EPSILON    =  1.0000000 bulk dielectric constant
   LVACPOTAV  =      F  vacuum potentials using an averaging scheme for the charge density
   VACPOTFLAT =  0.1000000 required flatness to determine vacuum potential
 Exchange correlation treatment:
   GGA     = PE    functional components
   XC_C    = 1    coefficients multiplying the functional components
   LIBXC   =     F    Libxc                    
   VOSKOWN =     0    Vosko Wilk Nusair interpolation
   LHFCALC =     F    Hartree Fock is set to
   LHFONE  =     F    Hartree Fock one center treatment
   AEXX    =    0.0000 exact exchange contribution

 Parameters of functionals:
   PE:
     No parameter
 
 Van der Waals corrections
   IVDW    =     0    specifies the selected vdW correction

 Linear response parameters
   LEPSILON=     T    determine dielectric tensor
   LRPA    =     F    only Hartree local field effects (RPA)
   LNABLA  =     F    use nabla operator in PAW spheres
   LVEL    =     F    velocity operator in full k-point grid
   CSHIFT  =0.1000    complex shift for real part using Kramers Kronig
   OMEGAMAX=  -1.0    maximum frequency
   DEG_THRESHOLD= 0.2000000E-02 threshold for treating states as degnerate
   RTIME   =   -0.100 relaxation time in fs
  (WPLASMAI=    0.000 imaginary part of plasma frequency in eV, 0.658/RTIME)
   DFIELD  = 0.0000000 0.0000000 0.0000000 field for delta impulse in time
 
  Optional k-point grid parameters
   LKPOINTS_OPT  =     F    use optional k-point grid
   KPOINTS_OPT_MODE=     1    mode for optional k-point grid
 
 Orbital magnetization related:
   ORBITALMAG=     F  switch on orbital magnetization
   LCHIMAG   =     F  perturbation theory with respect to B field
   DQ        =  0.001000  dq finite difference perturbation B field
   LLRAUG    =     F  two centre corrections for induced B field
   LBONE     =     F  B-component reconstruction in AE one-centre
   LVGVCALC  =     T  calculate vGv susceptibility
   LVGVAPPL  =     F  apply vGv susceptibility instead of pGv for G=0

 Random number generation:
   RANDOM_GENERATOR = DEFAULT
   PCG_SEED         = not used


--------------------------------------------------------------------------------------------------------


 conjugate gradient relaxation of ions
 charge density and potential will be updated during run
 non-spin polarized calculation
 Variant of blocked Davidson
 Davidson routine will perform the subspace rotation
 perform sub-space diagonalisation
    after iterative eigenvector-optimisation
 modified Broyden-mixing scheme, WC =      100.0
 initial mixing is a Kerker type mixing with AMIX =  0.4000 and BMIX =      1.0000
 Hartree-type preconditioning will be used
 using additional bands           40
 reciprocal scheme for non local part
 use partial core corrections
 calculate Harris-corrections to forces 
   (improved forces if not selfconsistent)
 use gradient corrections 
 use of overlap-Matrix (Vanderbilt PP)
 Fermi weights with tetrahedron method with Bloechl corrections


--------------------------------------------------------------------------------------------------------


  energy-cutoff  :      400.00
  volume of cell :     1542.85
      direct lattice vectors                 reciprocal lattice vectors
    11.757335830  0.000000000  0.000000000     0.085053282  0.000000000  0.000000000
     0.000000000 11.455333675  0.000000000     0.000000000  0.087295580  0.000000000
     0.000000000  0.000000000 11.455333675     0.000000000  0.000000000  0.087295580

  length of vectors
    11.757335830 11.455333675 11.455333675     0.085053282  0.087295580  0.087295580


 
 k-points in units of 2pi/SCALE and weight: Automatic mesh                          
   0.00000000  0.00000000  0.00000000       0.008
   0.01701066  0.00000000  0.00000000       0.016
   0.03402131  0.00000000  0.00000000       0.016
   0.00000000  0.01745912  0.00000000       0.032
   0.01701066  0.01745912  0.00000000       0.064
   0.03402131  0.01745912  0.00000000       0.064
   0.00000000  0.03491823  0.00000000       0.032
   0.01701066  0.03491823  0.00000000       0.064
   0.03402131  0.03491823  0.00000000       0.064
   0.00000000  0.01745912  0.01745912       0.032
   0.01701066  0.01745912  0.01745912       0.064
   0.03402131  0.01745912  0.01745912       0.064
   0.00000000  0.03491823  0.01745912       0.064
   0.01701066  0.03491823  0.01745912       0.128
   0.03402131  0.03491823  0.01745912       0.128
   0.00000000  0.03491823  0.03491823       0.032
   0.01701066  0.03491823  0.03491823       0.064
   0.03402131  0.03491823  0.03491823       0.064
 
 k-points in reciprocal lattice and weights: Automatic mesh                          
   0.00000000  0.00000000  0.00000000       0.008
   0.20000000  0.00000000  0.00000000       0.016
   0.40000000  0.00000000  0.00000000       0.016
   0.00000000  0.20000000  0.00000000       0.032
   0.20000000  0.20000000  0.00000000       0.064
   0.40000000  0.20000000  0.00000000       0.064
   0.00000000  0.40000000  0.00000000       0.032
   0.20000000  0.40000000  0.00000000       0.064
   0.40000000  0.40000000  0.00000000       0.064
   0.00000000  0.20000000  0.20000000       0.032
   0.20000000  0.20000000  0.20000000       0.064
   0.40000000  0.20000000  0.20000000       0.064
   0.00000000  0.40000000  0.20000000       0.064
   0.20000000  0.40000000  0.20000000       0.128
   0.40000000  0.40000000  0.20000000       0.128
   0.00000000  0.40000000  0.40000000       0.032
   0.20000000  0.40000000  0.40000000       0.064
   0.40000000  0.40000000  0.40000000       0.064
 
 position of ions in fractional coordinates (direct lattice) 
   0.00000000  0.00000000  0.00000000
   0.00000000  0.00000000  0.50000000
   0.00000000  0.50000000  0.00000000
   0.00000000  0.50000000  0.50000000
   0.50000000  0.00000000  0.00000000
   0.50000000  0.00000000  0.50000000
   0.50000000  0.50000000  0.00000000
   0.50000000  0.50000000  0.50000000
   0.25000000  0.25000000  0.00000000
   0.25000000  0.25000000  0.50000000
   0.25000000  0.75000000  0.00000000
   0.25000000  0.75000000  0.50000000
   0.75000000  0.25000000  0.00000000
   0.75000000  0.25000000  0.50000000
   0.75000000  0.75000000  0.00000000
   0.75000000  0.75000000  0.50000000
   0.25000000  0.00000000  0.25000000
   0.25000000  0.00000000  0.75000000
   0.25000000  0.50000000  0.25000000
   0.25000000  0.50000000  0.75000000
   0.75000000  0.00000000  0.25000000
   0.75000000  0.00000000  0.75000000
   0.75000000  0.50000000  0.25000000
   0.75000000  0.50000000  0.75000000
   0.00000000  0.25000000  0.25000000
   0.00000000  0.25000000  0.75000000
   0.00000000  0.75000000  0.25000000
   0.00000000  0.75000000  0.75000000
   0.50000000  0.25000000  0.25000000
   0.50000000  0.25000000  0.75000000
   0.50000000  0.75000000  0.25000000
   0.50000000  0.75000000  0.75000000
   0.12500000  0.12500000  0.12500000
   0.12500000  0.12500000  0.62500000
   0.12500000  0.62500000  0.12500000
   0.12500000  0.62500000  0.62500000
   0.62500000  0.12500000  0.12500000
   0.62500000  0.12500000  0.62500000
   0.62500000  0.62500000  0.12500000
   0.62500000  0.62500000  0.62500000
   0.37500000  0.12500000  0.37500000
   0.37500000  0.12500000  0.87500000
   0.37500000  0.62500000  0.37500000
   0.37500000  0.62500000  0.87500000
   0.87500000  0.12500000  0.37500000
   0.87500000  0.12500000  0.87500000
   0.87500000  0.62500000  0.37500000
   0.87500000  0.62500000  0.87500000
   0.37500000  0.37500000  0.12500000
   0.37500000  0.37500000  0.62500000
   0.37500000  0.87500000  0.12500000
   0.37500000  0.87500000  0.62500000
   0.87500000  0.37500000  0.12500000
   0.87500000  0.37500000  0.62500000
   0.87500000  0.87500000  0.12500000
   0.87500000  0.87500000  0.62500000
   0.12500000  0.37500000  0.37500000
   0.12500000  0.37500000  0.87500000
   0.12500000  0.87500000  0.37500000
   0.12500000  0.87500000  0.87500000
   0.62500000  0.37500000  0.37500000
   0.62500000  0.37500000  0.87500000
   0.62500000  0.87500000  0.37500000
   0.62500000  0.87500000  0.87500000
 
 position of ions in cartesian coordinates  (Angst):
   0.00000000  0.00000000  0.00000000
   0.00000000  0.00000000  5.72766684
   0.00000000  5.72766684  0.00000000
   0.00000000  5.72766684  5.72766684
   5.87866792  0.00000000  0.00000000
   5.87866792  0.00000000  5.72766684
   5.87866792  5.72766684  0.00000000
   5.87866792  5.72766684  5.72766684
   2.93933396  2.86383342  0.00000000
   2.93933396  2.86383342  5.72766684
   2.93933396  8.59150026  0.00000000
   2.93933396  8.59150026  5.72766684
   8.81800187  2.86383342  0.00000000
   8.81800187  2.86383342  5.72766684
   8.81800187  8.59150026  0.00000000
   8.81800187  8.59150026  5.72766684
   2.93933396  0.00000000  2.86383342
   2.93933396  0.00000000  8.59150026
   2.93933396  5.72766684  2.86383342
   2.93933396  5.72766684  8.59150026
   8.81800187  0.00000000  2.86383342
   8.81800187  0.00000000  8.59150026
   8.81800187  5.72766684  2.86383342
   8.81800187  5.72766684  8.59150026
   0.00000000  2.86383342  2.86383342
   0.00000000  2.86383342  8.59150026
   0.00000000  8.59150026  2.86383342
   0.00000000  8.59150026  8.59150026
   5.87866792  2.86383342  2.86383342
   5.87866792  2.86383342  8.59150026
   5.87866792  8.59150026  2.86383342
   5.87866792  8.59150026  8.59150026
   1.46966698  1.43191671  1.43191671
   1.46966698  1.43191671  7.15958355
   1.46966698  7.15958355  1.43191671
   1.46966698  7.15958355  7.15958355
   7.34833489  1.43191671  1.43191671
   7.34833489  1.43191671  7.15958355
   7.34833489  7.15958355  1.43191671
   7.34833489  7.15958355  7.15958355
   4.40900094  1.43191671  4.29575013
   4.40900094  1.43191671 10.02341697
   4.40900094  7.15958355  4.29575013
   4.40900094  7.15958355 10.02341697
  10.28766885  1.43191671  4.29575013
  10.28766885  1.43191671 10.02341697
  10.28766885  7.15958355  4.29575013
  10.28766885  7.15958355 10.02341697
   4.40900094  4.29575013  1.43191671
   4.40900094  4.29575013  7.15958355
   4.40900094 10.02341697  1.43191671
   4.40900094 10.02341697  7.15958355
  10.28766885  4.29575013  1.43191671
  10.28766885  4.29575013  7.15958355
  10.28766885 10.02341697  1.43191671
  10.28766885 10.02341697  7.15958355
   1.46966698  4.29575013  4.29575013
   1.46966698  4.29575013 10.02341697
   1.46966698 10.02341697  4.29575013
   1.46966698 10.02341697 10.02341697
   7.34833489  4.29575013  4.29575013
   7.34833489  4.29575013 10.02341697
   7.34833489 10.02341697  4.29575013
   7.34833489 10.02341697 10.02341697
 


--------------------------------------------------------------------------------------------------------


 k-point     1 :   0.0000 0.0000 0.0000  plane waves:   28099
 k-point     2 :   0.2000 0.0000 0.0000  plane waves:   27994
 k-point     3 :   0.4000 0.0000 0.0000  plane waves:   28110
 k-point     4 :   0.0000 0.2000 0.0000  plane waves:   28047
 k-point     5 :   0.2000 0.2000 0.0000  plane waves:   28035
 k-point     6 :   0.4000 0.2000 0.0000  plane waves:   28036
 k-point     7 :   0.0000 0.4000 0.0000  plane waves:   28008
 k-point     8 :   0.2000 0.4000 0.0000  plane waves:   28005
 k-point     9 :   0.4000 0.4000 0.0000  plane waves:   28038
 k-point    10 :   0.0000 0.2000 0.2000  plane waves:   28015
 k-point    11 :   0.2000 0.2000 0.2000  plane waves:   28039
 k-point    12 :   0.4000 0.2000 0.2000  plane waves:   28032
 k-point    13 :   0.0000 0.4000 0.2000  plane waves:   28013
 k-point    14 :   0.2000 0.4000 0.2000  plane waves:   28011
 k-point    15 :   0.4000 0.4000 0.2000  plane waves:   28035
 k-point    16 :   0.0000 0.4000 0.4000  plane waves:   28024
 k-point    17 :   0.2000 0.4000 0.4000  plane waves:   28037
 k-point    18 :   0.4000 0.4000 0.4000  plane waves:   28008

 maximum and minimum number of plane-waves per node :     28110    27994

 maximum number of plane-waves:     28110
 maximum index in each direction: 
   IXMAX=   19   IYMAX=   18   IZMAX=   18
   IXMIN=  -19   IYMIN=  -19   IZMIN=  -19


 serial   3D FFT for wavefunctions
 parallel 3D FFT for charge:
    minimum data exchange during FFTs selected (reduces bandwidth)


 total amount of memory used by VASP MPI-rank0   365073. kBytes
=======================================================================

   base      :      30000. kBytes
   nonl-proj :     134038. kBytes
   fftplans  :       7212. kBytes
   grid      :      18251. kBytes
   one-center:        519. kBytes
   wavefun   :     175053. kBytes
 
     INWAV:  cpu time      0.0000: real time      0.0002
 Broyden mixing: mesh for mixing (old mesh)
   NGX = 39   NGY = 37   NGZ = 37
  (NGX  =120   NGY  =112   NGZ  =112)
  gives a total of  53391 points

 initial charge density was supplied:
 charge density of overlapping atoms calculated
 number of electron     256.0000000 magnetization 
 keeping initial charge density in first step


--------------------------------------------------------------------------------------------------------


 Maximum index for augmentation-charges         1091 (set IRDMAX)


--------------------------------------------------------------------------------------------------------


 First call to EWALD:  gamma=   0.153
 Maximum number of real-space cells 3x 3x 3
 Maximum number of reciprocal cells 3x 3x 3

    FEWALD:  cpu time      0.0024: real time      0.0024


--------------------------------------- Ionic step        1  -------------------------------------------




--------------------------------------- Iteration      1(   1)  ---------------------------------------


    POTLOK:  cpu time      0.1122: real time      0.1152
    SETDIJ:  cpu time      0.0107: real time      0.0108
     EDDAV:  cpu time     74.3127: real time     75.1890
 BZINTS: Fermi energy:    9.665408;  256.000000 electrons
         Band energy: 0.364309E+03;  BLOECHL correction:   -0.018319
       DOS:  cpu time      0.0122: real time      0.0123
    --------------------------------------------
      LOOP:  cpu time     74.4478: real time     75.3272

 eigenvalue-minimisations  :  6048
 total energy-change (2. order) : 0.9263309E+03  (-0.8066476E+04)
 number of electron     256.0000000 magnetization 
 augmentation part      256.0000000 magnetization 

 Free energy of the ion-electron system (eV)
  ---------------------------------------------------
  alpha Z        PSCENC =       567.62817518
  Ewald energy   TEWEN  =     -7176.40609260
  -Hartree energ DENC   =      -606.29129366
  -exchange      EXHF   =         0.00000000
  -V(xc)+E(xc)   XCENC  =      -996.86864335
  PAW double counting   =      6692.16565901    -5247.93935635
  entropy T*S    EENTRO =         0.00000000
  eigenvalues    EBANDS =       364.30934994
  atomic energy  EATOM  =      7329.73306348
  Solvation  Ediel_sol  =         0.00000000
  ---------------------------------------------------
  free energy    TOTEN  =       926.33086164 eV

  energy without entropy =      926.33086164  energy(sigma->0) =      926.33086164


--------------------------------------------------------------------------------------------------------




--------------------------------------- Iteration      1(   2)  ---------------------------------------


     EDDAV:  cpu time     84.4262: real time     85.4231
 BZINTS: Fermi energy:    2.897374;  256.000000 electrons
         Band energy:-0.730175E+03;  BLOECHL correction:    0.000000
       DOS:  cpu time      0.0074: real time      0.0075
    --------------------------------------------
      LOOP:  cpu time     84.4336: real time     85.4306

 eigenvalue-minimisations  :  7176
 total energy-change (2. order) :-0.1094484E+04  (-0.1043157E+04)
 number of electron     256.0000000 magnetization 
 augmentation part      256.0000000 magnetization 

 Free energy of the ion-electron system (eV)
  ---------------------------------------------------
  alpha Z        PSCENC =       567.62817518
  Ewald energy   TEWEN  =     -7176.40609260
  -Hartree energ DENC   =      -606.29129366
  -exchange      EXHF   =         0.00000000
  -V(xc)+E(xc)   XCENC  =      -996.86864335
  PAW double counting   =      6692.16565901    -5247.93935635
  entropy T*S    EENTRO =         0.00000000
  eigenvalues    EBANDS =      -730.17506006
  atomic energy  EATOM  =      7329.73306348
  Solvation  Ediel_sol  =         0.00000000
  ---------------------------------------------------
  free energy    TOTEN  =      -168.15354836 eV

  energy without entropy =     -168.15354836  energy(sigma->0) =     -168.15354836


--------------------------------------------------------------------------------------------------------




--------------------------------------- Iteration      1(   3)  ---------------------------------------


     EDDAV:  cpu time     86.5844: real time     87.6147
 BZINTS: Fermi energy:    1.837975;  256.000000 electrons
         Band energy:-0.829425E+03;  BLOECHL correction:    0.000000
       DOS:  cpu time      0.0074: real time      0.0076
    --------------------------------------------
      LOOP:  cpu time     86.5918: real time     87.6223

 eigenvalue-minimisations  :  7384
 total energy-change (2. order) :-0.9925011E+02  (-0.9784140E+02)
 number of electron     256.0000000 magnetization 
 augmentation part      256.0000000 magnetization 

 Free energy of the ion-electron system (eV)
  ---------------------------------------------------
  alpha Z        PSCENC =       567.62817518
  Ewald energy   TEWEN  =     -7176.40609260
  -Hartree energ DENC   =      -606.29129366
  -exchange      EXHF   =         0.00000000
  -V(xc)+E(xc)   XCENC  =      -996.86864335
  PAW double counting   =      6692.16565901    -5247.93935635
  entropy T*S    EENTRO =         0.00000000
  eigenvalues    EBANDS =      -829.42516524
  atomic energy  EATOM  =      7329.73306348
  Solvation  Ediel_sol  =         0.00000000
  ---------------------------------------------------
  free energy    TOTEN  =      -267.40365353 eV

  energy without entropy =     -267.40365353  energy(sigma->0) =     -267.40365353


--------------------------------------------------------------------------------------------------------




--------------------------------------- Iteration      1(   4)  ---------------------------------------


     EDDAV:  cpu time     86.2381: real time     87.2710
 BZINTS: Fermi energy:    1.777816;  256.000000 electrons
         Band energy:-0.831999E+03;  BLOECHL correction:    0.000000
       DOS:  cpu time      0.0077: real time      0.0077
    --------------------------------------------
      LOOP:  cpu time     86.2458: real time     87.2787

 eigenvalue-minimisations  :  7312
 total energy-change (2. order) :-0.2573798E+01  (-0.2543857E+01)
 number of electron     256.0000000 magnetization 
 augmentation part      256.0000000 magnetization 

 Free energy of the ion-electron system (eV)
  ---------------------------------------------------
  alpha Z        PSCENC =       567.62817518
  Ewald energy   TEWEN  =     -7176.40609260
  -Hartree energ DENC   =      -606.29129366
  -exchange      EXHF   =         0.00000000
  -V(xc)+E(xc)   XCENC  =      -996.86864335
  PAW double counting   =      6692.16565901    -5247.93935635
  entropy T*S    EENTRO =         0.00000000
  eigenvalues    EBANDS =      -831.99896329
  atomic energy  EATOM  =      7329.73306348
  Solvation  Ediel_sol  =         0.00000000
  ---------------------------------------------------
  free energy    TOTEN  =      -269.97745159 eV

  energy without entropy =     -269.97745159  energy(sigma->0) =     -269.97745159


--------------------------------------------------------------------------------------------------------




--------------------------------------- Iteration      1(   5)  ---------------------------------------


     EDDAV:  cpu time     86.5153: real time     87.5574
 BZINTS: Fermi energy:    1.774503;  256.000000 electrons
         Band energy:-0.832073E+03;  BLOECHL correction:    0.000000
       DOS:  cpu time      0.0074: real time      0.0075
    CHARGE:  cpu time      0.7842: real time      0.7887
    MIXING:  cpu time      0.0031: real time      0.0032
    --------------------------------------------
      LOOP:  cpu time     87.3101: real time     88.3568

 eigenvalue-minimisations  :  7384
 total energy-change (2. order) :-0.7412516E-01  (-0.7387817E-01)
 number of electron     255.9999887 magnetization 
 augmentation part      -41.5133814 magnetization 

 Broyden mixing:
  rms(total) = 0.19970E+01    rms(broyden)= 0.19970E+01
  rms(prec ) = 0.22715E+01
  weight for this iteration     100.00

 Free energy of the ion-electron system (eV)
  ---------------------------------------------------
  alpha Z        PSCENC =       567.62817518
  Ewald energy   TEWEN  =     -7176.40609260
  -Hartree energ DENC   =      -606.29129366
  -exchange      EXHF   =         0.00000000
  -V(xc)+E(xc)   XCENC  =      -996.86864335
  PAW double counting   =      6692.16565901    -5247.93935635
  entropy T*S    EENTRO =         0.00000000
  eigenvalues    EBANDS =      -832.07308845
  atomic energy  EATOM  =      7329.73306348
  Solvation  Ediel_sol  =         0.00000000
  ---------------------------------------------------
  free energy    TOTEN  =      -270.05157675 eV

  energy without entropy =     -270.05157675  energy(sigma->0) =     -270.05157675


--------------------------------------------------------------------------------------------------------




--------------------------------------- Iteration      1(   6)  ---------------------------------------


    POTLOK:  cpu time      0.1104: real time      0.1136
    SETDIJ:  cpu time      0.0107: real time      0.0108
     EDDAV:  cpu time     83.0206: real time     84.0621
 BZINTS: Fermi energy:    2.081370;  256.000000 electrons
         Band energy:-0.780701E+03;  BLOECHL correction:    0.000000
       DOS:  cpu time      0.0079: real time      0.0080
    CHARGE:  cpu time      0.7840: real time      0.7886
    MIXING:  cpu time      0.0042: real time      0.0042
    --------------------------------------------
      LOOP:  cpu time     83.9379: real time     84.9873

 eigenvalue-minimisations  :  7032
 total energy-change (2. order) : 0.4162432E+01  (-0.6558488E+00)
 number of electron     255.9999890 magnetization 
 augmentation part      -41.3955481 magnetization 

 Broyden mixing:
  rms(total) = 0.11717E+01    rms(broyden)= 0.11717E+01
  rms(prec ) = 0.12925E+01
  weight for this iteration     100.00

 eigenvalues of (default mixing * dielectric matrix)
  average eigenvalue GAMMA=   2.2550
  2.2550

 Free energy of the ion-electron system (eV)
  ---------------------------------------------------
  alpha Z        PSCENC =       567.62817518
  Ewald energy   TEWEN  =     -7176.40609260
  -Hartree energ DENC   =      -656.83607762
  -exchange      EXHF   =         0.00000000
  -V(xc)+E(xc)   XCENC  =      -988.09362600
  PAW double counting   =      9366.80582656    -7928.01985803
  entropy T*S    EENTRO =         0.00000000
  eigenvalues    EBANDS =      -780.70055528
  atomic energy  EATOM  =      7329.73306348
  Solvation  Ediel_sol  =         0.00000000
  ---------------------------------------------------
  free energy    TOTEN  =      -265.88914431 eV

  energy without entropy =     -265.88914431  energy(sigma->0) =     -265.88914431


--------------------------------------------------------------------------------------------------------




--------------------------------------- Iteration      1(   7)  ---------------------------------------


    POTLOK:  cpu time      0.1102: real time      0.1137
    SETDIJ:  cpu time      0.0107: real time      0.0108
     EDDAV:  cpu time     84.8982: real time     85.9494
 BZINTS: Fermi energy:    2.284007;  256.000000 electrons
         Band energy:-0.732454E+03;  BLOECHL correction:    0.000000
       DOS:  cpu time      0.0080: real time      0.0081
    CHARGE:  cpu time      0.7872: real time      0.7919
    MIXING:  cpu time      0.0045: real time      0.0045
    --------------------------------------------
      LOOP:  cpu time     85.8188: real time     86.8784

 eigenvalue-minimisations  :  7280
 total energy-change (2. order) : 0.8099498E+00  (-0.4286051E+00)
 number of electron     255.9999892 magnetization 
 augmentation part      -41.2757319 magnetization 

 Broyden mixing:
  rms(total) = 0.24441E+00    rms(broyden)= 0.24441E+00
  rms(prec ) = 0.28619E+00
  weight for this iteration     100.00

 eigenvalues of (default mixing * dielectric matrix)
  average eigenvalue GAMMA=   1.9320
  1.6087  2.2553

 Free energy of the ion-electron system (eV)
  ---------------------------------------------------
  alpha Z        PSCENC =       567.62817518
  Ewald energy   TEWEN  =     -7176.40609260
  -Hartree energ DENC   =      -709.32440199
  -exchange      EXHF   =         0.00000000
  -V(xc)+E(xc)   XCENC  =      -977.34855808
  PAW double counting   =     13790.57976691   -12357.48750484
  entropy T*S    EENTRO =         0.00000000
  eigenvalues    EBANDS =      -732.45364254
  atomic energy  EATOM  =      7329.73306348
  Solvation  Ediel_sol  =         0.00000000
  ---------------------------------------------------
  free energy    TOTEN  =      -265.07919448 eV

  energy without entropy =     -265.07919448  energy(sigma->0) =     -265.07919448


--------------------------------------------------------------------------------------------------------




--------------------------------------- Iteration      1(   8)  ---------------------------------------


    POTLOK:  cpu time      0.1108: real time      0.1138
    SETDIJ:  cpu time      0.0107: real time      0.0108
     EDDAV:  cpu time     83.3083: real time     84.3656
 BZINTS: Fermi energy:    2.261932;  256.000000 electrons
         Band energy:-0.734124E+03;  BLOECHL correction:    0.000000
       DOS:  cpu time      0.0077: real time      0.0078
    CHARGE:  cpu time      0.7886: real time      0.7941
    MIXING:  cpu time      0.0039: real time      0.0040
    --------------------------------------------
      LOOP:  cpu time     84.2300: real time     85.2960

 eigenvalue-minimisations  :  7080
 total energy-change (2. order) : 0.4136828E-01  (-0.5041440E-01)
 number of electron     255.9999892 magnetization 
 augmentation part      -41.2838334 magnetization 

 Broyden mixing:
  rms(total) = 0.61486E-01    rms(broyden)= 0.61486E-01
  rms(prec ) = 0.71470E-01
  weight for this iteration     100.00

 eigenvalues of (default mixing * dielectric matrix)
  average eigenvalue GAMMA=   1.9450
  2.6799  1.5775  1.5775

 Free energy of the ion-electron system (eV)
  ---------------------------------------------------
  alpha Z        PSCENC =       567.62817518
  Ewald energy   TEWEN  =     -7176.40609260
  -Hartree energ DENC   =      -708.66887772
  -exchange      EXHF   =         0.00000000
  -V(xc)+E(xc)   XCENC  =      -975.99488555
  PAW double counting   =     14445.53647599   -13012.74210644
  entropy T*S    EENTRO =         0.00000000
  eigenvalues    EBANDS =      -734.12357853
  atomic energy  EATOM  =      7329.73306348
  Solvation  Ediel_sol  =         0.00000000
  ---------------------------------------------------
  free energy    TOTEN  =      -265.03782620 eV

  energy without entropy =     -265.03782620  energy(sigma->0) =     -265.03782620


--------------------------------------------------------------------------------------------------------




--------------------------------------- Iteration      1(   9)  ---------------------------------------


    POTLOK:  cpu time      0.1110: real time      0.1141
    SETDIJ:  cpu time      0.0107: real time      0.0108
     EDDAV:  cpu time     81.9443: real time     82.9603
 BZINTS: Fermi energy:    2.295287;  256.000000 electrons
         Band energy:-0.730187E+03;  BLOECHL correction:    0.000000
       DOS:  cpu time      0.0078: real time      0.0079
    CHARGE:  cpu time      0.7903: real time      0.7955
    MIXING:  cpu time      0.0042: real time      0.0042
    --------------------------------------------
      LOOP:  cpu time     82.8684: real time     83.8928

 eigenvalue-minimisations  :  6920
 total energy-change (2. order) :-0.1182272E-01  (-0.3594864E-02)
 number of electron     255.9999892 magnetization 
 augmentation part      -41.2851015 magnetization 

 Broyden mixing:
  rms(total) = 0.23227E-01    rms(broyden)= 0.23227E-01
  rms(prec ) = 0.24644E-01
  weight for this iteration     100.00

 eigenvalues of (default mixing * dielectric matrix)
  average eigenvalue GAMMA=   1.6589
  2.5815  1.6596  1.6596  0.7349

 Free energy of the ion-electron system (eV)
  ---------------------------------------------------
  alpha Z        PSCENC =       567.62817518
  Ewald energy   TEWEN  =     -7176.40609260
  -Hartree energ DENC   =      -713.32531877
  -exchange      EXHF   =         0.00000000
  -V(xc)+E(xc)   XCENC  =      -975.08460783
  PAW double counting   =     14636.54289997   -13203.95120894
  entropy T*S    EENTRO =         0.00000000
  eigenvalues    EBANDS =      -730.18655941
  atomic energy  EATOM  =      7329.73306348
  Solvation  Ediel_sol  =         0.00000000
  ---------------------------------------------------
  free energy    TOTEN  =      -265.04964892 eV

  energy without entropy =     -265.04964892  energy(sigma->0) =     -265.04964892


--------------------------------------------------------------------------------------------------------




--------------------------------------- Iteration      1(  10)  ---------------------------------------


    POTLOK:  cpu time      0.1112: real time      0.1143
    SETDIJ:  cpu time      0.0107: real time      0.0108
     EDDAV:  cpu time     87.5743: real time     88.6753
 BZINTS: Fermi energy:    2.298933;  256.000000 electrons
         Band energy:-0.730121E+03;  BLOECHL correction:    0.000000
       DOS:  cpu time      0.0079: real time      0.0079
    CHARGE:  cpu time      0.7853: real time      0.7902
    MIXING:  cpu time      0.0035: real time      0.0035
    --------------------------------------------
      LOOP:  cpu time     88.4928: real time     89.6020

 eigenvalue-minimisations  :  7568
 total energy-change (2. order) :-0.1084024E-02  (-0.9810020E-04)
 number of electron     255.9999892 magnetization 
 augmentation part      -41.2854347 magnetization 

 Broyden mixing:
  rms(total) = 0.10925E-01    rms(broyden)= 0.10925E-01
  rms(prec ) = 0.12645E-01
  weight for this iteration     100.00

 eigenvalues of (default mixing * dielectric matrix)
  average eigenvalue GAMMA=   1.9206
  3.1117  2.4994  1.0325  1.4797  1.4797

 Free energy of the ion-electron system (eV)
  ---------------------------------------------------
  alpha Z        PSCENC =       567.62817518
  Ewald energy   TEWEN  =     -7176.40609260
  -Hartree energ DENC   =      -713.42530004
  -exchange      EXHF   =         0.00000000
  -V(xc)+E(xc)   XCENC  =      -975.12671266
  PAW double counting   =     14555.65888392   -13122.99135851
  entropy T*S    EENTRO =         0.00000000
  eigenvalues    EBANDS =      -730.12139171
  atomic energy  EATOM  =      7329.73306348
  Solvation  Ediel_sol  =         0.00000000
  ---------------------------------------------------
  free energy    TOTEN  =      -265.05073295 eV

  energy without entropy =     -265.05073295  energy(sigma->0) =     -265.05073295


--------------------------------------------------------------------------------------------------------




--------------------------------------- Iteration      1(  11)  ---------------------------------------


    POTLOK:  cpu time      0.1105: real time      0.1134
    SETDIJ:  cpu time      0.0107: real time      0.0108
     EDDAV:  cpu time     78.2073: real time     79.1921
 BZINTS: Fermi energy:    2.307004;  256.000000 electrons
         Band energy:-0.729686E+03;  BLOECHL correction:    0.000000
       DOS:  cpu time      0.0074: real time      0.0074
    CHARGE:  cpu time      0.7803: real time      0.7852
    MIXING:  cpu time      0.0039: real time      0.0040
    --------------------------------------------
      LOOP:  cpu time     79.1200: real time     80.1130

 eigenvalue-minimisations  :  6552
 total energy-change (2. order) :-0.1333821E-02  (-0.2231467E-03)
 number of electron     255.9999892 magnetization 
 augmentation part      -41.2826180 magnetization 

 Broyden mixing:
  rms(total) = 0.50062E-02    rms(broyden)= 0.50062E-02
  rms(prec ) = 0.52480E-02
  weight for this iteration     100.00

 eigenvalues of (default mixing * dielectric matrix)
  average eigenvalue GAMMA=   1.7877
  3.0715  2.4858  1.6552  1.6552  0.9490  0.9095

 Free energy of the ion-electron system (eV)
  ---------------------------------------------------
  alpha Z        PSCENC =       567.62817518
  Ewald energy   TEWEN  =     -7176.40609260
  -Hartree energ DENC   =      -713.99941810
  -exchange      EXHF   =         0.00000000
  -V(xc)+E(xc)   XCENC  =      -975.04554708
  PAW double counting   =     14505.36110646   -13072.63724792
  entropy T*S    EENTRO =         0.00000000
  eigenvalues    EBANDS =      -729.68610619
  atomic energy  EATOM  =      7329.73306348
  Solvation  Ediel_sol  =         0.00000000
  ---------------------------------------------------
  free energy    TOTEN  =      -265.05206677 eV

  energy without entropy =     -265.05206677  energy(sigma->0) =     -265.05206677


--------------------------------------------------------------------------------------------------------




--------------------------------------- Iteration      1(  12)  ---------------------------------------


    POTLOK:  cpu time      0.1102: real time      0.1151
    SETDIJ:  cpu time      0.0108: real time      0.0110
     EDDAV:  cpu time     86.4209: real time     87.5024
 BZINTS: Fermi energy:    2.285267;  256.000000 electrons
         Band energy:-0.729642E+03;  BLOECHL correction:    0.000000
       DOS:  cpu time      0.0072: real time      0.0073
    CHARGE:  cpu time      0.7820: real time      0.7869
    MIXING:  cpu time      0.0047: real time      0.0047
    --------------------------------------------
      LOOP:  cpu time     87.3358: real time     88.4273

 eigenvalue-minimisations  :  7400
 total energy-change (2. order) :-0.7640218E-05  (-0.3108259E-05)
 number of electron     255.9999892 magnetization 
 augmentation part      -41.2825609 magnetization 

 Broyden mixing:
  rms(total) = 0.22555E-02    rms(broyden)= 0.22555E-02
  rms(prec ) = 0.25138E-02
  weight for this iteration     100.00

 eigenvalues of (default mixing * dielectric matrix)
  average eigenvalue GAMMA=   1.8845
  3.2484  2.6118  2.6118  1.3394  1.3394  1.0205  1.0205

 Free energy of the ion-electron system (eV)
  ---------------------------------------------------
  alpha Z        PSCENC =       567.62817518
  Ewald energy   TEWEN  =     -7176.40609260
  -Hartree energ DENC   =      -714.03038565
  -exchange      EXHF   =         0.00000000
  -V(xc)+E(xc)   XCENC  =      -975.05119820
  PAW double counting   =     14511.30853400   -13078.59168113
  entropy T*S    EENTRO =         0.00000000
  eigenvalues    EBANDS =      -729.64248949
  atomic energy  EATOM  =      7329.73306348
  Solvation  Ediel_sol  =         0.00000000
  ---------------------------------------------------
  free energy    TOTEN  =      -265.05207441 eV

  energy without entropy =     -265.05207441  energy(sigma->0) =     -265.05207441


--------------------------------------------------------------------------------------------------------




--------------------------------------- Iteration      1(  13)  ---------------------------------------


    POTLOK:  cpu time      0.1108: real time      0.1161
    SETDIJ:  cpu time      0.0109: real time      0.0110
     EDDAV:  cpu time     81.9725: real time     82.9937
 BZINTS: Fermi energy:    2.297479;  256.000000 electrons
         Band energy:-0.729515E+03;  BLOECHL correction:    0.000000
       DOS:  cpu time      0.0076: real time      0.0077
    CHARGE:  cpu time      0.7820: real time      0.7869
    MIXING:  cpu time      0.0040: real time      0.0040
    --------------------------------------------
      LOOP:  cpu time     82.8878: real time     83.9194

 eigenvalue-minimisations  :  6952
 total energy-change (2. order) :-0.9268408E-05  (-0.7945214E-05)
 number of electron     255.9999892 magnetization 
 augmentation part      -41.2818601 magnetization 

 Broyden mixing:
  rms(total) = 0.97087E-03    rms(broyden)= 0.97087E-03
  rms(prec ) = 0.10844E-02
  weight for this iteration     100.00

 eigenvalues of (default mixing * dielectric matrix)
  average eigenvalue GAMMA=   1.8447
  3.3864  2.7779  2.4423  1.6855  1.5663  1.1019  0.8987  0.8987

 Free energy of the ion-electron system (eV)
  ---------------------------------------------------
  alpha Z        PSCENC =       567.62817518
  Ewald energy   TEWEN  =     -7176.40609260
  -Hartree energ DENC   =      -714.15686275
  -exchange      EXHF   =         0.00000000
  -V(xc)+E(xc)   XCENC  =      -975.04615483
  PAW double counting   =     14515.07319393   -13082.36243965
  entropy T*S    EENTRO =         0.00000000
  eigenvalues    EBANDS =      -729.51496643
  atomic energy  EATOM  =      7329.73306348
  Solvation  Ediel_sol  =         0.00000000
  ---------------------------------------------------
  free energy    TOTEN  =      -265.05208368 eV

  energy without entropy =     -265.05208368  energy(sigma->0) =     -265.05208368


--------------------------------------------------------------------------------------------------------




--------------------------------------- Iteration      1(  14)  ---------------------------------------


    POTLOK:  cpu time      0.1100: real time      0.1130
    SETDIJ:  cpu time      0.0107: real time      0.0108
     EDDAV:  cpu time     72.5711: real time     73.4826
 BZINTS: Fermi energy:    2.316599;  256.000000 electrons
         Band energy:-0.729528E+03;  BLOECHL correction:    0.000000
       DOS:  cpu time      0.0074: real time      0.0075
    --------------------------------------------
      LOOP:  cpu time     72.6992: real time     73.6138

 eigenvalue-minimisations  :  5944
 total energy-change (2. order) : 0.5876154E-06  (-0.4152789E-06)
 number of electron     255.9999892 magnetization 
 augmentation part      -41.2818601 magnetization 

 Free energy of the ion-electron system (eV)
  ---------------------------------------------------
  alpha Z        PSCENC =       567.62817518
  Ewald energy   TEWEN  =     -7176.40609260
  -Hartree energ DENC   =      -714.14510146
  -exchange      EXHF   =         0.00000000
  -V(xc)+E(xc)   XCENC  =      -975.04625092
  PAW double counting   =     14515.10805651   -13082.39607099
  entropy T*S    EENTRO =         0.00000000
  eigenvalues    EBANDS =      -729.52786227
  atomic energy  EATOM  =      7329.73306348
  Solvation  Ediel_sol  =         0.00000000
  ---------------------------------------------------
  free energy    TOTEN  =      -265.05208309 eV

  energy without entropy =     -265.05208309  energy(sigma->0) =     -265.05208309


--------------------------------------------------------------------------------------------------------




 average (electrostatic) potential at core
  the test charge radii are     1.0621  1.2767
  (the norm of the test charge is              1.0000)
       1 -51.9479       2 -51.9479       3 -51.9479       4 -51.9479       5 -51.9479
       6 -51.9479       7 -51.9479       8 -51.9479       9 -51.9479      10 -51.9479
      11 -51.9479      12 -51.9479      13 -51.9479      14 -51.9479      15 -51.9479
      16 -51.9479      17 -51.9479      18 -51.9479      19 -51.9479      20 -51.9479
      21 -51.9479      22 -51.9479      23 -51.9479      24 -51.9479      25 -51.9479
      26 -51.9479      27 -51.9479      28 -51.9479      29 -51.9479      30 -51.9479
      31 -51.9479      32 -51.9479      33 -15.1255      34 -15.1255      35 -15.1255
      36 -15.1255      37 -15.1255      38 -15.1255      39 -15.1255      40 -15.1255
      41 -15.1255      42 -15.1255      43 -15.1255      44 -15.1255      45 -15.1255
      46 -15.1255      47 -15.1255      48 -15.1255      49 -15.1255      50 -15.1255
      51 -15.1255      52 -15.1255      53 -15.1255      54 -15.1255      55 -15.1255
      56 -15.1255      57 -15.1255      58 -15.1255      59 -15.1255      60 -15.1255
      61 -15.1255      62 -15.1255      63 -15.1255      64 -15.1255
 
 
 
 E-fermi :   2.3166     XC(G=0):  -8.9218     alpha+bet : -8.0207

 val. band max:        2.2773893545   @ k =   0.0000   0.0000   0.0000
 cond. band min:       2.3170929715   @ k =   0.0000   0.0000   0.0000
 fundamental gap:      0.0397036171
 Fermi energy:         2.3165992479

 k-point     1 :       0.0000    0.0000    0.0000
  band No.  band energies     occupation 
      1     -10.0276      2.00000
      2      -9.2552      2.00000
      3      -9.2552      2.00000
      4      -9.2226      2.00000
      5      -9.2226      2.00000
      6      -9.2226      2.00000
      7      -9.2226      2.00000
      8      -8.6433      2.00000
      9      -8.6433      2.00000
     10      -8.6433      2.00000
     11      -8.6433      2.00000
     12      -8.6433      2.00000
     13      -8.6433      2.00000
     14      -8.6433      2.00000
     15      -8.6433      2.00000
     16      -8.6313      2.00000
     17      -8.6313      2.00000
     18      -8.6313      2.00000
     19      -8.6313      2.00000
     20      -8.5548      2.00000
     21      -8.5548      2.00000
     22      -8.5548      2.00000
     23      -8.5548      2.00000
     24      -7.9700      2.00000
     25      -7.8945      2.00000
     26      -7.8945      2.00000
     27      -7.8945      2.00000
     28      -7.8945      2.00000
     29      -7.8906      2.00000
     30      -7.8906      2.00000
     31      -7.8610      2.00000
     32      -7.8610      2.00000
     33      -4.3613      2.00000
     34      -4.2172      2.00000
     35      -4.2172      2.00000
     36      -4.1125      2.00000
     37      -4.1125      2.00000
     38      -4.1125      2.00000
     39      -4.1125      2.00000
     40      -4.0602      2.00000
     41      -4.0602      2.00000
     42      -4.0402      2.00000
     43      -4.0402      2.00000
     44      -4.0402      2.00000
     45      -4.0402      2.00000
     46      -3.2373      2.00000
     47      -3.2373      2.00000
     48      -3.2373      2.00000
     49      -3.2373      2.00000
     50      -3.1946      2.00000
     51      -3.1946      2.00000
     52      -3.1946      2.00000
     53      -3.1946      2.00000
     54      -3.1946      2.00000
     55      -3.1946      2.00000
     56      -3.1946      2.00000
     57      -3.1946      2.00000
     58      -1.9023      2.00000
     59      -1.9023      2.00000
     60      -1.7766      2.00000
     61      -1.7766      2.00000
     62      -1.7766      2.00000
     63      -1.7766      2.00000
[...]
   15.432198    0.373055    0.404896    0.404896    0.000000    0.000000   -0.000000
   15.451933    0.375146    0.406660    0.406660    0.000000    0.000000   -0.000000
   15.471667    0.377205    0.408377    0.408377    0.000000    0.000000   -0.000000
   15.491401    0.379226    0.410043    0.410043    0.000000    0.000000   -0.000000
   15.511135    0.381205    0.411661    0.411661    0.000000    0.000000   -0.000000
   15.530870    0.383141    0.413241    0.413241    0.000000    0.000000   -0.000000
   15.550604    0.385033    0.414797    0.414797    0.000000    0.000000   -0.000000
   15.570338    0.386890    0.416346    0.416346    0.000000    0.000000   -0.000000
   15.590072    0.388722    0.417898    0.417898    0.000000    0.000000   -0.000000
   15.609807    0.390535    0.419460    0.419460    0.000000    0.000000   -0.000000
   15.629541    0.392335    0.421036    0.421036    0.000000    0.000000   -0.000000
   15.649275    0.394122    0.422628    0.422628    0.000000    0.000000   -0.000000
   15.669010    0.395897    0.424236    0.424236    0.000000    0.000000   -0.000000
   15.688744    0.397662    0.425860    0.425860    0.000000    0.000000   -0.000000
   15.708478    0.399418    0.427500    0.427500    0.000000    0.000000   -0.000000
   15.728212    0.401166    0.429154    0.429154    0.000000    0.000000   -0.000000
   15.747947    0.402907    0.430818    0.430818    0.000000    0.000000   -0.000000
   15.767681    0.404641    0.432490    0.432490    0.000000    0.000000   -0.000000
   15.787415    0.406370    0.434166    0.434166    0.000000    0.000000   -0.000000
   15.807149    0.408092    0.435843    0.435843    0.000000    0.000000   -0.000000
   15.826884    0.409808    0.437518    0.437518    0.000000    0.000000   -0.000000
   15.846618    0.411518    0.439189    0.439189    0.000000    0.000000   -0.000000
   15.866352    0.413222    0.440857    0.440857    0.000000    0.000000   -0.000000
   15.886087    0.414922    0.442525    0.442525    0.000000    0.000000   -0.000000
   15.905821    0.416620    0.444200    0.444200    0.000000    0.000000   -0.000000
   15.925555    0.418318    0.445887    0.445887    0.000000    0.000000   -0.000000
   15.945289    0.420012    0.447583    0.447583    0.000000    0.000000   -0.000000
   15.965024    0.421702    0.449285    0.449285    0.000000    0.000000   -0.000000
   15.984758    0.423386    0.450987    0.450987    0.000000    0.000000   -0.000000
   16.004492    0.425064    0.452686    0.452686    0.000000    0.000000   -0.000000
   16.024226    0.426738    0.454380    0.454380    0.000000    0.000000   -0.000000
   16.043961    0.428411    0.456070    0.456070    0.000000    0.000000   -0.000000
   16.063695    0.430087    0.457752    0.457752    0.000000    0.000000   -0.000000
   16.083429    0.431766    0.459428    0.459428    0.000000    0.000000   -0.000000
   16.103163    0.433447    0.461094    0.461094    0.000000    0.000000   -0.000000
   16.122898    0.435127    0.462749    0.462749    0.000000    0.000000   -0.000000
   16.142632    0.436801    0.464394    0.464394    0.000000    0.000000   -0.000000
   16.162366    0.438467    0.466026    0.466026    0.000000    0.000000   -0.000000
   16.182101    0.440125    0.467645    0.467645    0.000000    0.000000   -0.000000
   16.201835    0.441772    0.469253    0.469253    0.000000    0.000000   -0.000000
   16.221569    0.443409    0.470848    0.470848    0.000000    0.000000   -0.000000
   16.241303    0.445035    0.472431    0.472431    0.000000    0.000000   -0.000000
   16.261038    0.446651    0.474003    0.474003    0.000000    0.000000   -0.000000
   16.280772    0.448256    0.475563    0.475563    0.000000    0.000000   -0.000000
   16.300506    0.449851    0.477112    0.477112    0.000000    0.000000   -0.000000
   16.320240    0.451436    0.478651    0.478651    0.000000    0.000000   -0.000000
   16.339975    0.453011    0.480178    0.480178    0.000000    0.000000   -0.000000
   16.359709    0.454576    0.481696    0.481696    0.000000    0.000000   -0.000000
   16.379443    0.456131    0.483203    0.483203    0.000000    0.000000   -0.000000
   16.399178    0.457677    0.484701    0.484701    0.000000    0.000000   -0.000000
   16.418912    0.459213    0.486188    0.486188    0.000000    0.000000   -0.000000
   16.438646    0.460741    0.487666    0.487666    0.000000    0.000000   -0.000000
   16.458380    0.462259    0.489135    0.489135    0.000000    0.000000   -0.000000
   16.478115    0.463768    0.490594    0.490594    0.000000    0.000000   -0.000000
   16.497849    0.465268    0.492045    0.492045    0.000000    0.000000   -0.000000
   16.517583    0.466760    0.493486    0.493486    0.000000    0.000000   -0.000000
   16.537317    0.468243    0.494919    0.494919    0.000000    0.000000   -0.000000
   16.557052    0.469718    0.496343    0.496343    0.000000    0.000000   -0.000000
   16.576786    0.471185    0.497759    0.497759    0.000000    0.000000   -0.000000
   16.596520    0.472644    0.499166    0.499166    0.000000    0.000000   -0.000000
   16.616254    0.474095    0.500566    0.500566    0.000000    0.000000   -0.000000
   16.635989    0.475538    0.501958    0.501958    0.000000    0.000000   -0.000000
   16.655723    0.476973    0.503342    0.503342    0.000000    0.000000   -0.000000
   16.675457    0.478401    0.504718    0.504718    0.000000    0.000000   -0.000000
   16.695192    0.479822    0.506087    0.506087    0.000000    0.000000   -0.000000
   16.714926    0.481235    0.507448    0.507448    0.000000    0.000000   -0.000000
   16.734660    0.482641    0.508802    0.508802    0.000000    0.000000   -0.000000
   16.754394    0.484039    0.510149    0.510149    0.000000    0.000000   -0.000000
   16.774129    0.485431    0.511489    0.511489    0.000000    0.000000   -0.000000
   16.793863    0.486816    0.512822    0.512822    0.000000    0.000000   -0.000000
   16.813597    0.488194    0.514148    0.514148    0.000000    0.000000   -0.000000
   16.833331    0.489565    0.515467    0.515467    0.000000    0.000000   -0.000000
   16.853066    0.490929    0.516779    0.516779    0.000000    0.000000   -0.000000
   16.872800    0.492287    0.518085    0.518085    0.000000    0.000000   -0.000000
   16.892534    0.493638    0.519384    0.519384    0.000000    0.000000   -0.000000
   16.912269    0.494983    0.520677    0.520677    0.000000    0.000000   -0.000000
   16.932003    0.496321    0.521963    0.521963    0.000000    0.000000   -0.000000
   16.951737    0.497653    0.523243    0.523243    0.000000    0.000000   -0.000000
   16.971471    0.498979    0.524517    0.524517    0.000000    0.000000   -0.000000
   16.991206    0.500299    0.525784    0.525784    0.000000    0.000000   -0.000000
   17.010940    0.501612    0.527045    0.527045    0.000000    0.000000   -0.000000
   17.030674    0.502919    0.528301    0.528301    0.000000    0.000000   -0.000000
   17.050408    0.504220    0.529550    0.529550    0.000000    0.000000   -0.000000
   17.070143    0.505515    0.530793    0.530793    0.000000    0.000000   -0.000000
   17.089877    0.506804    0.532031    0.532031    0.000000    0.000000   -0.000000
   17.109611    0.508088    0.533262    0.533262    0.000000    0.000000   -0.000000
   17.129345    0.509365    0.534488    0.534488    0.000000    0.000000   -0.000000
   17.149080    0.510637    0.535708    0.535708    0.000000    0.000000   -0.000000
   17.168814    0.511903    0.536923    0.536923    0.000000    0.000000   -0.000000
   17.188548    0.513163    0.538131    0.538131    0.000000    0.000000   -0.000000
   17.208283    0.514418    0.539335    0.539335    0.000000    0.000000   -0.000000
   17.228017    0.515667    0.540532    0.540532    0.000000    0.000000   -0.000000
   17.247751    0.516911    0.541725    0.541725    0.000000    0.000000   -0.000000
   17.267485    0.518149    0.542912    0.542912    0.000000    0.000000   -0.000000
   17.287220    0.519382    0.544093    0.544093    0.000000    0.000000   -0.000000
   17.306954    0.520609    0.545269    0.545269    0.000000    0.000000   -0.000000
   17.326688    0.521831    0.546440    0.546440    0.000000    0.000000   -0.000000
   17.346422    0.523048    0.547606    0.547606    0.000000    0.000000   -0.000000
   17.366157    0.524259    0.548767    0.548767    0.000000    0.000000   -0.000000
   17.385891    0.525465    0.549922    0.549922    0.000000    0.000000   -0.000000
   17.405625    0.526666    0.551073    0.551073    0.000000    0.000000   -0.000000
   17.425360    0.527862    0.552218    0.552218    0.000000    0.000000   -0.000000
   17.445094    0.529053    0.553358    0.553358    0.000000    0.000000   -0.000000
   17.464828    0.530239    0.554493    0.554493    0.000000    0.000000   -0.000000
   17.484562    0.531419    0.555624    0.555624    0.000000    0.000000   -0.000000
   17.504297    0.532595    0.556749    0.556749    0.000000    0.000000   -0.000000
   17.524031    0.533766    0.557870    0.557870    0.000000    0.000000   -0.000000
   17.543765    0.534931    0.558986    0.558986    0.000000    0.000000   -0.000000
   17.563499    0.536092    0.560097    0.560097    0.000000    0.000000   -0.000000
   17.583234    0.537248    0.561203    0.561203    0.000000    0.000000   -0.000000
   17.602968    0.538400    0.562304    0.562304    0.000000    0.000000   -0.000000
   17.622702    0.539546    0.563401    0.563401    0.000000    0.000000   -0.000000
   17.642436    0.540688    0.564494    0.564494    0.000000    0.000000   -0.000000
   17.662171    0.541825    0.565581    0.565581    0.000000    0.000000   -0.000000
   17.681905    0.542957    0.566664    0.566664    0.000000    0.000000   -0.000000
   17.701639    0.544085    0.567743    0.567743    0.000000    0.000000   -0.000000
   17.721374    0.545208    0.568817    0.568817    0.000000    0.000000   -0.000000
   17.741108    0.546326    0.569886    0.569886    0.000000    0.000000   -0.000000
   17.760842    0.547440    0.570952    0.570952    0.000000    0.000000   -0.000000
   17.780576    0.548550    0.572012    0.572012    0.000000    0.000000   -0.000000
   17.800311    0.549655    0.573069    0.573069    0.000000    0.000000   -0.000000
   17.820045    0.550755    0.574121    0.574121    0.000000    0.000000   -0.000000
   17.839779    0.551851    0.575168    0.575168    0.000000    0.000000   -0.000000
   17.859513    0.552943    0.576212    0.576212    0.000000    0.000000   -0.000000
   17.879248    0.554030    0.577251    0.577251    0.000000    0.000000   -0.000000
   17.898982    0.555113    0.578286    0.578286    0.000000    0.000000   -0.000000
   17.918716    0.556192    0.579316    0.579316    0.000000    0.000000   -0.000000
   17.938451    0.557266    0.580343    0.580343    0.000000    0.000000   -0.000000
   17.958185    0.558336    0.581365    0.581365    0.000000    0.000000   -0.000000
   17.977919    0.559402    0.582384    0.582384    0.000000    0.000000   -0.000000
   17.997653    0.560464    0.583398    0.583398    0.000000    0.000000   -0.000000
   18.017388    0.561521    0.584408    0.584408    0.000000    0.000000   -0.000000
   18.037122    0.562575    0.585414    0.585414    0.000000    0.000000   -0.000000
   18.056856    0.563624    0.586416    0.586416    0.000000    0.000000   -0.000000
   18.076590    0.564669    0.587414    0.587414    0.000000    0.000000   -0.000000
   18.096325    0.565710    0.588408    0.588408    0.000000    0.000000   -0.000000
   18.116059    0.566747    0.589398    0.589398    0.000000    0.000000   -0.000000
   18.135793    0.567780    0.590385    0.590385    0.000000    0.000000   -0.000000
   18.155527    0.568809    0.591367    0.591367    0.000000    0.000000   -0.000000
   18.175262    0.569834    0.592346    0.592346    0.000000    0.000000   -0.000000
   18.194996    0.570855    0.593320    0.593320    0.000000    0.000000   -0.000000
   18.214730    0.571872    0.594291    0.594291    0.000000    0.000000   -0.000000
   18.234465    0.572885    0.595258    0.595258    0.000000    0.000000   -0.000000
   18.254199    0.573895    0.596222    0.596222    0.000000    0.000000   -0.000000
   18.273933    0.574900    0.597181    0.597181    0.000000    0.000000   -0.000000
   18.293667    0.575902    0.598137    0.598137    0.000000    0.000000   -0.000000
   18.313402    0.576900    0.599089    0.599089    0.000000    0.000000   -0.000000
   18.333136    0.577894    0.600038    0.600038    0.000000    0.000000   -0.000000
   18.352870    0.578884    0.600983    0.600983    0.000000    0.000000   -0.000000
   18.372604    0.579871    0.601924    0.601924    0.000000    0.000000   -0.000000
   18.392339    0.580853    0.602862    0.602862    0.000000    0.000000   -0.000000
   18.412073    0.581833    0.603796    0.603796    0.000000    0.000000   -0.000000
   18.431807    0.582808    0.604726    0.604726    0.000000    0.000000   -0.000000
   18.451541    0.583780    0.605653    0.605653    0.000000    0.000000   -0.000000
   18.471276    0.584748    0.606577    0.606577    0.000000    0.000000   -0.000000
   18.491010    0.585713    0.607497    0.607497    0.000000    0.000000   -0.000000
   18.510744    0.586674    0.608413    0.608413    0.000000    0.000000   -0.000000
   18.530479    0.587631    0.609326    0.609326    0.000000    0.000000   -0.000000
   18.550213    0.588585    0.610236    0.610236    0.000000    0.000000   -0.000000
   18.569947    0.589535    0.611142    0.611142    0.000000    0.000000   -0.000000
   18.589681    0.590482    0.612045    0.612045    0.000000    0.000000   -0.000000
   18.609416    0.591425    0.612944    0.612944    0.000000    0.000000   -0.000000
   18.629150    0.592365    0.613840    0.613840    0.000000    0.000000   -0.000000
   18.648884    0.593301    0.614733    0.614733    0.000000    0.000000   -0.000000
   18.668618    0.594234    0.615622    0.615622    0.000000    0.000000   -0.000000
   18.688353    0.595164    0.616509    0.616509    0.000000    0.000000   -0.000000
   18.708087    0.596090    0.617391    0.617391    0.000000    0.000000   -0.000000
   18.727821    0.597013    0.618271    0.618271    0.000000    0.000000   -0.000000
   18.747556    0.597932    0.619147    0.619147    0.000000    0.000000   -0.000000
   18.767290    0.598848    0.620020    0.620020    0.000000    0.000000   -0.000000
   18.787024    0.599761    0.620890    0.620890    0.000000    0.000000   -0.000000
   18.806758    0.600670    0.621757    0.621757    0.000000    0.000000   -0.000000
   18.826493    0.601576    0.622620    0.622620    0.000000    0.000000   -0.000000
   18.846227    0.602479    0.623481    0.623481    0.000000    0.000000   -0.000000
   18.865961    0.603379    0.624338    0.624338    0.000000    0.000000   -0.000000
   18.885695    0.604275    0.625192    0.625192    0.000000    0.000000   -0.000000
   18.905430    0.605168    0.626043    0.626043    0.000000    0.000000   -0.000000
   18.925164    0.606058    0.626891    0.626891    0.000000    0.000000   -0.000000
   18.944898    0.606945    0.627736    0.627736    0.000000    0.000000   -0.000000
   18.964632    0.607828    0.628577    0.628577    0.000000    0.000000   -0.000000
   18.984367    0.608709    0.629416    0.629416    0.000000    0.000000   -0.000000
   19.004101    0.609586    0.630252    0.630252    0.000000    0.000000   -0.000000
   19.023835    0.610460    0.631085    0.631085    0.000000    0.000000   -0.000000
   19.043570    0.611331    0.631914    0.631914    0.000000    0.000000   -0.000000
   19.063304    0.612199    0.632741    0.632741    0.000000    0.000000   -0.000000
   19.083038    0.613064    0.633565    0.633565    0.000000    0.000000   -0.000000
   19.102772    0.613926    0.634386    0.634386    0.000000    0.000000   -0.000000
   19.122507    0.614785    0.635204    0.635204    0.000000    0.000000   -0.000000
   19.142241    0.615641    0.636019    0.636019    0.000000    0.000000   -0.000000
   19.161975    0.616494    0.636831    0.636831    0.000000    0.000000   -0.000000
   19.181709    0.617344    0.637640    0.637640    0.000000    0.000000   -0.000000
   19.201444    0.618190    0.638446    0.638446    0.000000    0.000000   -0.000000
   19.221178    0.619034    0.639250    0.639250    0.000000    0.000000   -0.000000
   19.240912    0.619875    0.640051    0.640051    0.000000    0.000000   -0.000000
   19.260647    0.620713    0.640848    0.640848    0.000000    0.000000   -0.000000
   19.280381    0.621548    0.641644    0.641644    0.000000    0.000000   -0.000000
   19.300115    0.622381    0.642436    0.642436    0.000000    0.000000   -0.000000
   19.319849    0.623210    0.643225    0.643225    0.000000    0.000000   -0.000000
   19.339584    0.624037    0.644012    0.644012    0.000000    0.000000   -0.000000
   19.359318    0.624860    0.644796    0.644796    0.000000    0.000000   -0.000000
   19.379052    0.625681    0.645577    0.645577    0.000000    0.000000   -0.000000
   19.398786    0.626499    0.646356    0.646356    0.000000    0.000000   -0.000000
   19.418521    0.627314    0.647132    0.647132    0.000000    0.000000   -0.000000
   19.438255    0.628126    0.647905    0.647905    0.000000    0.000000   -0.000000
   19.457989    0.628936    0.648675    0.648675    0.000000    0.000000   -0.000000
   19.477723    0.629743    0.649443    0.649443    0.000000    0.000000   -0.000000
   19.497458    0.630547    0.650208    0.650208    0.000000    0.000000   -0.000000
   19.517192    0.631348    0.650971    0.650971    0.000000    0.000000   -0.000000
   19.536926    0.632147    0.651731    0.651731    0.000000    0.000000   -0.000000
   19.556661    0.632942    0.652488    0.652488    0.000000    0.000000   -0.000000
   19.576395    0.633736    0.653243    0.653243    0.000000    0.000000   -0.000000
   19.596129    0.634526    0.653995    0.653995    0.000000    0.000000   -0.000000
   19.615863    0.635314    0.654745    0.654745    0.000000    0.000000   -0.000000
   19.635598    0.636099    0.655492    0.655492    0.000000    0.000000   -0.000000
   19.655332    0.636881    0.656236    0.656236    0.000000    0.000000   -0.000000
   19.675066    0.637661    0.656978    0.656978    0.000000    0.000000   -0.000000
   19.694800    0.638438    0.657717    0.657717    0.000000    0.000000   -0.000000
   19.714535    0.639213    0.658454    0.658454    0.000000    0.000000   -0.000000
 
 The outermost node in the dielectric function lies at epsilon=  16.2


--------------------------------------------------------------------------------------------------------


    OPTICS:  cpu time     35.1898: real time     35.7201
    4ORBIT:  cpu time      0.0000: real time      0.0000
 BZINTS: Fermi energy:    2.310195;  256.000000 electrons
         Band energy:-0.729541E+03;  BLOECHL correction:    0.000000

 total amount of memory used by VASP MPI-rank0   365073. kBytes
=======================================================================

   base      :      30000. kBytes
   nonl-proj :     134038. kBytes
   fftplans  :       7212. kBytes
   grid      :      18251. kBytes
   one-center:        519. kBytes
   wavefun   :     175053. kBytes
 
  
  
 General timing and accounting informations for this job:
 ========================================================
  
                  Total CPU time used (sec):    11846.830
                            User time (sec):    11494.303
                          System time (sec):      352.527
                         Elapsed time (sec):    11987.565
  
                   Maximum memory used (kb):     1905840.
                   Average memory used (kb):          N/A
  
                          Minor page faults:       182092
                          Major page faults:          211
                 Voluntary context switches:        23292
