<?xml version="1.0" encoding="ISO-8859-1"?>
<modeling>
 <generator>
  <i name="program" type="string">vasp </i>
  <i name="version" type="string">6.4.3  </i>
  <i name="subversion" type="string">19Mar24 (build Aug 29 2024 15:27:20) complex                          parallel </i>
  <i name="platform" type="string">LinuxIFC </i>
  <i name="date" type="string">2025 03 24 </i>
  <i name="time" type="string">15:30:10 </i>
 </generator>
 <incar>
  <i type="string" name="SYSTEM">GaAs</i>
  <i type="string" name="PREC">Normal</i>
  <i type="int" name="IBRION">     2</i>
  <i type="int" name="NFREE">     2</i>
  <i type="int" name="NSW">   100</i>
  <i type="int" name="ISIF">     2</i>
  <i name="ENCUT">    400.00000000</i>
  <i name="POTIM">      0.10000000</i>
  <i type="int" name="ISMEAR">    -5</i>
  <i name="SIGMA">      0.10000000</i>
  <i type="logical" name="LOPTICS"> T  </i>
  <i type="logical" name="LEPSILON"> T  </i>
 </incar>
 <primitive_cell>
  <structure name="primitive_cell" >
   <crystal>
    <varray name="basis" >
     <v>       2.93933396       0.00000000       2.86383342 </v>
     <v>       2.93933396       0.00000000      -2.86383342 </v>
     <v>      -2.93933396       2.86383342       0.00000000 </v>
    </varray>
    <i name="volume">     48.21414093 </i>
    <varray name="rec_basis" >
     <v>       0.17010656       0.17459116       0.17459116 </v>
     <v>       0.17010656       0.17459116      -0.17459116 </v>
     <v>       0.00000000       0.34918232       0.00000000 </v>
    </varray>
   </crystal>
   <varray name="positions" >
    <v>       0.00000000       0.00000000       0.00000000 </v>
    <v>       0.75000000       0.25000000       0.50000000 </v>
   </varray>
  </structure>
  <varray name="primitive_index" >
   <v type="int" >        1 </v>
   <v type="int" >       33 </v>
  </varray>
 </primitive_cell>
 <kpoints>
  <generation param="Gamma">
   <v type="int" name="divisions">       5        5        5 </v>
   <v name="usershift">      0.00000000       0.00000000       0.00000000 </v>
   <v name="genvec1">      0.20000000       0.00000000       0.00000000 </v>
   <v name="genvec2">      0.00000000       0.20000000       0.00000000 </v>
   <v name="genvec3">      0.00000000       0.00000000       0.20000000 </v>
   <v name="shift">      0.00000000       0.00000000       0.00000000 </v>
  </generation>
  <varray name="kpointlist" >
   <v>       0.00000000       0.00000000       0.00000000 </v>
   <v>       0.20000000       0.00000000       0.00000000 </v>
   <v>       0.40000000       0.00000000       0.00000000 </v>
   <v>       0.00000000       0.20000000       0.00000000 </v>
   <v>       0.20000000       0.20000000       0.00000000 </v>
   <v>       0.40000000       0.20000000       0.00000000 </v>
   <v>       0.00000000       0.40000000       0.00000000 </v>
   <v>       0.20000000       0.40000000       0.00000000 </v>
   <v>       0.40000000       0.40000000       0.00000000 </v>
   <v>       0.00000000       0.20000000       0.20000000 </v>
   <v>       0.20000000       0.20000000       0.20000000 </v>
   <v>       0.40000000       0.20000000       0.20000000 </v>
   <v>       0.00000000       0.40000000       0.20000000 </v>
   <v>       0.20000000       0.40000000       0.20000000 </v>
   <v>       0.40000000       0.40000000       0.20000000 </v>
   <v>       0.00000000       0.40000000       0.40000000 </v>
   <v>       0.20000000       0.40000000       0.40000000 </v>
   <v>       0.40000000       0.40000000       0.40000000 </v>
  </varray>
  <varray name="weights" >
   <v>       0.00800000 </v>
   <v>       0.01600000 </v>
   <v>       0.01600000 </v>
   <v>       0.03200000 </v>
   <v>       0.06400000 </v>
   <v>       0.06400000 </v>
   <v>       0.03200000 </v>
   <v>       0.06400000 </v>
   <v>       0.06400000 </v>
   <v>       0.03200000 </v>
   <v>       0.06400000 </v>
   <v>       0.06400000 </v>
   <v>       0.06400000 </v>
   <v>       0.12800000 </v>
   <v>       0.12800000 </v>
   <v>       0.03200000 </v>
   <v>       0.06400000 </v>
   <v>       0.06400000 </v>
  </varray>
  <varray name="tetrahedronlist"  type="int" >
   <v type="int" >        4       11       12       14       15 </v>
   <v type="int" >        4       11       14       14       15 </v>
   <v type="int" >        8       14       14       15       17 </v>
   <v type="int" >        4       12       14       15       15 </v>
   <v type="int" >        8       14       15       15       18 </v>
   <v type="int" >        4       14       15       17       18 </v>
   <v type="int" >        2       12       12       15       15 </v>
   <v type="int" >        4       12       15       15       15 </v>
   <v type="int" >       12       15       15       15       18 </v>
   <v type="int" >       10       15       15       18       18 </v>
   <v type="int" >        4       10       11       13       14 </v>
   <v type="int" >        4       11       13       14       14 </v>
   <v type="int" >        8       13       14       14       17 </v>
   <v type="int" >        4       10       13       13       14 </v>
   <v type="int" >        8       13       13       14       16 </v>
   <v type="int" >        4       13       14       16       17 </v>
   <v type="int" >        4       14       15       15       17 </v>
   <v type="int" >        4       14       15       17       17 </v>
   <v type="int" >        4       15       15       17       18 </v>
   <v type="int" >        4       15       17       18       18 </v>
   <v type="int" >        4       15       17       17       18 </v>
   <v type="int" >        8       15       18       18       18 </v>
   <v type="int" >        4       14       14       15       18 </v>
   <v type="int" >        4       14       15       18       18 </v>
   <v type="int" >        4       14       14       17       18 </v>
   <v type="int" >        4       14       17       17       18 </v>
   <v type="int" >        4       14       17       18       18 </v>
   <v type="int" >        4       13       13       14       17 </v>
   <v type="int" >        4       13       14       17       17 </v>
   <v type="int" >        4       13       13       16       17 </v>
   <v type="int" >        4       13       16       16       17 </v>
   <v type="int" >        4       13       16       17       17 </v>
   <v type="int" >        4       13       14       14       16 </v>
   <v type="int" >        4       13       14       16       16 </v>
   <v type="int" >        4       14       14       16       17 </v>
   <v type="int" >        4       14       16       17       17 </v>
   <v type="int" >        4       14       16       16       17 </v>
   <v type="int" >        4       12       14       15       17 </v>
   <v type="int" >        4       11       12       14       17 </v>
   <v type="int" >        4       12       15       17       18 </v>
   <v type="int" >        4       12       15       15       18 </v>
   <v type="int" >        4       12       12       15       18 </v>
   <v type="int" >        4       12       15       18       18 </v>
   <v type="int" >        4       11       14       15       18 </v>
   <v type="int" >        4       11       12       15       18 </v>
   <v type="int" >        4       11       14       17       18 </v>
   <v type="int" >        4       10       13       14       17 </v>
   <v type="int" >        4       10       11       14       17 </v>
   <v type="int" >        4       10       13       16       17 </v>
   <v type="int" >        4       11       13       14       16 </v>
   <v type="int" >        4       10       11       13       16 </v>
   <v type="int" >        4       11       14       16       17 </v>
   <v type="int" >        4        6       11       12       14 </v>
   <v type="int" >        4        5        6       11       14 </v>
   <v type="int" >        4        5        6        8       14 </v>
   <v type="int" >        4        6       12       14       15 </v>
   <v type="int" >        4        6        9       14       15 </v>
   <v type="int" >        4        6        8        9       14 </v>
   <v type="int" >        4        6       12       12       15 </v>
   <v type="int" >        4        6        6       12       15 </v>
   <v type="int" >        4        6        6        9       15 </v>
   <v type="int" >        4        6       12       15       15 </v>
   <v type="int" >        4        6        9       15       15 </v>
   <v type="int" >        4        6        9        9       15 </v>
   <v type="int" >        4        5       11       12       15 </v>
   <v type="int" >        4        5        6       12       15 </v>
   <v type="int" >        4        5        6        9       15 </v>
   <v type="int" >        4        5       11       14       15 </v>
   <v type="int" >        4        5        8       14       15 </v>
   <v type="int" >        4        5        8        9       15 </v>
   <v type="int" >        4        4       10       11       14 </v>
   <v type="int" >        4        4        5       11       14 </v>
   <v type="int" >        4        4        5        8       14 </v>
   <v type="int" >        4        4       10       13       14 </v>
   <v type="int" >        4        4        7       13       14 </v>
   <v type="int" >        4        4        7        8       14 </v>
   <v type="int" >        4        5       10       11       13 </v>
   <v type="int" >        4        4        5       10       13 </v>
   <v type="int" >        4        4        5        7       13 </v>
   <v type="int" >        4        5       11       13       14 </v>
   <v type="int" >        4        5        8       13       14 </v>
   <v type="int" >        4        5        7        8       13 </v>
   <v type="int" >        4        5        6        8       12 </v>
   <v type="int" >        4        5        8       11       12 </v>
   <v type="int" >        4        8       11       12       14 </v>
   <v type="int" >        4        6        8        9       12 </v>
   <v type="int" >        4        8        9       12       15 </v>
   <v type="int" >        4        8       12       14       15 </v>
   <v type="int" >        4        6        6        9       12 </v>
   <v type="int" >        4        6        9       12       12 </v>
   <v type="int" >        4        9       12       12       15 </v>
   <v type="int" >        4        6        9        9       12 </v>
   <v type="int" >        4        9        9       12       15 </v>
   <v type="int" >        4        9       12       15       15 </v>
   <v type="int" >        4        5        6        9       11 </v>
   <v type="int" >        4        6        9       11       12 </v>
   <v type="int" >        4        9       11       12       15 </v>
   <v type="int" >        4        5        8        9       11 </v>
   <v type="int" >        4        8        9       11       14 </v>
   <v type="int" >        4        9       11       14       15 </v>
   <v type="int" >        4        4        5        8       10 </v>
   <v type="int" >        4        5        8       10       11 </v>
   <v type="int" >        4        8       10       11       14 </v>
   <v type="int" >        4        4        7        8       10 </v>
   <v type="int" >        4        7        8       10       13 </v>
   <v type="int" >        4        8       10       13       14 </v>
   <v type="int" >        4        4        5        7       11 </v>
   <v type="int" >        4        4        7       10       11 </v>
   <v type="int" >        4        7       10       11       13 </v>
   <v type="int" >        4        5        7        8       11 </v>
   <v type="int" >        4        7        8       11       14 </v>
   <v type="int" >        4        7       11       13       14 </v>
   <v type="int" >        4       17       17       18       18 </v>
   <v type="int" >        4       17       17       17       18 </v>
   <v type="int" >        4       17       18       18       18 </v>
   <v type="int" >        6       18       18       18       18 </v>
   <v type="int" >        4       16       16       17       17 </v>
   <v type="int" >        4       16       17       17       17 </v>
   <v type="int" >        4       16       16       16       17 </v>
   <v type="int" >        4        9       14       14       15 </v>
   <v type="int" >        4        8        9       14       14 </v>
   <v type="int" >        4        8        8        9       14 </v>
   <v type="int" >        4        9       14       15       15 </v>
   <v type="int" >        4        9        9       14       15 </v>
   <v type="int" >        4        8        9        9       14 </v>
   <v type="int" >        8        9       15       15       15 </v>
   <v type="int" >        8        9        9       15       15 </v>
   <v type="int" >        8        9        9        9       15 </v>
   <v type="int" >        4        8       14       15       15 </v>
   <v type="int" >        4        8        9       15       15 </v>
   <v type="int" >        4        8        9        9       15 </v>
   <v type="int" >        4        8       14       14       15 </v>
   <v type="int" >        4        8        8       14       15 </v>
   <v type="int" >        4        8        8        9       15 </v>
   <v type="int" >        4        7       13       14       14 </v>
   <v type="int" >        4        7        8       14       14 </v>
   <v type="int" >        4        7        8        8       14 </v>
   <v type="int" >        4        7       13       13       14 </v>
   <v type="int" >        4        7        7       13       14 </v>
   <v type="int" >        4        7        7        8       14 </v>
   <v type="int" >        4        8       13       13       14 </v>
   <v type="int" >        4        7        8       13       13 </v>
   <v type="int" >        4        7        7        8       13 </v>
   <v type="int" >        4        8       13       14       14 </v>
   <v type="int" >        4        8        8       13       14 </v>
   <v type="int" >        4        7        8        8       13 </v>
   <v type="int" >        4        5        6       11       12 </v>
   <v type="int" >        4        5        5        6       11 </v>
   <v type="int" >        4        2        5        5        6 </v>
   <v type="int" >        4        5        6        6       12 </v>
   <v type="int" >        4        3        5        6        6 </v>
   <v type="int" >        4        2        3        5        6 </v>
   <v type="int" >        2        6        6       12       12 </v>
   <v type="int" >        4        6        6        6       12 </v>
   <v type="int" >        4        3        6        6        6 </v>
   <v type="int" >        2        3        3        6        6 </v>
   <v type="int" >        4        4        5       10       11 </v>
   <v type="int" >        4        4        5        5       11 </v>
   <v type="int" >        4        2        4        5        5 </v>
   <v type="int" >        4        4        4        5       10 </v>
   <v type="int" >        4        1        4        4        5 </v>
   <v type="int" >        4        1        2        4        5 </v>
   <v type="int" >        4        2        5        6       12 </v>
   <v type="int" >        4        2        5       11       12 </v>
   <v type="int" >        4        2        3        6       12 </v>
   <v type="int" >        4        3        6        6       12 </v>
   <v type="int" >        4        3        6       12       12 </v>
   <v type="int" >        4        3        3        6       12 </v>
   <v type="int" >        4        3        5        6       11 </v>
   <v type="int" >        4        3        6       11       12 </v>
   <v type="int" >        4        2        3        5       11 </v>
   <v type="int" >        4        2        4        5       10 </v>
   <v type="int" >        4        2        5       10       11 </v>
   <v type="int" >        4        1        2        4       10 </v>
   <v type="int" >        4        1        4        5       11 </v>
   <v type="int" >        4        1        4       10       11 </v>
   <v type="int" >        4        1        2        5       11 </v>
  </varray>
  <i name="volumeweight">      0.00133333 </i>
 </kpoints>
 <parameters>
  <separator name="general" >
   <i type="string" name="SYSTEM">GaAs</i>
   <i type="logical" name="LCOMPAT"> F  </i>
  </separator>
  <separator name="electronic" >
   <i type="string" name="PREC">normal</i>
   <i name="ENMAX">    400.00000000</i>
   <i name="ENAUG">    462.75800000</i>
   <i name="EDIFF">      0.00000100</i>
   <i type="int" name="IALGO">    38</i>
   <i type="int" name="IWAVPR">    11</i>
   <i type="int" name="NBANDS">   168</i>
   <i type="int" name="NBANDSLOW">    -1</i>
   <i type="int" name="NBANDSHIGH">    -1</i>
   <i name="NELECT">    256.00000000</i>
   <i type="int" name="TURBO">     0</i>
   <i type="int" name="IRESTART">     0</i>
   <i type="int" name="NREBOOT">     0</i>
   <i type="int" name="NMIN">     0</i>
   <i name="EREF">      0.00000000</i>
   <separator name="electronic smearing" >
    <i type="int" name="ISMEAR">    -5</i>
    <i name="SIGMA">      0.10000000</i>
    <i name="KSPACING">      0.50000000</i>
    <i type="logical" name="KGAMMA"> T  </i>
    <i type="logical" name="KBLOWUP"> T  </i>
   </separator>
   <separator name="electronic projectors" >
    <i type="logical" name="LREAL"> F  </i>
    <v name="ROPT">      0.00000000      0.00000000</v>
    <i type="int" name="LMAXPAW">  -100</i>
    <i type="int" name="LMAXMIX">     2</i>
    <i type="logical" name="NLSPLINE"> F  </i>
   </separator>
   <separator name="electronic startup" >
    <i type="int" name="ISTART">     0</i>
    <i type="int" name="ICHARG">     2</i>
    <i type="int" name="INIWAV">     1</i>
   </separator>
   <separator name="electronic spin" >
    <i type="int" name="ISPIN">     1</i>
    <i type="logical" name="LNONCOLLINEAR"> F  </i>
    <v name="MAGMOM">      1.00000000      1.00000000      1.00000000      1.00000000      1.00000000      1.00000000      1.00000000      1.00000000      1.00000000      1.00000000      1.00000000      1.00000000      1.00000000      1.00000000      1.00000000      1.00000000      1.00000000      1.00000000      1.00000000      1.00000000
      1.00000000      1.00000000      1.00000000      1.00000000      1.00000000      1.00000000      1.00000000      1.00000000      1.00000000      1.00000000      1.00000000      1.00000000      1.00000000      1.00000000      1.00000000      1.00000000      1.00000000      1.00000000      1.00000000      1.00000000
      1.00000000      1.00000000      1.00000000      1.00000000      1.00000000      1.00000000      1.00000000      1.00000000      1.00000000      1.00000000      1.00000000      1.00000000      1.00000000      1.00000000      1.00000000      1.00000000      1.00000000      1.00000000      1.00000000      1.00000000
      1.00000000      1.00000000      1.00000000      1.00000000</v>
    <i name="NUPDOWN">     -1.00000000</i>
    <i type="logical" name="LSORBIT"> F  </i>
    <v name="SAXIS">      0.00000000      0.00000000      1.00000000</v>
    <i type="logical" name="LSPIRAL"> F  </i>
    <v name="QSPIRAL">      0.00000000      0.00000000      0.00000000</v>
    <i type="logical" name="LZEROZ"> F  </i>
   </separator>
   <separator name="electronic exchange-correlation" >
    <i type="logical" name="LASPH"> F  </i>
   </separator>
   <separator name="electronic convergence" >
    <i type="int" name="NELM">    60</i>
    <i type="int" name="NELMDL">    -5</i>
    <i type="int" name="NELMIN">     2</i>
    <i name="ENINI">    400.00000000</i>
    <separator name="electronic convergence detail" >
     <i type="logical" name="LDIAG"> T  </i>
     <i type="logical" name="LSUBROT"> F  </i>
     <i name="WEIMIN">      0.00100000</i>
     <i name="EBREAK">      0.00000000</i>
     <i name="DEPER">      0.30000000</i>
     <i type="int" name="NRMM">     4</i>
     <i name="TIME">      0.40000000</i>
    </separator>
   </separator>
   <separator name="electronic mixer" >
    <i name="AMIX">      0.40000000</i>
    <i name="BMIX">      1.00000000</i>
    <i name="AMIN">      0.10000000</i>
    <i name="AMIX_MAG">      1.60000000</i>
    <i name="BMIX_MAG">      1.00000000</i>
    <separator name="electronic mixer details" >
     <i type="int" name="IMIX">     4</i>
     <i type="logical" name="MIXFIRST"> F  </i>
     <i type="int" name="MAXMIX">   -45</i>
     <i name="WC">    100.00000000</i>
     <i type="int" name="INIMIX">     1</i>
     <i type="int" name="MIXPRE">     1</i>
     <i type="int" name="MREMOVE">     5</i>
    </separator>
   </separator>
   <separator name="electronic dipolcorrection" >
    <i type="logical" name="LDIPOL"> F  </i>
    <i type="logical" name="LMONO"> F  </i>
    <i type="int" name="IDIPOL">     0</i>
    <i name="EPSILON">      1.00000000</i>
    <v name="DIPOL">   -100.00000000   -100.00000000   -100.00000000</v>
    <i name="EFIELD">      0.00000000</i>
    <i type="logical" name="LVACPOTAV"> F  </i>
   </separator>
  </separator>
  <separator name="grids" >
   <i type="int" name="NGX">    60</i>
   <i type="int" name="NGY">    56</i>
   <i type="int" name="NGZ">    56</i>
   <i type="int" name="NGXF">   120</i>
   <i type="int" name="NGYF">   112</i>
   <i type="int" name="NGZF">   112</i>
   <i type="logical" name="ADDGRID"> F  </i>
  </separator>
  <separator name="ionic" >
   <i type="int" name="NSW">   100</i>
   <i type="int" name="IBRION">     2</i>
   <i type="int" name="MDALGO">     0</i>
   <i type="int" name="ISIF">     2</i>
   <i name="PSTRESS">      0.00000000</i>
   <i name="EDIFFG">      0.00100000</i>
   <i type="int" name="NFREE">     2</i>
   <i name="POTIM">      0.10000000</i>
   <i name="SMASS">     -3.00000000</i>
   <i name="SCALEE">      1.00000000</i>
  </separator>
  <separator name="ionic md" >
   <i name="TEBEG">      0.00010000</i>
   <i name="TEEND">      0.00010000</i>
   <i type="int" name="NBLOCK">     1</i>
   <i type="int" name="KBLOCK">   100</i>
   <i type="int" name="NPACO">   256</i>
   <i name="APACO">     10.00000000</i>
  </separator>
  <separator name="symmetry" >
   <i type="int" name="ISYM">     2</i>
   <i name="SYMPREC">      0.00001000</i>
  </separator>
  <separator name="dos" >
   <i type="int" name="LORBIT">     0</i>
   <v name="RWIGS">     -1.00000000     -1.00000000</v>
   <i type="int" name="NEDOS">   301</i>
   <i name="EMIN">     10.00000000</i>
   <i name="EMAX">    -10.00000000</i>
   <i name="EFERMI">      0.00000000</i>
  </separator>
  <separator name="writing" >
   <i type="int" name="NWRITE">     2</i>
   <i type="logical" name="LWAVE"> T  </i>
   <i type="logical" name="LDOWNSAMPLE"> F  </i>
   <i type="logical" name="LCHARG"> T  </i>
   <i type="logical" name="LPARD"> F  </i>
   <i type="logical" name="LVTOT"> F  </i>
   <i type="logical" name="LVHAR"> F  </i>
   <i type="logical" name="LELF"> F  </i>
   <i type="logical" name="LOPTICS"> T  </i>
   <v name="STM">      0.00000000      0.00000000      0.00000000      0.00000000      0.00000000      0.00000000      0.00000000</v>
  </separator>
  <separator name="performance" >
   <i type="int" name="NPAR">     8</i>
   <i type="int" name="NSIM">     4</i>
   <i type="int" name="NBLK">    -1</i>
   <i type="logical" name="LPLANE"> T  </i>
   <i type="logical" name="LSCALAPACK"> T  </i>
   <i type="logical" name="LSCAAWARE"> F  </i>
   <i type="logical" name="LSCALU"> F  </i>
   <i type="logical" name="LASYNC"> F  </i>
   <i type="logical" name="LORBITALREAL"> F  </i>
  </separator>
  <separator name="miscellaneous" >
   <i type="int" name="IDIOT">     3</i>
   <i type="int" name="PHON_NSTRUCT">    -1</i>
   <i type="logical" name="LMUSIC"> F  </i>
   <v name="POMASS">     74.92200000     69.72300000</v>
   <v name="DARWINR">      0.00000000      0.00000000</v>
   <v name="DARWINV">      1.00000000      1.00000000</v>
   <i type="logical" name="LCORR"> T  </i>
  </separator>
  <i type="logical" name="GGA_COMPAT"> T  </i>
  <i type="logical" name="LBERRY"> F  </i>
  <i type="int" name="ICORELEVEL">     0</i>
  <i type="logical" name="LDAU"> F  </i>
  <i type="int" name="I_CONSTRAINED_M">     0</i>
  <separator name="electronic exchange-correlation" >
   <i type="string" name="GGA    ">PE</i>
   <i type="string" name="XC_C">1</i>
   <i type="int" name="VOSKOWN">     0</i>
   <i type="logical" name="LHFCALC"> F  </i>
   <i type="string" name="PRECFOCK"></i>
   <i type="logical" name="LSYMGRAD"> F  </i>
   <i type="logical" name="LHFONE"> F  </i>
   <i type="logical" name="LRHFCALC"> F  </i>
   <i type="logical" name="LTHOMAS"> F  </i>
   <i type="logical" name="LMODELHF"> F  </i>
   <i type="logical" name="LFOCKACE"> F  </i>
   <i name="ENCUT4O">     -1.00000000</i>
   <i type="int" name="EXXOEP">     0</i>
   <i type="int" name="FOURORBIT">     0</i>
   <i name="AEXX">      0.00000000</i>
   <i name="HFALPHA">      0.00000000</i>
   <i name="MCALPHA">      0.00000000</i>
   <i name="ALDAX">      1.00000000</i>
   <i name="AGGAX">      1.00000000</i>
   <i name="AMGGAX">      1.00000000</i>
   <i name="ALDAC">      1.00000000</i>
   <i name="AGGAC">      1.00000000</i>
   <i name="AMGGAC">      1.00000000</i>
   <i type="int" name="NKREDX">     1</i>
   <i type="int" name="NKREDY">     1</i>
   <i type="int" name="NKREDZ">     1</i>
   <i type="logical" name="SHIFTRED"> F  </i>
   <i type="logical" name="ODDONLY"> F  </i>
   <i type="logical" name="EVENONLY"> F  </i>
   <i type="int" name="LMAXFOCK">     0</i>
   <i type="int" name="NMAXFOCKAE">     0</i>
   <i type="logical" name="LFOCKAEDFT"> F  </i>
   <i name="HFSCREEN">      0.00000000</i>
   <i name="HFSCREENC">      0.00000000</i>
   <i type="int" name="NBANDSGWLOW">     0</i>
  </separator>
  <separator name="vdW DFT" >
   <i type="logical" name="LUSE_VDW"> F  </i>
   <i type="int" name="IVDW_NL">    -1</i>
   <i type="logical" name="LSPIN_VDW"> F  </i>
   <i name="ZAB_VDW">     -0.84910000</i>
   <i name="GAMMA_VDW">      1.39626340</i>
   <i name="ALPHA_VDW">      0.00000000</i>
   <i name="PARAM1">      0.12340000</i>
   <i name="PARAM2">      1.00000000</i>
   <i name="BPARAM">      6.30000000</i>
   <i name="CPARAM">      0.00930000</i>
  </separator>
  <separator name="model GW" >
   <i type="int" name="MODEL_GW">     0</i>
   <i name="MODEL_EPS0">     14.46424228</i>
   <i name="MODEL_ALPHA">      1.00000000</i>
  </separator>
  <separator name="linear response parameters" >
   <i type="logical" name="LEPSILON"> T  </i>
   <i type="logical" name="LRPA"> F  </i>
   <i type="logical" name="LNABLA"> F  </i>
   <i type="logical" name="LVEL"> F  </i>
   <i name="CSHIFT">      0.10000000</i>
   <i name="OMEGAMAX">     -1.00000000</i>
   <i name="DEG_THRESHOLD">      0.00200000</i>
   <i name="RTIME">     -0.10000000</i>
   <i name="WPLASMAI">      0.00000000</i>
   <v name="DFIELD">      0.00000000      0.00000000      0.00000000</v>
   <v name="WPLASMA">      0.00000000      0.00000000      0.00000000      0.00000000      0.00000000      0.00000000      0.00000000      0.00000000      0.00000000</v>
  </separator>
  <separator name="orbital magnetization" >
   <i type="logical" name="NUCIND"> F  </i>
   <v name="MAGPOS">      0.00000000      0.00000000      0.00000000</v>
   <i type="logical" name="LNICSALL"> T  </i>
   <i type="logical" name="ORBITALMAG"> F  </i>
   <i type="logical" name="LMAGBLOCH"> F  </i>
   <i type="logical" name="LCHIMAG"> F  </i>
   <i type="logical" name="LGAUGE"> T  </i>
   <i type="int" name="MAGATOM">     0</i>
   <v name="MAGDIPOL">      0.00000000      0.00000000      0.00000000</v>
   <v name="AVECCONST">      0.00000000      0.00000000      0.00000000</v>
  </separator>
  <separator name="response functions" >
   <i type="logical" name="LALL_IN_ONE"> F  </i>
   <i type="int" name="IALL_IN_ONE">    -1</i>
   <i type="int" name="NBANDS_WAVE">    -1</i>
   <i type="logical" name="LFINITE_TEMPERATURE"> F  </i>
   <i type="logical" name="LADDER"> F  </i>
   <i type="logical" name="LRPAFORCE"> F  </i>
   <i type="logical" name="LFXC"> F  </i>
   <i type="logical" name="LHARTREE"> T  </i>
   <i type="int" name="IBSE">     0</i>
   <v type="int" name="KPOINT">    -1     0     0     0</v>
   <i type="logical" name="LTCTC"> F  </i>
   <i type="logical" name="LTCTE"> F  </i>
   <i type="logical" name="LTETE"> F  </i>
   <i type="logical" name="LTRIPLET"> F  </i>
   <i type="logical" name="LFXCEPS"> F  </i>
   <i type="logical" name="LFXHEG"> F  </i>
   <i type="int" name="NATURALO">     2</i>
   <i type="logical" name="LHOLEGF"> F  </i>
   <i type="logical" name="L2ORDER"> F  </i>
   <i type="logical" name="LDMP1"> F  </i>
   <i type="logical" name="LMP2LT"> F  </i>
   <i type="logical" name="LSMP2LT"> F  </i>
   <i type="logical" name="LGWLF"> F  </i>
   <i name="ENCUTGW">     -1.60000002</i>
   <i name="ENCUTGWSOFT">     -1.60000002</i>
   <i name="ENCUTLF">     -1.00000000</i>
   <i type="logical" name="ESF_SPLINES"> F  </i>
   <i name="ESF_CONV">      0.01000000</i>
   <i type="int" name="ESF_NINTER">    15</i>
   <i type="int" name="LMAXMP2">    -1</i>
   <i name="SCISSOR">      0.00000000</i>
   <i type="int" name="NOMEGA">     0</i>
   <i type="int" name="NOMEGAR">     0</i>
   <i type="int" name="NBANDSGW">    -1</i>
   <i type="int" name="NBANDSO">    -1</i>
   <i type="int" name="NBANDSV">    -1</i>
   <i type="int" name="NELMGW">     1</i>
   <i type="int" name="NELMHF">     1</i>
   <i type="int" name="DIM">     3</i>
   <i type="int" name="IESPILON">     4</i>
   <i type="int" name="ANTIRES">     0</i>
   <i name="OMEGAMAX">    -30.00000000</i>
   <i name="OMEGAMIN">    -30.00000000</i>
   <i name="OMEGATL">   -200.00000000</i>
   <i type="int" name="OMEGAGRID">     0</i>
   <i name="CSHIFT">     -0.10000000</i>
   <i type="logical" name="LSELFENERGY"> F  </i>
   <i type="logical" name="LSPECTRAL"> F  </i>
   <i type="logical" name="LSPECTRALGW"> F  </i>
   <i type="logical" name="LSINGLES"> F  </i>
   <i type="logical" name="LFERMIGW"> F  </i>
   <i type="logical" name="ODDONLYGW"> F  </i>
   <i type="logical" name="EVENONLYGW"> F  </i>
   <i type="int" name="NKREDLFX">     1</i>
   <i type="int" name="NKREDLFY">     1</i>
   <i type="int" name="NKREDLFZ">     1</i>
   <i type="int" name="MAXMEM">  2800</i>
   <i type="int" name="TELESCOPE">     0</i>
   <i type="int" name="NTAUPAR">    -1</i>
   <i type="int" name="NOMEGAPAR">    -1</i>
   <i name="DAMP_NEWTON">      0.80000001</i>
   <i name="LAMBDA">      1.00000000</i>
  </separator>
  <separator name="External order field" >
   <i name="OFIELD_KAPPA">      0.00000000</i>
   <v name="OFIELD_K">      0.00000000      0.00000000      0.00000000</v>
   <i name="OFIELD_Q6_NEAR">      0.00000000</i>
   <i name="OFIELD_Q6_FAR">      0.00000000</i>
   <i name="OFIELD_A">      0.00000000</i>
  </separator>
  <separator name="optional k-points parameters" >
   <i type="int" name="KPOINTS_OPT_MODE">     1</i>
   <i type="logical" name="LKPOINTS_OPT"> F  </i>
  </separator>
 </parameters>
 <atominfo>
  <atoms>      64 </atoms>
  <types>       2 </types>
  <array name="atoms" >
   <dimension dim="1">ion</dimension>
   <field type="string">element</field>
   <field type="int">atomtype</field>
   <set>
    <rc><c>As</c><c>   1</c></rc>
    <rc><c>As</c><c>   1</c></rc>
    <rc><c>As</c><c>   1</c></rc>
    <rc><c>As</c><c>   1</c></rc>
    <rc><c>As</c><c>   1</c></rc>
    <rc><c>As</c><c>   1</c></rc>
    <rc><c>As</c><c>   1</c></rc>
    <rc><c>As</c><c>   1</c></rc>
    <rc><c>As</c><c>   1</c></rc>
    <rc><c>As</c><c>   1</c></rc>
    <rc><c>As</c><c>   1</c></rc>
    <rc><c>As</c><c>   1</c></rc>
    <rc><c>As</c><c>   1</c></rc>
    <rc><c>As</c><c>   1</c></rc>
    <rc><c>As</c><c>   1</c></rc>
    <rc><c>As</c><c>   1</c></rc>
    <rc><c>As</c><c>   1</c></rc>
    <rc><c>As</c><c>   1</c></rc>
    <rc><c>As</c><c>   1</c></rc>
    <rc><c>As</c><c>   1</c></rc>
    <rc><c>As</c><c>   1</c></rc>
    <rc><c>As</c><c>   1</c></rc>
    <rc><c>As</c><c>   1</c></rc>
    <rc><c>As</c><c>   1</c></rc>
    <rc><c>As</c><c>   1</c></rc>
    <rc><c>As</c><c>   1</c></rc>
    <rc><c>As</c><c>   1</c></rc>
    <rc><c>As</c><c>   1</c></rc>
    <rc><c>As</c><c>   1</c></rc>
    <rc><c>As</c><c>   1</c></rc>
    <rc><c>As</c><c>   1</c></rc>
    <rc><c>As</c><c>   1</c></rc>
    <rc><c>Ga</c><c>   2</c></rc>
    <rc><c>Ga</c><c>   2</c></rc>
    <rc><c>Ga</c><c>   2</c></rc>
    <rc><c>Ga</c><c>   2</c></rc>
    <rc><c>Ga</c><c>   2</c></rc>
    <rc><c>Ga</c><c>   2</c></rc>
    <rc><c>Ga</c><c>   2</c></rc>
    <rc><c>Ga</c><c>   2</c></rc>
    <rc><c>Ga</c><c>   2</c></rc>
    <rc><c>Ga</c><c>   2</c></rc>
    <rc><c>Ga</c><c>   2</c></rc>
    <rc><c>Ga</c><c>   2</c></rc>
    <rc><c>Ga</c><c>   2</c></rc>
    <rc><c>Ga</c><c>   2</c></rc>
    <rc><c>Ga</c><c>   2</c></rc>
    <rc><c>Ga</c><c>   2</c></rc>
    <rc><c>Ga</c><c>   2</c></rc>
    <rc><c>Ga</c><c>   2</c></rc>
    <rc><c>Ga</c><c>   2</c></rc>
    <rc><c>Ga</c><c>   2</c></rc>
    <rc><c>Ga</c><c>   2</c></rc>
    <rc><c>Ga</c><c>   2</c></rc>
    <rc><c>Ga</c><c>   2</c></rc>
    <rc><c>Ga</c><c>   2</c></rc>
    <rc><c>Ga</c><c>   2</c></rc>
    <rc><c>Ga</c><c>   2</c></rc>
    <rc><c>Ga</c><c>   2</c></rc>
    <rc><c>Ga</c><c>   2</c></rc>
    <rc><c>Ga</c><c>   2</c></rc>
    <rc><c>Ga</c><c>   2</c></rc>
    <rc><c>Ga</c><c>   2</c></rc>
    <rc><c>Ga</c><c>   2</c></rc>
   </set>
  </array>
  <array name="atomtypes" >
   <dimension dim="1">type</dimension>
   <field type="int">atomspertype</field>
   <field type="string">element</field>
   <field>mass</field>
   <field>valence</field>
   <field type="string">pseudopotential</field>
   <set>
    <rc><c>  32</c><c>As</c><c>     74.92200000</c><c>      5.00000000</c><c>  PAW_PBE As 22Sep2009                  </c></rc>
    <rc><c>  32</c><c>Ga</c><c>     69.72300000</c><c>      3.00000000</c><c>  PAW_PBE Ga 08Apr2002                  </c></rc>
   </set>
  </array>
 </atominfo>
 <structure name="initialpos" >
  <crystal>
   <varray name="basis" >
    <v>      11.75733583       0.00000000       0.00000000 </v>
    <v>       0.00000000      11.45533367       0.00000000 </v>
    <v>       0.00000000       0.00000000      11.45533367 </v>
   </varray>
   <i name="volume">   1542.85250966 </i>
   <varray name="rec_basis" >
    <v>       0.08505328       0.00000000       0.00000000 </v>
    <v>       0.00000000       0.08729558       0.00000000 </v>
    <v>       0.00000000       0.00000000       0.08729558 </v>
   </varray>
  </crystal>
  <varray name="positions" >
   <v>       0.00000000       0.00000000       0.00000000 </v>
   <v>       0.00000000       0.00000000       0.50000000 </v>
   <v>       0.00000000       0.50000000       0.00000000 </v>
   <v>       0.00000000       0.50000000       0.50000000 </v>
   <v>       0.50000000       0.00000000       0.00000000 </v>
   <v>       0.50000000       0.00000000       0.50000000 </v>
   <v>       0.50000000       0.50000000       0.00000000 </v>
   <v>       0.50000000       0.50000000       0.50000000 </v>
   <v>       0.25000000       0.25000000       0.00000000 </v>
   <v>       0.25000000       0.25000000       0.50000000 </v>
   <v>       0.25000000       0.75000000       0.00000000 </v>
   <v>       0.25000000       0.75000000       0.50000000 </v>
   <v>       0.75000000       0.25000000       0.00000000 </v>
   <v>       0.75000000       0.25000000       0.50000000 </v>
   <v>       0.75000000       0.75000000       0.00000000 </v>
   <v>       0.75000000       0.75000000       0.50000000 </v>
   <v>       0.25000000       0.00000000       0.25000000 </v>
   <v>       0.25000000       0.00000000       0.75000000 </v>
   <v>       0.25000000       0.50000000       0.25000000 </v>
   <v>       0.25000000       0.50000000       0.75000000 </v>
   <v>       0.75000000       0.00000000       0.25000000 </v>
   <v>       0.75000000       0.00000000       0.75000000 </v>
   <v>       0.75000000       0.50000000       0.25000000 </v>
   <v>       0.75000000       0.50000000       0.75000000 </v>
   <v>       0.00000000       0.25000000       0.25000000 </v>
   <v>       0.00000000       0.25000000       0.75000000 </v>
   <v>       0.00000000       0.75000000       0.25000000 </v>
   <v>       0.00000000       0.75000000       0.75000000 </v>
   <v>       0.50000000       0.25000000       0.25000000 </v>
   <v>       0.50000000       0.25000000       0.75000000 </v>
   <v>       0.50000000       0.75000000       0.25000000 </v>
   <v>       0.50000000       0.75000000       0.75000000 </v>
   <v>       0.12500000       0.12500000       0.12500000 </v>
   <v>       0.12500000       0.12500000       0.62500000 </v>
   <v>       0.12500000       0.62500000       0.12500000 </v>
   <v>       0.12500000       0.62500000       0.62500000 </v>
   <v>       0.62500000       0.12500000       0.12500000 </v>
   <v>       0.62500000       0.12500000       0.62500000 </v>
   <v>       0.62500000       0.62500000       0.12500000 </v>
   <v>       0.62500000       0.62500000       0.62500000 </v>
   <v>       0.37500000       0.12500000       0.37500000 </v>
   <v>       0.37500000       0.12500000       0.87500000 </v>
   <v>       0.37500000       0.62500000       0.37500000 </v>
   <v>       0.37500000       0.62500000       0.87500000 </v>
   <v>       0.87500000       0.12500000       0.37500000 </v>
   <v>       0.87500000       0.12500000       0.87500000 </v>
   <v>       0.87500000       0.62500000       0.37500000 </v>
   <v>       0.87500000       0.62500000       0.87500000 </v>
   <v>       0.37500000       0.37500000       0.12500000 </v>
   <v>       0.37500000       0.37500000       0.62500000 </v>
   <v>       0.37500000       0.87500000       0.12500000 </v>
   <v>       0.37500000       0.87500000       0.62500000 </v>
   <v>       0.87500000       0.37500000       0.12500000 </v>
   <v>       0.87500000       0.37500000       0.62500000 </v>
   <v>       0.87500000       0.87500000       0.12500000 </v>
   <v>       0.87500000       0.87500000       0.62500000 </v>
   <v>       0.12500000       0.37500000       0.37500000 </v>
   <v>       0.12500000       0.37500000       0.87500000 </v>
   <v>       0.12500000       0.87500000       0.37500000 </v>
   <v>       0.12500000       0.87500000       0.87500000 </v>
   <v>       0.62500000       0.37500000       0.37500000 </v>
   <v>       0.62500000       0.37500000       0.87500000 </v>
   <v>       0.62500000       0.87500000       0.37500000 </v>
   <v>       0.62500000       0.87500000       0.87500000 </v>
  </varray>
 </structure>
 <calculation>
  <scstep>
   <time name="dav">   74.31   75.19</time>
   <time name="total">   74.45   75.33</time>
   <energy>
    <i name="alphaZ">    567.62817518 </i>
    <i name="ewald">  -7176.40609260 </i>
    <i name="hartreedc">   -606.29129366 </i>
    <i name="XCdc">   -996.86864335 </i>
    <i name="pawpsdc">   6692.16565901 </i>
    <i name="pawaedc">  -5247.93935635 </i>
    <i name="eentropy">      0.00000000 </i>
    <i name="bandstr">    364.30934994 </i>
    <i name="atom">   7329.73306348 </i>
    <i name="e_fr_energy">    926.33086164 </i>
    <i name="e_wo_entrp">    926.33086164 </i>
    <i name="e_0_energy">    926.33086164 </i>
   </energy>
  </scstep>
  <scstep>
   <time name="dav">   84.43   85.42</time>
   <time name="total">   84.43   85.43</time>
   <energy>
    <i name="e_fr_energy">   -168.15354836 </i>
    <i name="e_wo_entrp">   -168.15354836 </i>
    <i name="e_0_energy">   -168.15354836 </i>
   </energy>
  </scstep>
  <scstep>
   <time name="dav">   86.58   87.61</time>
   <time name="total">   86.59   87.62</time>
   <energy>
    <i name="e_fr_energy">   -267.40365353 </i>
    <i name="e_wo_entrp">   -267.40365353 </i>
    <i name="e_0_energy">   -267.40365353 </i>
   </energy>
  </scstep>
  <scstep>
   <time name="dav">   86.24   87.27</time>
   <time name="total">   86.25   87.28</time>
   <energy>
    <i name="e_fr_energy">   -269.97745159 </i>
    <i name="e_wo_entrp">   -269.97745159 </i>
    <i name="e_0_energy">   -269.97745159 </i>
   </energy>
  </scstep>
  <scstep>
   <time name="dav">   86.52   87.56</time>
   <time name="total">   87.31   88.36</time>
   <energy>
    <i name="e_fr_energy">   -270.05157675 </i>
    <i name="e_wo_entrp">   -270.05157675 </i>
    <i name="e_0_energy">   -270.05157675 </i>
   </energy>
  </scstep>
  <scstep>
   <time name="dav">   83.02   84.06</time>
   <time name="total">   83.94   84.99</time>
   <energy>
    <i name="e_fr_energy">   -265.88914431 </i>
    <i name="e_wo_entrp">   -265.88914431 </i>
    <i name="e_0_energy">   -265.88914431 </i>
   </energy>
  </scstep>
  <scstep>
   <time name="dav">   84.90   85.95</time>
   <time name="total">   85.82   86.88</time>
   <energy>
    <i name="e_fr_energy">   -265.07919448 </i>
    <i name="e_wo_entrp">   -265.07919448 </i>
    <i name="e_0_energy">   -265.07919448 </i>
   </energy>
  </scstep>
  <scstep>
   <time name="dav">   83.31   84.37</time>
   <time name="total">   84.23   85.30</time>
   <energy>
    <i name="e_fr_energy">   -265.03782620 </i>
    <i name="e_wo_entrp">   -265.03782620 </i>
    <i name="e_0_energy">   -265.03782620 </i>
   </energy>
  </scstep>
  <scstep>
   <time name="dav">   81.94   82.96</time>
   <time name="total">   82.87   83.89</time>
   <energy>
    <i name="e_fr_energy">   -265.04964892 </i>
    <i name="e_wo_entrp">   -265.04964892 </i>
    <i name="e_0_energy">   -265.04964892 </i>
   </energy>
  </scstep>
  <scstep>
   <time name="dav">   87.57   88.68</time>
   <time name="total">   88.49   89.60</time>
   <energy>
    <i name="e_fr_energy">   -265.05073295 </i>
    <i name="e_wo_entrp">   -265.05073295 </i>
    <i name="e_0_energy">   -265.05073295 </i>
   </energy>
  </scstep>
  <scstep>
   <time name="dav">   78.21   79.19</time>
   <time name="total">   79.12   80.11</time>
   <energy>
    <i name="e_fr_energy">   -265.05206677 </i>
    <i name="e_wo_entrp">   -265.05206677 </i>
    <i name="e_0_energy">   -265.05206677 </i>
   </energy>
  </scstep>
  <scstep>
   <time name="dav">   86.42   87.50</time>
   <time name="total">   87.34   88.43</time>
   <energy>
    <i name="e_fr_energy">   -265.05207441 </i>
    <i name="e_wo_entrp">   -265.05207441 </i>
    <i name="e_0_energy">   -265.05207441 </i>
   </energy>
  </scstep>
  <scstep>
   <time name="dav">   81.97   82.99</time>
   <time name="total">   82.89   83.92</time>
   <energy>
    <i name="e_fr_energy">   -265.05208368 </i>
    <i name="e_wo_entrp">   -265.05208368 </i>
    <i name="e_0_energy">   -265.05208368 </i>
   </energy>
  </scstep>
  <scstep>
   <time name="dav">   72.57   73.48</time>
   <time name="total">   72.70   73.61</time>
   <energy>
    <i name="alphaZ">    567.62817518 </i>
    <i name="ewald">  -7176.40609260 </i>
    <i name="hartreedc">   -714.14510146 </i>
    <i name="XCdc">   -975.04625092 </i>
    <i name="pawpsdc">  14515.10805651 </i>
    <i name="pawaedc"> -13082.39607099 </i>
    <i name="eentropy">      0.00000000 </i>
    <i name="bandstr">   -729.52786227 </i>
    <i name="atom">   7329.73306348 </i>
    <i name="e_fr_energy">   -265.05208309 </i>
    <i name="e_wo_entrp">   -265.05208309 </i>
    <i name="e_0_energy">   -265.05208309 </i>
   </energy>
  </scstep>
  <structure>
   <crystal>
    <varray name="basis" >
     <v>      11.75733583       0.00000000       0.00000000 </v>
     <v>       0.00000000      11.45533367       0.00000000 </v>
     <v>       0.00000000       0.00000000      11.45533367 </v>
    </varray>
    <i name="volume">   1542.85250966 </i>
    <varray name="rec_basis" >
     <v>       0.08505328       0.00000000       0.00000000 </v>
     <v>       0.00000000       0.08729558       0.00000000 </v>
     <v>       0.00000000       0.00000000       0.08729558 </v>
    </varray>
   </crystal>
   <varray name="positions" >
    <v>       0.00000000       0.00000000       0.00000000 </v>
    <v>       0.00000000       0.00000000       0.50000000 </v>
    <v>       0.00000000       0.50000000       0.00000000 </v>
    <v>       0.00000000       0.50000000       0.50000000 </v>
    <v>       0.50000000       0.00000000       0.00000000 </v>
    <v>       0.50000000       0.00000000       0.50000000 </v>
    <v>       0.50000000       0.50000000       0.00000000 </v>
    <v>       0.50000000       0.50000000       0.50000000 </v>
    <v>       0.25000000       0.25000000       0.00000000 </v>
    <v>       0.25000000       0.25000000       0.50000000 </v>
    <v>       0.25000000       0.75000000       0.00000000 </v>
    <v>       0.25000000       0.75000000       0.50000000 </v>
    <v>       0.75000000       0.25000000       0.00000000 </v>
    <v>       0.75000000       0.25000000       0.50000000 </v>
    <v>       0.75000000       0.75000000       0.00000000 </v>
    <v>       0.75000000       0.75000000       0.50000000 </v>
    <v>       0.25000000       0.00000000       0.25000000 </v>
    <v>       0.25000000       0.00000000       0.75000000 </v>
    <v>       0.25000000       0.50000000       0.25000000 </v>
    <v>       0.25000000       0.50000000       0.75000000 </v>
    <v>       0.75000000       0.00000000       0.25000000 </v>
    <v>       0.75000000       0.00000000       0.75000000 </v>
    <v>       0.75000000       0.50000000       0.25000000 </v>
    <v>       0.75000000       0.50000000       0.75000000 </v>
    <v>       0.00000000       0.25000000       0.25000000 </v>
    <v>       0.00000000       0.25000000       0.75000000 </v>
    <v>       0.00000000       0.75000000       0.25000000 </v>
    <v>       0.00000000       0.75000000       0.75000000 </v>
    <v>       0.50000000       0.25000000       0.25000000 </v>
    <v>       0.50000000       0.25000000       0.75000000 </v>
    <v>       0.50000000       0.75000000       0.25000000 </v>
    <v>       0.50000000       0.75000000       0.75000000 </v>
    <v>       0.12500000       0.12500000       0.12500000 </v>
    <v>       0.12500000       0.12500000       0.62500000 </v>
    <v>       0.12500000       0.62500000       0.12500000 </v>
    <v>       0.12500000       0.62500000       0.62500000 </v>
    <v>       0.62500000       0.12500000       0.12500000 </v>
    <v>       0.62500000       0.12500000       0.62500000 </v>
    <v>       0.62500000       0.62500000       0.12500000 </v>
    <v>       0.62500000       0.62500000       0.62500000 </v>
    <v>       0.37500000       0.12500000       0.37500000 </v>
    <v>       0.37500000       0.12500000       0.87500000 </v>
    <v>       0.37500000       0.62500000       0.37500000 </v>
    <v>       0.37500000       0.62500000       0.87500000 </v>
    <v>       0.87500000       0.12500000       0.37500000 </v>
    <v>       0.87500000       0.12500000       0.87500000 </v>
    <v>       0.87500000       0.62500000       0.37500000 </v>
    <v>       0.87500000       0.62500000       0.87500000 </v>
    <v>       0.37500000       0.37500000       0.12500000 </v>
    <v>       0.37500000       0.37500000       0.62500000 </v>
    <v>       0.37500000       0.87500000       0.12500000 </v>
    <v>       0.37500000       0.87500000       0.62500000 </v>
    <v>       0.87500000       0.37500000       0.12500000 </v>
    <v>       0.87500000       0.37500000       0.62500000 </v>
    <v>       0.87500000       0.87500000       0.12500000 </v>
    <v>       0.87500000       0.87500000       0.62500000 </v>
    <v>       0.12500000       0.37500000       0.37500000 </v>
    <v>       0.12500000       0.37500000       0.87500000 </v>
    <v>       0.12500000       0.87500000       0.37500000 </v>
    <v>       0.12500000       0.87500000       0.87500000 </v>
    <v>       0.62500000       0.37500000       0.37500000 </v>
    <v>       0.62500000       0.37500000       0.87500000 </v>
    <v>       0.62500000       0.87500000       0.37500000 </v>
    <v>       0.62500000       0.87500000       0.87500000 </v>
   </varray>
  </structure>
  <varray name="forces" >
   <v>       0.00000000      -0.00000000       0.00000000 </v>
   <v>      -0.00000000      -0.00000000      -0.00000000 </v>
   <v>      -0.00000000       0.00000000       0.00000000 </v>
   <v>       0.00000000      -0.00000000       0.00000000 </v>
   <v>      -0.00000000       0.00000000       0.00000000 </v>
   <v>      -0.00000000      -0.00000000      -0.00000000 </v>
   <v>      -0.00000000      -0.00000000       0.00000000 </v>
   <v>      -0.00000000       0.00000000       0.00000000 </v>
   <v>       0.00000000       0.00000000       0.00000000 </v>
   <v>      -0.00000000       0.00000000       0.00000000 </v>
   <v>      -0.00000000      -0.00000000       0.00000000 </v>
   <v>      -0.00000000      -0.00000000       0.00000000 </v>
   <v>       0.00000000      -0.00000000       0.00000000 </v>
   <v>       0.00000000      -0.00000000       0.00000000 </v>
   <v>       0.00000000       0.00000000       0.00000000 </v>
   <v>       0.00000000       0.00000000       0.00000000 </v>
   <v>       0.00000000      -0.00000000      -0.00000000 </v>
   <v>      -0.00000000      -0.00000000      -0.00000000 </v>
   <v>      -0.00000000      -0.00000000       0.00000000 </v>
   <v>      -0.00000000      -0.00000000       0.00000000 </v>
   <v>       0.00000000      -0.00000000      -0.00000000 </v>
   <v>      -0.00000000      -0.00000000      -0.00000000 </v>
   <v>      -0.00000000      -0.00000000       0.00000000 </v>
   <v>       0.00000000      -0.00000000       0.00000000 </v>
   <v>      -0.00000000       0.00000000       0.00000000 </v>
   <v>       0.00000000      -0.00000000      -0.00000000 </v>
   <v>       0.00000000      -0.00000000       0.00000000 </v>
   <v>      -0.00000000      -0.00000000       0.00000000 </v>
   <v>      -0.00000000      -0.00000000      -0.00000000 </v>
   <v>      -0.00000000       0.00000000       0.00000000 </v>
   <v>       0.00000000      -0.00000000       0.00000000 </v>
   <v>      -0.00000000      -0.00000000       0.00000000 </v>
   <v>       0.00000000       0.00000000      -0.00000000 </v>
   <v>       0.00000000       0.00000000      -0.00000000 </v>
   <v>       0.00000000       0.00000000      -0.00000000 </v>
   <v>       0.00000000       0.00000000      -0.00000000 </v>
   <v>      -0.00000000       0.00000000      -0.00000000 </v>
   <v>      -0.00000000       0.00000000      -0.00000000 </v>
   <v>       0.00000000       0.00000000      -0.00000000 </v>
   <v>       0.00000000      -0.00000000      -0.00000000 </v>
   <v>       0.00000000       0.00000000      -0.00000000 </v>
   <v>      -0.00000000       0.00000000      -0.00000000 </v>
   <v>      -0.00000000      -0.00000000      -0.00000000 </v>
   <v>      -0.00000000      -0.00000000      -0.00000000 </v>
   <v>       0.00000000       0.00000000      -0.00000000 </v>
   <v>       0.00000000       0.00000000      -0.00000000 </v>
   <v>       0.00000000      -0.00000000      -0.00000000 </v>
   <v>       0.00000000       0.00000000      -0.00000000 </v>
   <v>      -0.00000000       0.00000000      -0.00000000 </v>
   <v>       0.00000000      -0.00000000      -0.00000000 </v>
   <v>      -0.00000000       0.00000000      -0.00000000 </v>
   <v>      -0.00000000       0.00000000      -0.00000000 </v>
   <v>      -0.00000000       0.00000000      -0.00000000 </v>
   <v>       0.00000000       0.00000000      -0.00000000 </v>
   <v>       0.00000000       0.00000000      -0.00000000 </v>
   <v>       0.00000000      -0.00000000      -0.00000000 </v>
   <v>       0.00000000       0.00000000      -0.00000000 </v>
   <v>       0.00000000       0.00000000      -0.00000000 </v>
   <v>       0.00000000       0.00000000      -0.00000000 </v>
   <v>      -0.00000000       0.00000000      -0.00000000 </v>
   <v>       0.00000000       0.00000000      -0.00000000 </v>
   <v>       0.00000000       0.00000000      -0.00000000 </v>
   <v>      -0.00000000       0.00000000      -0.00000000 </v>
   <v>       0.00000000       0.00000000      -0.00000000 </v>
  </varray>
  <varray name="stress" >
   <v>     -15.02091078       0.00000000       0.00000000 </v>
   <v>       0.00000000       0.26139973       0.00000000 </v>
   <v>       0.00000000       0.00000000       0.26139973 </v>
  </varray>
  <scstep>
   <time name="total">  122.69  124.01</time>
   <energy>
    <i name="e_fr_energy">  -1270.92633495 </i>
    <i name="e_wo_entrp">  -1270.92633495 </i>
    <i name="e_0_energy">  -1270.92633495 </i>
   </energy>
  </scstep>
  <scstep>
   <time name="total">   88.00   88.98</time>
   <energy>
    <i name="e_fr_energy">  -1098.25697346 </i>
    <i name="e_wo_entrp">  -1098.25697346 </i>
    <i name="e_0_energy">  -1098.25697346 </i>
   </energy>
  </scstep>
  <scstep>
   <time name="total">   89.32   90.31</time>
   <energy>
    <i name="e_fr_energy">  -1100.43896103 </i>
    <i name="e_wo_entrp">  -1100.43896103 </i>
    <i name="e_0_energy">  -1100.43896103 </i>
   </energy>
  </scstep>
  <scstep>
   <time name="total">   59.15   59.83</time>
   <energy>
    <i name="e_fr_energy">  -1100.55706650 </i>
    <i name="e_wo_entrp">  -1100.55706650 </i>
    <i name="e_0_energy">  -1100.55706650 </i>
   </energy>
  </scstep>
  <scstep>
   <time name="total">   59.47   60.14</time>
   <energy>
    <i name="e_fr_energy">  -1100.56082015 </i>
    <i name="e_wo_entrp">  -1100.56082015 </i>
    <i name="e_0_energy">  -1100.56082015 </i>
   </energy>
  </scstep>
  <scstep>
   <time name="total">   62.10   62.81</time>
   <energy>
    <i name="e_fr_energy">  -1100.56109097 </i>
    <i name="e_wo_entrp">  -1100.56109097 </i>
    <i name="e_0_energy">  -1100.56109097 </i>
   </energy>
  </scstep>
  <scstep>
   <time name="total">   64.75   65.48</time>
   <energy>
    <i name="e_fr_energy">  -1100.56110379 </i>
    <i name="e_wo_entrp">  -1100.56110379 </i>
    <i name="e_0_energy">  -1100.56110379 </i>
   </energy>
  </scstep>
  <scstep>
   <time name="total">   69.18   69.94</time>
   <energy>
    <i name="e_fr_energy">  -1100.56110277 </i>
    <i name="e_wo_entrp">  -1100.56110277 </i>
    <i name="e_0_energy">  -1100.56110277 </i>
   </energy>
  </scstep>
  <scstep>
   <time name="total">   70.95   71.73</time>
   <energy>
    <i name="e_fr_energy">  -1100.56110320 </i>
    <i name="e_wo_entrp">  -1100.56110320 </i>
    <i name="e_0_energy">  -1100.56110320 </i>
   </energy>
  </scstep>
  <scstep>
   <time name="total">   72.23   73.04</time>
   <energy>
    <i name="e_fr_energy">  -1100.56110491 </i>
    <i name="e_wo_entrp">  -1100.56110491 </i>
    <i name="e_0_energy">  -1100.56110491 </i>
   </energy>
  </scstep>
  <scstep>
   <time name="total">   74.13   74.94</time>
   <energy>
    <i name="e_fr_energy">  -1100.56110657 </i>
    <i name="e_wo_entrp">  -1100.56110657 </i>
    <i name="e_0_energy">  -1100.56110657 </i>
   </energy>
  </scstep>
  <scstep>
   <time name="total">  124.45  125.77</time>
   <energy>
    <i name="e_fr_energy">  -1248.04623541 </i>
    <i name="e_wo_entrp">  -1248.04623541 </i>
    <i name="e_0_energy">  -1248.04623541 </i>
   </energy>
  </scstep>
  <scstep>
   <time name="total">   88.79   89.76</time>
   <energy>
    <i name="e_fr_energy">  -1113.33080666 </i>
    <i name="e_wo_entrp">  -1113.33080666 </i>
    <i name="e_0_energy">  -1113.33080666 </i>
   </energy>
  </scstep>
  <scstep>
   <time name="total">   90.73   91.71</time>
   <energy>
    <i name="e_fr_energy">  -1115.44582635 </i>
    <i name="e_wo_entrp">  -1115.44582635 </i>
    <i name="e_0_energy">  -1115.44582635 </i>
   </energy>
  </scstep>
  <scstep>
   <time name="total">   59.61   60.28</time>
   <energy>
    <i name="e_fr_energy">  -1115.56341549 </i>
    <i name="e_wo_entrp">  -1115.56341549 </i>
    <i name="e_0_energy">  -1115.56341549 </i>
   </energy>
  </scstep>
  <scstep>
   <time name="total">   59.24   59.90</time>
   <energy>
    <i name="e_fr_energy">  -1115.56735960 </i>
    <i name="e_wo_entrp">  -1115.56735960 </i>
    <i name="e_0_energy">  -1115.56735960 </i>
   </energy>
  </scstep>
  <scstep>
   <time name="total">   62.62   63.32</time>
   <energy>
    <i name="e_fr_energy">  -1115.55569272 </i>
    <i name="e_wo_entrp">  -1115.55569272 </i>
    <i name="e_0_energy">  -1115.55569272 </i>
   </energy>
  </scstep>
  <scstep>
   <time name="total">   65.34   66.06</time>
   <energy>
    <i name="e_fr_energy">  -1115.55852770 </i>
    <i name="e_wo_entrp">  -1115.55852770 </i>
    <i name="e_0_energy">  -1115.55852770 </i>
   </energy>
  </scstep>
  <scstep>
   <time name="total">   70.00   70.77</time>
   <energy>
    <i name="e_fr_energy">  -1115.55578102 </i>
    <i name="e_wo_entrp">  -1115.55578102 </i>
    <i name="e_0_energy">  -1115.55578102 </i>
   </energy>
  </scstep>
  <scstep>
   <time name="total">   71.55   72.33</time>
   <energy>
    <i name="e_fr_energy">  -1115.55783593 </i>
    <i name="e_wo_entrp">  -1115.55783593 </i>
    <i name="e_0_energy">  -1115.55783593 </i>
   </energy>
  </scstep>
  <scstep>
   <time name="total">   73.55   74.35</time>
   <energy>
    <i name="e_fr_energy">  -1115.55592018 </i>
    <i name="e_wo_entrp">  -1115.55592018 </i>
    <i name="e_0_energy">  -1115.55592018 </i>
   </energy>
  </scstep>
  <scstep>
   <time name="total">   74.92   75.74</time>
   <energy>
    <i name="e_fr_energy">  -1115.55772928 </i>
    <i name="e_wo_entrp">  -1115.55772928 </i>
    <i name="e_0_energy">  -1115.55772928 </i>
   </energy>
  </scstep>
  <scstep>
   <time name="total">  126.29  127.63</time>
   <energy>
    <i name="e_fr_energy">  -1370.53365997 </i>
    <i name="e_wo_entrp">  -1370.53365997 </i>
    <i name="e_0_energy">  -1370.53365997 </i>
   </energy>
  </scstep>
  <scstep>
   <time name="total">   88.63   89.61</time>
   <energy>
    <i name="e_fr_energy">  -1118.51609721 </i>
    <i name="e_wo_entrp">  -1118.51609721 </i>
    <i name="e_0_energy">  -1118.51609721 </i>
   </energy>
  </scstep>
  <scstep>
   <time name="total">   90.96   91.95</time>
   <energy>
    <i name="e_fr_energy">  -1120.71975917 </i>
    <i name="e_wo_entrp">  -1120.71975917 </i>
    <i name="e_0_energy">  -1120.71975917 </i>
   </energy>
  </scstep>
  <scstep>
   <time name="total">   58.98   59.64</time>
   <energy>
    <i name="e_fr_energy">  -1120.84522838 </i>
    <i name="e_wo_entrp">  -1120.84522838 </i>
    <i name="e_0_energy">  -1120.84522838 </i>
   </energy>
  </scstep>
  <scstep>
   <time name="total">   58.96   59.63</time>
   <energy>
    <i name="e_fr_energy">  -1120.84828585 </i>
    <i name="e_wo_entrp">  -1120.84828585 </i>
    <i name="e_0_energy">  -1120.84828585 </i>
   </energy>
  </scstep>
  <scstep>
   <time name="total">   62.08   62.76</time>
   <energy>
    <i name="e_fr_energy">  -1120.83702210 </i>
    <i name="e_wo_entrp">  -1120.83702210 </i>
    <i name="e_0_energy">  -1120.83702210 </i>
   </energy>
  </scstep>
  <scstep>
   <time name="total">   65.65   66.37</time>
   <energy>
    <i name="e_fr_energy">  -1120.84038297 </i>
    <i name="e_wo_entrp">  -1120.84038297 </i>
    <i name="e_0_energy">  -1120.84038297 </i>
   </energy>
  </scstep>
  <scstep>
   <time name="total">   69.84   70.61</time>
   <energy>
    <i name="e_fr_energy">  -1120.83681861 </i>
    <i name="e_wo_entrp">  -1120.83681861 </i>
    <i name="e_0_energy">  -1120.83681861 </i>
   </energy>
  </scstep>
  <scstep>
   <time name="total">   71.21   71.99</time>
   <energy>
    <i name="e_fr_energy">  -1120.83917774 </i>
    <i name="e_wo_entrp">  -1120.83917774 </i>
    <i name="e_0_energy">  -1120.83917774 </i>
   </energy>
  </scstep>
  <scstep>
   <time name="total">   73.29   74.09</time>
   <energy>
    <i name="e_fr_energy">  -1120.83731983 </i>
    <i name="e_wo_entrp">  -1120.83731983 </i>
    <i name="e_0_energy">  -1120.83731983 </i>
   </energy>
  </scstep>
  <scstep>
   <time name="total">   74.94   75.76</time>
   <energy>
    <i name="e_fr_energy">  -1120.83917380 </i>
    <i name="e_wo_entrp">  -1120.83917380 </i>
    <i name="e_0_energy">  -1120.83917380 </i>
   </energy>
  </scstep>
  <kpoints>
   <generation param="Gamma">
    <v type="int" name="divisions">       5        5        5 </v>
    <v name="usershift">      0.00000000       0.00000000       0.00000000 </v>
    <v name="genvec1">      0.20000000       0.00000000       0.00000000 </v>
    <v name="genvec2">      0.00000000       0.20000000       0.00000000 </v>
    <v name="genvec3">      0.00000000       0.00000000       0.20000000 </v>
    <v name="shift">      0.00000000       0.00000000       0.00000000 </v>
   </generation>
   <varray name="kpointlist" >
    <v>       0.00000000       0.00000000       0.00000000 </v>
    <v>       0.20000000       0.00000000       0.00000000 </v>
    <v>       0.40000000       0.00000000       0.00000000 </v>
    <v>       0.00000000       0.20000000       0.00000000 </v>
    <v>       0.20000000       0.20000000       0.00000000 </v>
    <v>       0.40000000       0.20000000       0.00000000 </v>
    <v>       0.00000000       0.40000000       0.00000000 </v>
    <v>       0.20000000       0.40000000       0.00000000 </v>
    <v>       0.40000000       0.40000000       0.00000000 </v>
    <v>       0.00000000       0.20000000       0.20000000 </v>
    <v>       0.00000000      -0.20000000       0.20000000 </v>
    <v>       0.20000000       0.20000000       0.20000000 </v>
    <v>       0.20000000      -0.20000000       0.20000000 </v>
    <v>       0.40000000       0.20000000       0.20000000 </v>
    <v>       0.40000000      -0.20000000       0.20000000 </v>
    <v>       0.00000000       0.40000000       0.20000000 </v>
    <v>       0.00000000      -0.20000000       0.40000000 </v>
    <v>       0.20000000       0.40000000       0.20000000 </v>
    <v>       0.20000000      -0.20000000       0.40000000 </v>
    <v>       0.40000000       0.40000000       0.20000000 </v>
    <v>       0.40000000      -0.20000000       0.40000000 </v>
    <v>       0.00000000       0.40000000       0.40000000 </v>
    <v>       0.00000000      -0.40000000       0.40000000 </v>
    <v>       0.20000000       0.40000000       0.40000000 </v>
    <v>       0.20000000      -0.40000000       0.40000000 </v>
    <v>       0.40000000       0.40000000       0.40000000 </v>
    <v>       0.40000000      -0.40000000       0.40000000 </v>
   </varray>
   <varray name="weights" >
    <v>       0.00800000 </v>
    <v>       0.01600000 </v>
    <v>       0.01600000 </v>
    <v>       0.03200000 </v>
    <v>       0.06400000 </v>
    <v>       0.06400000 </v>
    <v>       0.03200000 </v>
    <v>       0.06400000 </v>
    <v>       0.06400000 </v>
    <v>       0.01600000 </v>
    <v>       0.01600000 </v>
    <v>       0.03200000 </v>
    <v>       0.03200000 </v>
    <v>       0.03200000 </v>
    <v>       0.03200000 </v>
    <v>       0.03200000 </v>
    <v>       0.03200000 </v>
    <v>       0.06400000 </v>
    <v>       0.06400000 </v>
    <v>       0.06400000 </v>
    <v>       0.06400000 </v>
    <v>       0.01600000 </v>
    <v>       0.01600000 </v>
    <v>       0.03200000 </v>
    <v>       0.03200000 </v>
    <v>       0.03200000 </v>
    <v>       0.03200000 </v>
   </varray>
   <varray name="tetrahedronlist"  type="int" >
    <v type="int" >        4       12       14       18       20 </v>
    <v type="int" >        4       12       18       18       20 </v>
    <v type="int" >        4       18       18       20       24 </v>
    <v type="int" >        4       14       18       20       20 </v>
    <v type="int" >        4       18       20       20       26 </v>
    <v type="int" >        4       18       20       24       26 </v>
    <v type="int" >        2       14       14       20       20 </v>
    <v type="int" >        4       14       20       20       20 </v>
    <v type="int" >        4       20       20       20       26 </v>
    <v type="int" >        2       20       20       26       26 </v>
    <v type="int" >        4       10       12       16       18 </v>
    <v type="int" >        4       12       16       18       18 </v>
    <v type="int" >        4       16       18       18       24 </v>
    <v type="int" >        4       10       16       16       18 </v>
    <v type="int" >        4       16       16       18       22 </v>
    <v type="int" >        4       16       18       22       24 </v>
    <v type="int" >        4       18       20       21       24 </v>
    <v type="int" >        4       18       19       21       24 </v>
    <v type="int" >        4       19       21       24       25 </v>
    <v type="int" >        4       20       21       24       26 </v>
    <v type="int" >        4       21       24       26       27 </v>
    <v type="int" >        4       21       24       25       27 </v>
    <v type="int" >        4       20       20       21       26 </v>
    <v type="int" >        4       20       21       21       26 </v>
    <v type="int" >        4       21       21       26       27 </v>
    <v type="int" >        4       20       21       26       26 </v>
    <v type="int" >        4       21       26       26       27 </v>
    <v type="int" >        4       21       26       27       27 </v>
    <v type="int" >        4       18       19       20       26 </v>
    <v type="int" >        4       19       20       21       26 </v>
    <v type="int" >        4       19       21       26       27 </v>
    <v type="int" >        4       18       19       24       26 </v>
    <v type="int" >        4       19       24       25       26 </v>
    <v type="int" >        4       19       25       26       27 </v>
    <v type="int" >        4       16       17       18       24 </v>
    <v type="int" >        4       17       18       19       24 </v>
    <v type="int" >        4       17       19       24       25 </v>
    <v type="int" >        4       16       17       22       24 </v>
    <v type="int" >        4       17       22       23       24 </v>
    <v type="int" >        4       17       23       24       25 </v>
    <v type="int" >        4       16       18       19       22 </v>
    <v type="int" >        4       16       17       19       22 </v>
    <v type="int" >        4       17       19       22       23 </v>
    <v type="int" >        4       18       19       22       24 </v>
    <v type="int" >        4       19       22       24       25 </v>
    <v type="int" >        4       19       22       23       25 </v>
    <v type="int" >        4       15       19       21       25 </v>
    <v type="int" >        4       13       15       19       25 </v>
    <v type="int" >        4       15       21       25       27 </v>
    <v type="int" >        4       15       21       21       27 </v>
    <v type="int" >        4       15       15       21       27 </v>
    <v type="int" >        4       15       21       27       27 </v>
    <v type="int" >        4       13       19       21       27 </v>
    <v type="int" >        4       13       15       21       27 </v>
    <v type="int" >        4       13       19       25       27 </v>
    <v type="int" >        4       11       17       19       25 </v>
    <v type="int" >        4       11       13       19       25 </v>
    <v type="int" >        4       11       17       23       25 </v>
    <v type="int" >        4       13       17       19       23 </v>
    <v type="int" >        4       11       13       17       23 </v>
    <v type="int" >        4       13       19       23       25 </v>
    <v type="int" >        4        6       13       15       19 </v>
    <v type="int" >        4        5        6       13       19 </v>
    <v type="int" >        4        5        6        8       19 </v>
    <v type="int" >        4        6       15       19       21 </v>
    <v type="int" >        4        6        9       19       21 </v>
    <v type="int" >        4        6        8        9       19 </v>
    <v type="int" >        4        6       15       15       21 </v>
    <v type="int" >        4        6        6       15       21 </v>
    <v type="int" >        4        6        6        9       21 </v>
    <v type="int" >        4        6       15       21       21 </v>
    <v type="int" >        4        6        9       21       21 </v>
    <v type="int" >        4        6        9        9       21 </v>
    <v type="int" >        4        5       13       15       21 </v>
    <v type="int" >        4        5        6       15       21 </v>
    <v type="int" >        4        5        6        9       21 </v>
    <v type="int" >        4        5       13       19       21 </v>
    <v type="int" >        4        5        8       19       21 </v>
    <v type="int" >        4        5        8        9       21 </v>
    <v type="int" >        4        4       11       13       19 </v>
    <v type="int" >        4        4        5       13       19 </v>
    <v type="int" >        4        4        5        8       19 </v>
    <v type="int" >        4        4       11       17       19 </v>
    <v type="int" >        4        4        7       17       19 </v>
    <v type="int" >        4        4        7        8       19 </v>
    <v type="int" >        4        5       11       13       17 </v>
    <v type="int" >        4        4        5       11       17 </v>
    <v type="int" >        4        4        5        7       17 </v>
    <v type="int" >        4        5       13       17       19 </v>
    <v type="int" >        4        5        8       17       19 </v>
    <v type="int" >        4        5        7        8       17 </v>
    <v type="int" >        4        5        6        8       14 </v>
    <v type="int" >        4        5        8       12       14 </v>
    <v type="int" >        4        8       12       14       18 </v>
    <v type="int" >        4        6        8        9       14 </v>
    <v type="int" >        4        8        9       14       20 </v>
    <v type="int" >        4        8       14       18       20 </v>
    <v type="int" >        4        6        6        9       14 </v>
    <v type="int" >        4        6        9       14       14 </v>
    <v type="int" >        4        9       14       14       20 </v>
    <v type="int" >        4        6        9        9       14 </v>
    <v type="int" >        4        9        9       14       20 </v>
    <v type="int" >        4        9       14       20       20 </v>
    <v type="int" >        4        5        6        9       12 </v>
    <v type="int" >        4        6        9       12       14 </v>
    <v type="int" >        4        9       12       14       20 </v>
    <v type="int" >        4        5        8        9       12 </v>
    <v type="int" >        4        8        9       12       18 </v>
    <v type="int" >        4        9       12       18       20 </v>
    <v type="int" >        4        4        5        8       10 </v>
    <v type="int" >        4        5        8       10       12 </v>
    <v type="int" >        4        8       10       12       18 </v>
    <v type="int" >        4        4        7        8       10 </v>
    <v type="int" >        4        7        8       10       16 </v>
    <v type="int" >        4        8       10       16       18 </v>
    <v type="int" >        4        4        5        7       12 </v>
    <v type="int" >        4        4        7       10       12 </v>
    <v type="int" >        4        7       10       12       16 </v>
    <v type="int" >        4        5        7        8       12 </v>
    <v type="int" >        4        7        8       12       18 </v>
    <v type="int" >        4        7       12       16       18 </v>
    <v type="int" >        4       24       25       26       27 </v>
    <v type="int" >        4       24       25       25       27 </v>
    <v type="int" >        4       25       26       27       27 </v>
    <v type="int" >        2       26       26       27       27 </v>
    <v type="int" >        4       26       27       27       27 </v>
    <v type="int" >        4       22       23       24       25 </v>
    <v type="int" >        4       23       24       25       25 </v>
    <v type="int" >        4       22       23       23       25 </v>
    <v type="int" >        4        9       18       19       21 </v>
    <v type="int" >        4        8        9       18       19 </v>
    <v type="int" >        4        8        8        9       18 </v>
    <v type="int" >        4        9       18       20       21 </v>
    <v type="int" >        4        9        9       18       20 </v>
    <v type="int" >        4        8        9        9       18 </v>
    <v type="int" >        4        9       20       21       21 </v>
    <v type="int" >        4        9        9       20       21 </v>
    <v type="int" >        8        9        9        9       20 </v>
    <v type="int" >        4        9       20       20       21 </v>
    <v type="int" >        4        9        9       20       20 </v>
    <v type="int" >        4        8       19       20       21 </v>
    <v type="int" >        4        8        9       20       21 </v>
    <v type="int" >        4        8        9        9       20 </v>
    <v type="int" >        4        8       18       19       20 </v>
    <v type="int" >        4        8        8       18       20 </v>
    <v type="int" >        4        8        8        9       20 </v>
    <v type="int" >        4        7       17       18       19 </v>
    <v type="int" >        4        7        8       18       19 </v>
    <v type="int" >        4        7        8        8       18 </v>
    <v type="int" >        4        7       16       17       18 </v>
    <v type="int" >        4        7        7       16       18 </v>
    <v type="int" >        4        7        7        8       18 </v>
    <v type="int" >        4        8       16       17       19 </v>
    <v type="int" >        4        7        8       16       17 </v>
    <v type="int" >        4        7        7        8       16 </v>
    <v type="int" >        4        8       16       18       19 </v>
    <v type="int" >        4        8        8       16       18 </v>
    <v type="int" >        4        7        8        8       16 </v>
    <v type="int" >        4        5        6       12       14 </v>
    <v type="int" >        4        5        5        6       12 </v>
    <v type="int" >        4        2        5        5        6 </v>
    <v type="int" >        4        5        6        6       14 </v>
    <v type="int" >        4        3        5        6        6 </v>
    <v type="int" >        4        2        3        5        6 </v>
    <v type="int" >        2        6        6       14       14 </v>
    <v type="int" >        4        6        6        6       14 </v>
    <v type="int" >        4        3        6        6        6 </v>
    <v type="int" >        2        3        3        6        6 </v>
    <v type="int" >        4        4        5       10       12 </v>
    <v type="int" >        4        4        5        5       12 </v>
    <v type="int" >        4        2        4        5        5 </v>
    <v type="int" >        4        4        4        5       10 </v>
    <v type="int" >        4        1        4        4        5 </v>
    <v type="int" >        4        1        2        4        5 </v>
    <v type="int" >        4        2        5        6       15 </v>
    <v type="int" >        4        2        5       13       15 </v>
    <v type="int" >        4        2        3        6       15 </v>
    <v type="int" >        4        3        6        6       15 </v>
    <v type="int" >        4        3        6       15       15 </v>
    <v type="int" >        4        3        3        6       15 </v>
    <v type="int" >        4        3        5        6       13 </v>
    <v type="int" >        4        3        6       13       15 </v>
    <v type="int" >        4        2        3        5       13 </v>
    <v type="int" >        4        2        4        5       11 </v>
    <v type="int" >        4        2        5       11       13 </v>
    <v type="int" >        4        1        2        4       11 </v>
    <v type="int" >        4        1        4        5       13 </v>
    <v type="int" >        4        1        4       11       13 </v>
    <v type="int" >        4        1        2        5       13 </v>
   </varray>
   <i name="volumeweight">      0.00133333 </i>
  </kpoints>
  <scstep>
   <time name="total">  119.06  120.55</time>
   <energy>
    <i name="e_fr_energy">   -103.44512888 </i>
    <i name="e_wo_entrp">   -103.44512888 </i>
    <i name="e_0_energy">   -103.44512888 </i>
   </energy>
  </scstep>
  <scstep>
   <time name="total">  108.07  109.43</time>
   <energy>
    <i name="e_fr_energy">   -214.70354886 </i>
    <i name="e_wo_entrp">   -214.70354886 </i>
    <i name="e_0_energy">   -214.70354886 </i>
   </energy>
  </scstep>
  <scstep>
   <time name="total">  109.26  110.62</time>
   <energy>
    <i name="e_fr_energy">   -211.64093017 </i>
    <i name="e_wo_entrp">   -211.64093017 </i>
    <i name="e_0_energy">   -211.64093017 </i>
   </energy>
  </scstep>
  <scstep>
   <time name="total">  106.49  107.82</time>
   <energy>
    <i name="e_fr_energy">   -203.70784080 </i>
    <i name="e_wo_entrp">   -203.70784080 </i>
    <i name="e_0_energy">   -203.70784080 </i>
   </energy>
  </scstep>
  <scstep>
   <time name="total">  110.64  112.01</time>
   <energy>
    <i name="e_fr_energy">   -202.95566584 </i>
    <i name="e_wo_entrp">   -202.95566584 </i>
    <i name="e_0_energy">   -202.95566584 </i>
   </energy>
  </scstep>
  <scstep>
   <time name="total">  112.82  114.22</time>
   <energy>
    <i name="e_fr_energy">   -202.89933139 </i>
    <i name="e_wo_entrp">   -202.89933139 </i>
    <i name="e_0_energy">   -202.89933139 </i>
   </energy>
  </scstep>
  <scstep>
   <time name="total">  110.72  112.10</time>
   <energy>
    <i name="e_fr_energy">   -202.82741815 </i>
    <i name="e_wo_entrp">   -202.82741815 </i>
    <i name="e_0_energy">   -202.82741815 </i>
   </energy>
  </scstep>
  <scstep>
   <time name="total">  112.63  114.04</time>
   <energy>
    <i name="e_fr_energy">   -202.81191308 </i>
    <i name="e_wo_entrp">   -202.81191308 </i>
    <i name="e_0_energy">   -202.81191308 </i>
   </energy>
  </scstep>
  <scstep>
   <time name="total">  113.49  114.91</time>
   <energy>
    <i name="e_fr_energy">   -202.81753078 </i>
    <i name="e_wo_entrp">   -202.81753078 </i>
    <i name="e_0_energy">   -202.81753078 </i>
   </energy>
  </scstep>
  <scstep>
   <time name="total">  119.40  120.88</time>
   <energy>
    <i name="e_fr_energy">   -202.81692619 </i>
    <i name="e_wo_entrp">   -202.81692619 </i>
    <i name="e_0_energy">   -202.81692619 </i>
   </energy>
  </scstep>
  <scstep>
   <time name="total">  120.64  122.14</time>
   <energy>
    <i name="e_fr_energy">   -202.81697822 </i>
    <i name="e_wo_entrp">   -202.81697822 </i>
    <i name="e_0_energy">   -202.81697822 </i>
   </energy>
  </scstep>
  <scstep>
   <time name="total">  112.26  113.66</time>
   <energy>
    <i name="e_fr_energy">   -202.81699710 </i>
    <i name="e_wo_entrp">   -202.81699710 </i>
    <i name="e_0_energy">   -202.81699710 </i>
   </energy>
  </scstep>
  <scstep>
   <time name="total">  114.04  115.45</time>
   <energy>
    <i name="e_fr_energy">   -202.81698103 </i>
    <i name="e_wo_entrp">   -202.81698103 </i>
    <i name="e_0_energy">   -202.81698103 </i>
   </energy>
  </scstep>
  <kpoints>
[...]
     <r>     7.3066     0.0000     0.0000     0.0000     0.0000     0.0000     0.0000 </r>
     <r>     7.3166     0.0000     0.0000     0.0000     0.0000     0.0000     0.0000 </r>
    </set>
   </array>
  </conductivity>
  <dos>
   <i name="efermi">      2.31019535 </i>
   <total>
    <array>
     <dimension dim="1">gridpoints</dimension>
     <dimension dim="2">spin</dimension>
     <field>energy</field>
     <field>total</field>
     <field>integrated</field>
     <set>
      <set comment="spin 1">
       <r>   -11.0276     0.0000     0.0000 </r>
       <r>   -10.9662     0.0000     0.0000 </r>
       <r>   -10.9048     0.0000     0.0000 </r>
       <r>   -10.8433     0.0000     0.0000 </r>
       <r>   -10.7819     0.0000     0.0000 </r>
       <r>   -10.7205     0.0000     0.0000 </r>
       <r>   -10.6591     0.0000     0.0000 </r>
       <r>   -10.5976     0.0000     0.0000 </r>
       <r>   -10.5362     0.0000     0.0000 </r>
       <r>   -10.4748     0.0000     0.0000 </r>
       <r>   -10.4133     0.0000     0.0000 </r>
       <r>   -10.3519     0.0000     0.0000 </r>
       <r>   -10.2905     0.0000     0.0000 </r>
       <r>   -10.2291     0.0000     0.0000 </r>
       <r>   -10.1676     0.0000     0.0000 </r>
       <r>   -10.1062     0.0000     0.0000 </r>
       <r>   -10.0448     0.0000     0.0000 </r>
       <r>    -9.9833     3.0001     0.0488 </r>
       <r>    -9.9219     4.8081     0.2932 </r>
       <r>    -9.8605    11.4777     0.7537 </r>
       <r>    -9.7990     7.6435     1.2854 </r>
       <r>    -9.7376     6.2735     1.7552 </r>
       <r>    -9.6762    11.4302     2.2364 </r>
       <r>    -9.6148    11.3183     2.9181 </r>
       <r>    -9.5533    15.2374     3.7804 </r>
       <r>    -9.4919    11.9383     4.5141 </r>
       <r>    -9.4305    22.2302     5.4358 </r>
       <r>    -9.3690    11.5670     6.5003 </r>
       <r>    -9.3076    14.8806     7.2737 </r>
       <r>    -9.2462    15.0908     8.2004 </r>
       <r>    -9.1848    27.4179     9.4259 </r>
       <r>    -9.1233    29.2915    11.1240 </r>
       <r>    -9.0619    16.5734    12.5845 </r>
       <r>    -9.0005    21.6009    13.3204 </r>
       <r>    -8.9390    25.5351    15.0419 </r>
       <r>    -8.8776    16.2642    16.2419 </r>
       <r>    -8.8162    41.5001    18.0249 </r>
       <r>    -8.7548    31.6399    20.2130 </r>
       <r>    -8.6933    32.4259    22.0333 </r>
       <r>    -8.6319    47.5088    24.1701 </r>
       <r>    -8.5705    54.5944    26.5707 </r>
       <r>    -8.5090    59.7554    29.9756 </r>
       <r>    -8.4476    52.8557    33.5198 </r>
       <r>    -8.3862    59.5284    36.9313 </r>
       <r>    -8.3247    61.3600    40.1360 </r>
       <r>    -8.2633    44.3664    42.3949 </r>
       <r>    -8.2019    36.8898    45.3862 </r>
       <r>    -8.1405    82.0600    49.2629 </r>
       <r>    -8.0790    54.1561    52.4806 </r>
       <r>    -8.0176    66.0750    55.8873 </r>
       <r>    -7.9562    84.2349    60.2643 </r>
       <r>    -7.8947    32.2055    63.5793 </r>
       <r>    -7.8333     2.6046    64.0000 </r>
       <r>    -7.7719     0.0000    64.0000 </r>
       <r>    -7.7105     0.0000    64.0000 </r>
       <r>    -7.6490     0.0000    64.0000 </r>
       <r>    -7.5876     0.0000    64.0000 </r>
       <r>    -7.5262     0.0000    64.0000 </r>
       <r>    -7.4647     0.0000    64.0000 </r>
       <r>    -7.4033     0.0000    64.0000 </r>
       <r>    -7.3419     0.0000    64.0000 </r>
       <r>    -7.2804     0.0000    64.0000 </r>
       <r>    -7.2190     0.0000    64.0000 </r>
       <r>    -7.1576     0.0000    64.0000 </r>
       <r>    -7.0962     0.0000    64.0000 </r>
       <r>    -7.0347     0.0000    64.0000 </r>
       <r>    -6.9733     0.0000    64.0000 </r>
       <r>    -6.9119     0.0000    64.0000 </r>
       <r>    -6.8504     0.0000    64.0000 </r>
       <r>    -6.7890     0.0000    64.0000 </r>
       <r>    -6.7276     0.0000    64.0000 </r>
       <r>    -6.6662     0.0000    64.0000 </r>
       <r>    -6.6047     0.0000    64.0000 </r>
       <r>    -6.5433     0.0000    64.0000 </r>
       <r>    -6.4819     0.0000    64.0000 </r>
       <r>    -6.4204     0.0000    64.0000 </r>
       <r>    -6.3590     0.0000    64.0000 </r>
       <r>    -6.2976     0.0000    64.0000 </r>
       <r>    -6.2362     0.0000    64.0000 </r>
       <r>    -6.1747     0.0000    64.0000 </r>
       <r>    -6.1133     0.0000    64.0000 </r>
       <r>    -6.0519     0.0000    64.0000 </r>
       <r>    -5.9904     0.0000    64.0000 </r>
       <r>    -5.9290     0.0000    64.0000 </r>
       <r>    -5.8676     0.0000    64.0000 </r>
       <r>    -5.8061     0.0000    64.0000 </r>
       <r>    -5.7447     0.0000    64.0000 </r>
       <r>    -5.6833     0.0000    64.0000 </r>
       <r>    -5.6219     0.0000    64.0000 </r>
       <r>    -5.5604     0.0000    64.0000 </r>
       <r>    -5.4990     0.0000    64.0000 </r>
       <r>    -5.4376     0.0000    64.0000 </r>
       <r>    -5.3761     0.0000    64.0000 </r>
       <r>    -5.3147     0.0000    64.0000 </r>
       <r>    -5.2533     0.0000    64.0000 </r>
       <r>    -5.1919     0.0000    64.0000 </r>
       <r>    -5.1304     0.0000    64.0000 </r>
       <r>    -5.0690     0.0000    64.0000 </r>
       <r>    -5.0076     0.0000    64.0000 </r>
       <r>    -4.9461     0.0000    64.0000 </r>
       <r>    -4.8847     0.0000    64.0000 </r>
       <r>    -4.8233     0.0000    64.0000 </r>
       <r>    -4.7618     0.0000    64.0000 </r>
       <r>    -4.7004     0.0000    64.0000 </r>
       <r>    -4.6390     0.0000    64.0000 </r>
       <r>    -4.5776     0.0000    64.0000 </r>
       <r>    -4.5161     0.0000    64.0000 </r>
       <r>    -4.4547     0.0000    64.0000 </r>
       <r>    -4.3933     0.0000    64.0000 </r>
       <r>    -4.3318     1.0424    64.0117 </r>
       <r>    -4.2704     4.9046    64.1787 </r>
       <r>    -4.2090    11.5789    64.5773 </r>
       <r>    -4.1476    25.8847    65.7453 </r>
       <r>    -4.0861    47.4068    67.7537 </r>
       <r>    -4.0247    77.6902    71.7497 </r>
       <r>    -3.9633   121.2945    76.3951 </r>
       <r>    -3.9018   120.8328    83.0267 </r>
       <r>    -3.8404    58.4441    87.3973 </r>
       <r>    -3.7790    87.7999    91.4936 </r>
       <r>    -3.7176    29.8311    93.9185 </r>
       <r>    -3.6561    17.0473    95.3120 </r>
       <r>    -3.5947    28.9053    96.7492 </r>
       <r>    -3.5333    42.6289    99.3870 </r>
       <r>    -3.4718    20.8913   101.0437 </r>
       <r>    -3.4104    17.0196   102.1874 </r>
       <r>    -3.3490    19.1193   103.2180 </r>
       <r>    -3.2875    51.4224   105.4531 </r>
       <r>    -3.2261    16.5923   107.0556 </r>
       <r>    -3.1647    14.7003   107.8738 </r>
       <r>    -3.1033     8.2121   108.5722 </r>
       <r>    -3.0418    10.6326   109.1028 </r>
       <r>    -2.9804    13.0702   109.8447 </r>
       <r>    -2.9190    20.7987   110.7515 </r>
       <r>    -2.8575    14.1376   111.7392 </r>
       <r>    -2.7961    13.3691   112.5767 </r>
       <r>    -2.7347    13.1421   113.3884 </r>
       <r>    -2.6733    13.3140   114.1988 </r>
       <r>    -2.6118    11.4651   114.9701 </r>
       <r>    -2.5504     8.8300   115.6220 </r>
       <r>    -2.4890     5.9255   116.0594 </r>
       <r>    -2.4275     6.9928   116.4517 </r>
       <r>    -2.3661     8.0001   116.9109 </r>
       <r>    -2.3047    10.4249   117.4578 </r>
       <r>    -2.2432    11.5409   118.1621 </r>
       <r>    -2.1818     9.0129   118.8102 </r>
       <r>    -2.1204     7.7536   119.2946 </r>
       <r>    -2.0590     6.9721   119.7963 </r>
       <r>    -1.9975     5.0833   120.1182 </r>
       <r>    -1.9361     4.3247   120.3954 </r>
       <r>    -1.8747     3.9149   120.6476 </r>
       <r>    -1.8132     3.8212   120.8838 </r>
       <r>    -1.7518     3.9862   121.1226 </r>
       <r>    -1.6904     5.9894   121.4083 </r>
       <r>    -1.6290    10.2574   121.8896 </r>
       <r>    -1.5675     8.6751   122.4771 </r>
       <r>    -1.5061     7.6974   122.9833 </r>
       <r>    -1.4447     5.7641   123.3823 </r>
       <r>    -1.3832     7.3218   123.7681 </r>
       <r>    -1.3218    18.8064   124.4446 </r>
       <r>    -1.2604    30.1748   126.0539 </r>
       <r>    -1.1990    46.3651   128.1393 </r>
       <r>    -1.1375    46.5175   131.2805 </r>
       <r>    -1.0761    41.6495   133.7921 </r>
       <r>    -1.0147    54.9219   137.0033 </r>
       <r>    -0.9532    47.9452   139.9318 </r>
       <r>    -0.8918    32.7470   142.0592 </r>
       <r>    -0.8304    32.5614   144.1934 </r>
       <r>    -0.7689    35.9195   146.1747 </r>
       <r>    -0.7075    35.5529   148.0611 </r>
       <r>    -0.6461    43.6111   150.2443 </r>
       <r>    -0.5847    66.2084   152.5002 </r>
       <r>    -0.5232    45.3984   155.0014 </r>
       <r>    -0.4618    46.8212   157.6853 </r>
       <r>    -0.4004    46.2827   160.6780 </r>
       <r>    -0.3389    52.1876   163.6706 </r>
       <r>    -0.2775    49.1322   166.8309 </r>
       <r>    -0.2161    41.6964   169.6936 </r>
       <r>    -0.1547    60.1875   172.5775 </r>
       <r>    -0.0932    55.9149   175.9155 </r>
       <r>    -0.0318    52.5165   179.5196 </r>
       <r>     0.0296    69.9045   183.0246 </r>
       <r>     0.0911    48.0987   185.9215 </r>
       <r>     0.1525    61.6129   189.1523 </r>
       <r>     0.2139    36.7255   192.2074 </r>
       <r>     0.2754    51.2010   194.5083 </r>
       <r>     0.3368    56.5814   198.1656 </r>
       <r>     0.3982    54.3760   201.1858 </r>
       <r>     0.4596    49.1262   204.2873 </r>
       <r>     0.5211    64.5181   208.1075 </r>
       <r>     0.5825    45.9533   210.8839 </r>
       <r>     0.6439    57.4411   214.0638 </r>
       <r>     0.7054    53.6632   216.9464 </r>
       <r>     0.7668    48.1041   219.7906 </r>
       <r>     0.8282    46.8205   222.1867 </r>
       <r>     0.8896    51.8506   225.3249 </r>
       <r>     0.9511    38.0033   227.9702 </r>
       <r>     1.0125    41.9833   230.4306 </r>
       <r>     1.0739    46.4776   233.1731 </r>
       <r>     1.1354    39.2750   235.5896 </r>
       <r>     1.1968    46.4654   238.5450 </r>
       <r>     1.2582    40.9691   241.1747 </r>
       <r>     1.3196    30.6374   243.2706 </r>
       <r>     1.3811    25.1976   244.9620 </r>
       <r>     1.4425    22.7815   246.4704 </r>
       <r>     1.5039    20.0447   247.7789 </r>
       <r>     1.5654    19.5888   249.0607 </r>
       <r>     1.6268    15.7653   250.1458 </r>
       <r>     1.6882    13.0758   250.9295 </r>
       <r>     1.7497    15.9848   251.7858 </r>
       <r>     1.8111    13.7093   252.9066 </r>
       <r>     1.8725     8.2923   253.4722 </r>
       <r>     1.9339    11.9402   254.0161 </r>
       <r>     1.9954    12.4745   254.8293 </r>
       <r>     2.0568     6.3175   255.3955 </r>
       <r>     2.1182     3.8984   255.7110 </r>
       <r>     2.1797     2.9569   255.9190 </r>
       <r>     2.2411     0.3090   255.9963 </r>
       <r>     2.3025     0.0000   256.0000 </r>
       <r>     2.3639     0.0006   256.0000 </r>
       <r>     2.4254     0.0033   256.0001 </r>
       <r>     2.4868     0.0082   256.0005 </r>
       <r>     2.5482     0.0152   256.0012 </r>
       <r>     2.6097     0.0244   256.0024 </r>
       <r>     2.6711     0.0358   256.0042 </r>
       <r>     2.7325     0.0492   256.0068 </r>
       <r>     2.7940     0.0649   256.0103 </r>
       <r>     2.8554     0.0827   256.0148 </r>
       <r>     2.9168     0.1026   256.0205 </r>
       <r>     2.9782     0.1247   256.0275 </r>
       <r>     3.0397     0.1490   256.0359 </r>
       <r>     3.1011     0.1938   256.0460 </r>
       <r>     3.1625     0.5888   256.0662 </r>
       <r>     3.2240     1.3865   256.1272 </r>
       <r>     3.2854     2.1252   256.2353 </r>
       <r>     3.3468     3.0342   256.3876 </r>
       <r>     3.4082     5.3163   256.7260 </r>
       <r>     3.4697     6.8556   257.0850 </r>
       <r>     3.5311     8.5581   257.5745 </r>
       <r>     3.5925     6.8798   258.0198 </r>
       <r>     3.6540     8.4470   258.5022 </r>
       <r>     3.7154    11.2358   259.1109 </r>
       <r>     3.7768    15.7478   259.8469 </r>
       <r>     3.8382    20.7571   261.1722 </r>
       <r>     3.8997    27.9121   262.4598 </r>
       <r>     3.9611    29.3708   264.1721 </r>
       <r>     4.0225    26.4180   265.9978 </r>
       <r>     4.0840    21.5946   267.3225 </r>
       <r>     4.1454    23.1482   268.6737 </r>
       <r>     4.2068    40.3032   270.4056 </r>
       <r>     4.2683    45.4660   272.8145 </r>
       <r>     4.3297    36.4080   275.3598 </r>
       <r>     4.3911    57.8352   278.2827 </r>
       <r>     4.4525    50.5845   281.2362 </r>
       <r>     4.5140    55.7375   284.5457 </r>
       <r>     4.5754    68.9276   288.4103 </r>
       <r>     4.6368    61.4789   292.3386 </r>
       <r>     4.6983    66.4984   295.8880 </r>
       <r>     4.7597    51.8835   299.3599 </r>
       <r>     4.8211    50.0712   302.4403 </r>
       <r>     4.8825    48.3432   305.3704 </r>
       <r>     4.9440    37.2954   307.8976 </r>
       <r>     5.0054    37.3042   310.1937 </r>
       <r>     5.0668    32.2042   312.3063 </r>
       <r>     5.1283    31.6731   314.2302 </r>
       <r>     5.1897    34.0955   316.3629 </r>
       <r>     5.2511    20.8144   317.9027 </r>
       <r>     5.3126    34.1638   319.4066 </r>
       <r>     5.3740    39.9097   321.4137 </r>
       <r>     5.4354    23.3472   323.1428 </r>
       <r>     5.4968    39.7964   324.9991 </r>
       <r>     5.5583    25.4793   326.9434 </r>
       <r>     5.6197    19.2736   328.2149 </r>
       <r>     5.6811    23.4901   329.4694 </r>
       <r>     5.7426    23.3188   330.8353 </r>
       <r>     5.8040    18.9528   332.1474 </r>
       <r>     5.8654    14.7790   333.1659 </r>
       <r>     5.9268    11.6283   333.9712 </r>
       <r>     5.9883     9.2812   334.6337 </r>
       <r>     6.0497     6.0554   335.0878 </r>
       <r>     6.1111     4.2680   335.4232 </r>
       <r>     6.1726     2.8790   335.6262 </r>
       <r>     6.2340     2.0968   335.7890 </r>
       <r>     6.2954     1.2656   335.8994 </r>
       <r>     6.3568     0.6952   335.9512 </r>
       <r>     6.4183     0.5209   336.0000 </r>
       <r>     6.4797     0.0000   336.0000 </r>
       <r>     6.5411     0.0000   336.0000 </r>
       <r>     6.6026     0.0000   336.0000 </r>
       <r>     6.6640     0.0000   336.0000 </r>
       <r>     6.7254     0.0000   336.0000 </r>
       <r>     6.7869     0.0000   336.0000 </r>
       <r>     6.8483     0.0000   336.0000 </r>
       <r>     6.9097     0.0000   336.0000 </r>
       <r>     6.9711     0.0000   336.0000 </r>
       <r>     7.0326     0.0000   336.0000 </r>
       <r>     7.0940     0.0000   336.0000 </r>
       <r>     7.1554     0.0000   336.0000 </r>
       <r>     7.2169     0.0000   336.0000 </r>
       <r>     7.2783     0.0000   336.0000 </r>
       <r>     7.3397     0.0000   336.0000 </r>
       <r>     7.4011     0.0000   336.0000 </r>
      </set>
     </set>
    </array>
   </total>
  </dos>
 </calculation>
 <structure name="finalpos" >
  <crystal>
   <varray name="basis" >
    <v>      11.75733583       0.00000000       0.00000000 </v>
    <v>       0.00000000      11.45533367       0.00000000 </v>
    <v>       0.00000000       0.00000000      11.45533367 </v>
   </varray>
   <i name="volume">   1542.85250966 </i>
   <varray name="rec_basis" >
    <v>       0.08505328       0.00000000       0.00000000 </v>
    <v>       0.00000000       0.08729558       0.00000000 </v>
    <v>       0.00000000       0.00000000       0.08729558 </v>
   </varray>
  </crystal>
  <varray name="positions" >
   <v>       0.00000000       0.00000000       0.00000000 </v>
   <v>       0.00000000       0.00000000       0.50000000 </v>
   <v>       0.00000000       0.50000000       0.00000000 </v>
   <v>       0.00000000       0.50000000       0.50000000 </v>
   <v>       0.50000000       0.00000000       0.00000000 </v>
   <v>       0.50000000       0.00000000       0.50000000 </v>
   <v>       0.50000000       0.50000000       0.00000000 </v>
   <v>       0.50000000       0.50000000       0.50000000 </v>
   <v>       0.25000000       0.25000000       0.00000000 </v>
   <v>       0.25000000       0.25000000       0.50000000 </v>
   <v>       0.25000000       0.75000000       0.00000000 </v>
   <v>       0.25000000       0.75000000       0.50000000 </v>
   <v>       0.75000000       0.25000000       0.00000000 </v>
   <v>       0.75000000       0.25000000       0.50000000 </v>
   <v>       0.75000000       0.75000000       0.00000000 </v>
   <v>       0.75000000       0.75000000       0.50000000 </v>
   <v>       0.25000000       0.00000000       0.25000000 </v>
   <v>       0.25000000       0.00000000       0.75000000 </v>
   <v>       0.25000000       0.50000000       0.25000000 </v>
   <v>       0.25000000       0.50000000       0.75000000 </v>
   <v>       0.75000000       0.00000000       0.25000000 </v>
   <v>       0.75000000       0.00000000       0.75000000 </v>
   <v>       0.75000000       0.50000000       0.25000000 </v>
   <v>       0.75000000       0.50000000       0.75000000 </v>
   <v>       0.00000000       0.25000000       0.25000000 </v>
   <v>       0.00000000       0.25000000       0.75000000 </v>
   <v>       0.00000000       0.75000000       0.25000000 </v>
   <v>       0.00000000       0.75000000       0.75000000 </v>
   <v>       0.50000000       0.25000000       0.25000000 </v>
   <v>       0.50000000       0.25000000       0.75000000 </v>
   <v>       0.50000000       0.75000000       0.25000000 </v>
   <v>       0.50000000       0.75000000       0.75000000 </v>
   <v>       0.12500000       0.12500000       0.12500000 </v>
   <v>       0.12500000       0.12500000       0.62500000 </v>
   <v>       0.12500000       0.62500000       0.12500000 </v>
   <v>       0.12500000       0.62500000       0.62500000 </v>
   <v>       0.62500000       0.12500000       0.12500000 </v>
   <v>       0.62500000       0.12500000       0.62500000 </v>
   <v>       0.62500000       0.62500000       0.12500000 </v>
   <v>       0.62500000       0.62500000       0.62500000 </v>
   <v>       0.37500000       0.12500000       0.37500000 </v>
   <v>       0.37500000       0.12500000       0.87500000 </v>
   <v>       0.37500000       0.62500000       0.37500000 </v>
   <v>       0.37500000       0.62500000       0.87500000 </v>
   <v>       0.87500000       0.12500000       0.37500000 </v>
   <v>       0.87500000       0.12500000       0.87500000 </v>
   <v>       0.87500000       0.62500000       0.37500000 </v>
   <v>       0.87500000       0.62500000       0.87500000 </v>
   <v>       0.37500000       0.37500000       0.12500000 </v>
   <v>       0.37500000       0.37500000       0.62500000 </v>
   <v>       0.37500000       0.87500000       0.12500000 </v>
   <v>       0.37500000       0.87500000       0.62500000 </v>
   <v>       0.87500000       0.37500000       0.12500000 </v>
   <v>       0.87500000       0.37500000       0.62500000 </v>
   <v>       0.87500000       0.87500000       0.12500000 </v>
   <v>       0.87500000       0.87500000       0.62500000 </v>
   <v>       0.12500000       0.37500000       0.37500000 </v>
   <v>       0.12500000       0.37500000       0.87500000 </v>
   <v>       0.12500000       0.87500000       0.37500000 </v>
   <v>       0.12500000       0.87500000       0.87500000 </v>
   <v>       0.62500000       0.37500000       0.37500000 </v>
   <v>       0.62500000       0.37500000       0.87500000 </v>
   <v>       0.62500000       0.87500000       0.37500000 </v>
   <v>       0.62500000       0.87500000       0.87500000 </v>
  </varray>
 </structure>
</modeling>
