 running    8 mpi-ranks, on    1 nodes
 distrk:  each k-point on    8 cores,    1 groups
 distr:  one band on    1 cores,    8 groups
 vasp.6.4.3 19Mar24 (build Aug 29 2024 15:27:20) complex                        
  
 POSCAR found type information on POSCAR AsGa
 POSCAR found :  2 types and      64 ions
 scaLAPACK will be used
 -----------------------------------------------------------------------------
|                                                                             |
|           W    W    AA    RRRRR   N    N  II  N    N   GGGG   !!!           |
|           W    W   A  A   R    R  NN   N  II  NN   N  G    G  !!!           |
|           W    W  A    A  R    R  N N  N  II  N N  N  G       !!!           |
|           W WW W  AAAAAA  RRRRR   N  N N  II  N  N N  G  GGG   !            |
|           WW  WW  A    A  R   R   N   NN  II  N   NN  G    G                |
|           W    W  A    A  R    R  N    N  II  N    N   GGGG   !!!           |
|                                                                             |
|     For optimal performance we recommend to set                             |
|       NCORE = 2 up to number-of-cores-per-socket                            |
|     NCORE specifies how many cores store one orbital (NPAR=cpu/NCORE).      |
|     This setting can greatly improve the performance of VASP for DFT.       |
|     The default, NCORE=1 might be grossly inefficient on modern             |
|     multi-core architectures or massively parallel machines. Do your        |
|     own testing! More info at https://www.vasp.at/wiki/index.php/NCORE      |
|     Unfortunately you need to use the default for GW and RPA                |
|     calculations (for HF NCORE is supported but not extensively tested      |
|     yet).                                                                   |
|                                                                             |
 -----------------------------------------------------------------------------

 -----------------------------------------------------------------------------
|                                                                             |
|               ----> ADVICE to this user running VASP <----                  |
|                                                                             |
|     You have a (more or less) 'large supercell' and for larger cells it     |
|     might be more efficient to use real-space projection operators.         |
|     Therefore, try LREAL= Auto in the INCAR file.                           |
|     Mind: For very accurate calculation, you might also keep the            |
|     reciprocal projection scheme (i.e. LREAL=.FALSE.).                      |
|                                                                             |
 -----------------------------------------------------------------------------

 LDA part: xc-table for (Slater+PW92), standard interpolation
 POSCAR, INCAR and KPOINTS ok, starting setup
 FFT: planning ... GRIDC
 FFT: planning ... GRID_SOFT
 FFT: planning ... GRID
 WAVECAR not read
 entering main loop
       N       E                     dE             d eps       ncg     rms          rms(c)
DAV:   1     0.926330861638E+03    0.92633E+03   -0.80665E+04  6048   0.101E+03
DAV:   2    -0.168153548356E+03   -0.10945E+04   -0.10432E+04  7176   0.169E+02
DAV:   3    -0.267403653533E+03   -0.99250E+02   -0.97841E+02  7384   0.520E+01
DAV:   4    -0.269977451591E+03   -0.25738E+01   -0.25439E+01  7312   0.869E+00
DAV:   5    -0.270051576748E+03   -0.74125E-01   -0.73878E-01  7384   0.130E+00    0.200E+01
DAV:   6    -0.265889144315E+03    0.41624E+01   -0.65585E+00  7032   0.358E+00    0.117E+01
DAV:   7    -0.265079194477E+03    0.80995E+00   -0.42861E+00  7280   0.297E+00    0.244E+00
DAV:   8    -0.265037826200E+03    0.41368E-01   -0.50414E-01  7080   0.109E+00    0.615E-01
DAV:   9    -0.265049648922E+03   -0.11823E-01   -0.35949E-02  6920   0.393E-01    0.232E-01
DAV:  10    -0.265050732946E+03   -0.10840E-02   -0.98100E-04  7568   0.594E-02    0.109E-01
DAV:  11    -0.265052066767E+03   -0.13338E-02   -0.22315E-03  6552   0.878E-02    0.501E-02
DAV:  12    -0.265052074407E+03   -0.76402E-05   -0.31083E-05  7400   0.115E-02    0.226E-02
DAV:  13    -0.265052083675E+03   -0.92684E-05   -0.79452E-05  6952   0.134E-02    0.971E-03
DAV:  14    -0.265052083088E+03    0.58762E-06   -0.41528E-06  5944   0.393E-03
 Linear response reoptimize wavefunctions to high precision
DAV:   1    -0.265052083633E+03   -0.54519E-06   -0.21923E-06  7248   0.197E-03
DAV:   2    -0.265052083642E+03   -0.90058E-08   -0.89746E-08  6096   0.555E-04
DAV:   3    -0.265052083642E+03   -0.20464E-09   -0.17225E-09  3752   0.812E-05
 Linear response G [H, r] |phi>, progress :
  Direction:   1
       N       E                     dE             d eps       ncg     rms
RMM:   1    -0.127092633495E+04   -0.12709E+04    0.17664E+03 14201   0.837E+01
RMM:   2    -0.109825697346E+04    0.17267E+03   -0.20466E+02  9792   0.227E+01
RMM:   3    -0.110043896103E+04   -0.21820E+01   -0.99809E+00 10086   0.379E+00
RMM:   4    -0.110055706650E+04   -0.11811E+00   -0.29762E-01 10505   0.673E-01
RMM:   5    -0.110056082015E+04   -0.37537E-02   -0.18006E-02 10512   0.144E-01
RMM:   6    -0.110056109097E+04   -0.27082E-03   -0.32159E-03 10990   0.382E-02
RMM:   7    -0.110056110379E+04   -0.12825E-04   -0.22792E-03 11428   0.184E-02
RMM:   8    -0.110056110277E+04    0.10266E-05   -0.24507E-03 12149   0.151E-02
RMM:   9    -0.110056110320E+04   -0.43020E-06   -0.20690E-03 12309   0.146E-02
RMM:  10    -0.110056110491E+04   -0.17157E-05   -0.20617E-03 12540   0.146E-02
RMM:  11    -0.110056110657E+04   -0.16612E-05   -0.22388E-03 12808   0.145E-02
 Linear response G [H, r] |phi>, progress :
  Direction:   2
       N       E                     dE             d eps       ncg     rms
RMM:   1    -0.124804623541E+04   -0.12480E+04    0.18971E+03 14302   0.837E+01
RMM:   2    -0.111333080666E+04    0.13472E+03   -0.20317E+02  9761   0.226E+01
RMM:   3    -0.111544582635E+04   -0.21150E+01   -0.99893E+00 10073   0.377E+00
RMM:   4    -0.111556341549E+04   -0.11759E+00   -0.52947E-01 10501   0.662E-01
RMM:   5    -0.111556735960E+04   -0.39441E-02   -0.25706E-01 10492   0.144E-01
RMM:   6    -0.111555569272E+04    0.11667E-01   -0.12181E-01 11042   0.397E-02
RMM:   7    -0.111555852770E+04   -0.28350E-02   -0.14820E-01 11534   0.199E-02
RMM:   8    -0.111555578102E+04    0.27467E-02   -0.12143E-01 12249   0.165E-02
RMM:   9    -0.111555783593E+04   -0.20549E-02   -0.14069E-01 12431   0.161E-02
RMM:  10    -0.111555592018E+04    0.19157E-02   -0.12176E-01 12691   0.160E-02
RMM:  11    -0.111555772928E+04   -0.18091E-02   -0.13976E-01 12944   0.160E-02
 Linear response G [H, r] |phi>, progress :
  Direction:   3
       N       E                     dE             d eps       ncg     rms
RMM:   1    -0.137053365997E+04   -0.13705E+04    0.15217E+03 14641   0.858E+01
RMM:   2    -0.111851609721E+04    0.25202E+03   -0.23579E+02  9783   0.240E+01
RMM:   3    -0.112071975917E+04   -0.22037E+01   -0.11509E+01 10093   0.400E+00
RMM:   4    -0.112084522838E+04   -0.12547E+00   -0.54459E-01 10509   0.694E-01
RMM:   5    -0.112084828585E+04   -0.30575E-02   -0.25412E-01 10493   0.150E-01
RMM:   6    -0.112083702210E+04    0.11264E-01   -0.12066E-01 11002   0.409E-02
RMM:   7    -0.112084038297E+04   -0.33609E-02   -0.15339E-01 11529   0.207E-02
RMM:   8    -0.112083681861E+04    0.35644E-02   -0.11832E-01 12226   0.173E-02
RMM:   9    -0.112083917774E+04   -0.23591E-02   -0.14144E-01 12412   0.168E-02
RMM:  10    -0.112083731983E+04    0.18579E-02   -0.12297E-01 12685   0.168E-02
RMM:  11    -0.112083917380E+04   -0.18540E-02   -0.14100E-01 12976   0.168E-02
 Linear response to external field, progress :
  Direction:   1
       N       E                     dE             d eps       ncg     rms          rms(c)
RMM:   1    -0.103445128879E+03   -0.10345E+03   -0.76021E+02 15506   0.673E+00
RMM:   2    -0.214703548856E+03   -0.11126E+03   -0.70511E+00 14708   0.150E+00    0.119E+01
RMM:   3    -0.211640930173E+03    0.30626E+01   -0.13100E+00 14678   0.172E+00    0.694E+00
RMM:   4    -0.203707840799E+03    0.79331E+01   -0.18524E+00 14215   0.228E+00    0.803E-01
RMM:   5    -0.202955665835E+03    0.75217E+00   -0.79289E-02 14979   0.475E-01    0.146E-01
RMM:   6    -0.202899331389E+03    0.56334E-01   -0.40514E-03 15374   0.955E-02    0.813E-02
RMM:   7    -0.202827418154E+03    0.71913E-01   -0.30986E-03 15003   0.683E-02    0.248E-02
RMM:   8    -0.202811913078E+03    0.15505E-01   -0.71889E-04 15374   0.125E-02    0.712E-03
RMM:   9    -0.202817530778E+03   -0.56177E-02   -0.42006E-04 15760   0.689E-03    0.147E-03
RMM:  10    -0.202816926193E+03    0.60458E-03   -0.20307E-04 16273   0.218E-03    0.448E-04
RMM:  11    -0.202816978220E+03   -0.52027E-04   -0.51564E-05 15674   0.189E-03    0.112E-04
RMM:  12    -0.202816997097E+03   -0.18877E-04   -0.16852E-04 13721   0.174E-03    0.316E-05
RMM:  13    -0.202816981030E+03    0.16067E-04   -0.82449E-05 13847   0.173E-03    0.643E-06
 change of polarisation eV/A/(eV/A) component  1 :   424.890    -8.443   -12.509
 dielectric tensor                  component  1 :    50.833    -0.990    -1.467
 Linear response to external field, progress :
  Direction:   2
       N       E                     dE             d eps       ncg     rms          rms(c)
RMM:   1    -0.522265095874E+03   -0.52227E+03   -0.43950E+03 22655   0.693E+00
RMM:   2    -0.122383658286E+05   -0.11716E+05   -0.37544E+02 21405   0.159E+00    0.486E+01
RMM:   3    -0.121473407914E+05    0.91025E+02   -0.39372E+01 20288   0.896E+00    0.266E+01
RMM:   4    -0.120673524407E+05    0.79988E+02   -0.52008E+01 21758   0.970E+00    0.309E+00
RMM:   5    -0.120557253539E+05    0.11627E+02   -0.29958E+00 21622   0.255E+00    0.959E-01
RMM:   6    -0.120532687896E+05    0.24566E+01   -0.39730E-01 22254   0.461E-01    0.467E-01
RMM:   7    -0.120527832266E+05    0.48556E+00   -0.26750E-01 21967   0.229E-01    0.773E-02
RMM:   8    -0.120523919468E+05    0.39128E+00   -0.79255E-02 22911   0.491E-02    0.398E-02
RMM:   9    -0.120523551320E+05    0.36815E-01   -0.40541E-02 21476   0.273E-02    0.812E-03
RMM:  10    -0.120523490097E+05    0.61223E-02   -0.20571E-02 22888   0.842E-03    0.210E-03
RMM:  11    -0.120523498515E+05   -0.84180E-03   -0.54352E-03 24679   0.497E-03    0.541E-04
RMM:  12    -0.120523491492E+05    0.70232E-03    0.39755E-04 25788   0.392E-03    0.201E-04
RMM:  13    -0.120523491723E+05   -0.23132E-04   -0.19134E-03 26176   0.386E-03    0.114E-04
RMM:  14    -0.120523492493E+05   -0.76977E-04    0.56917E-04 26609   0.383E-03    0.306E-05
RMM:  15    -0.120523493212E+05   -0.71872E-04   -0.24129E-04 27209   0.383E-03    0.558E-06
 change of polarisation eV/A/(eV/A) component  2 :    -4.222 24303.054   -13.855
 dielectric tensor                  component  2 :    -0.495  2851.377    -1.625
 Linear response to external field, progress :
  Direction:   3
       N       E                     dE             d eps       ncg     rms          rms(c)
RMM:   1    -0.522267328386E+03   -0.52227E+03   -0.43950E+03 22655   0.693E+00
RMM:   2    -0.122383630937E+05   -0.11716E+05   -0.37544E+02 21404   0.159E+00    0.486E+01
RMM:   3    -0.121473406844E+05    0.91022E+02   -0.39403E+01 20288   0.896E+00    0.266E+01
RMM:   4    -0.120673517389E+05    0.79989E+02   -0.52048E+01 21758   0.970E+00    0.309E+00
RMM:   5    -0.120557178222E+05    0.11634E+02   -0.29906E+00 21623   0.255E+00    0.958E-01
RMM:   6    -0.120532611717E+05    0.24567E+01   -0.35441E-01 22254   0.461E-01    0.467E-01
RMM:   7    -0.120527744280E+05    0.48674E+00   -0.14879E-01 21964   0.229E-01    0.774E-02
RMM:   8    -0.120523860893E+05    0.38834E+00   -0.45723E-02 22904   0.491E-02    0.398E-02
RMM:   9    -0.120523508515E+05    0.35238E-01   -0.28636E-02 21477   0.273E-02    0.813E-03
RMM:  10    -0.120523451942E+05    0.56573E-02   -0.15824E-02 22909   0.842E-03    0.210E-03
RMM:  11    -0.120523461372E+05   -0.94303E-03   -0.20998E-03 24666   0.497E-03    0.542E-04
RMM:  12    -0.120523455847E+05    0.55249E-03   -0.36317E-04 25761   0.391E-03    0.201E-04
RMM:  13    -0.120523454679E+05    0.11683E-03    0.38930E-04 26153   0.385E-03    0.115E-04
RMM:  14    -0.120523456580E+05   -0.19015E-03   -0.13956E-04 26657   0.383E-03    0.303E-05
RMM:  15    -0.120523456148E+05    0.43281E-04   -0.28882E-05 27203   0.382E-03    0.553E-06
 change of polarisation eV/A/(eV/A) component  3 :   -10.878    -3.729 24303.049
 dielectric tensor                  component  3 :    -1.276    -0.437  2851.377
 Born effective charges drift removed
   1 F= -.26505208E+03 E0= -.26505208E+03  d E =-.265052E+03
 curvature:   0.00 expect dE= 0.000E+00 dE for cont linesearch  0.000E+00
 trial: gam= 0.00000 g(F)=  0.925E-58 g(S)=  0.000E+00 ort = 0.000E+00 (trialstep = 0.100E+01)
 search vector abs. value=  0.100E-09
 reached required accuracy - stopping structural energy minimisation
 writing wavefunctions
 optical routines
 imaginary and real dielectric function
 recalculating local potential from charge density
 direction            1
 direction            2
 direction            3
