  64  64   0   0
  0.2395285E+02  0.1155562E-08  0.1151787E-08  0.1151787E-08  0.1000000E-15
  1.000000000000000E-004
  CAR 
 GaAs                                    
      7.66132628    -11.02175139  301      2.31329530      1.00000000
    -11.022  0.0000E+00  0.0000E+00
    -10.959  0.0000E+00  0.0000E+00
    -10.897  0.0000E+00  0.0000E+00
    -10.835  0.0000E+00  0.0000E+00
    -10.773  0.0000E+00  0.0000E+00
    -10.710  0.0000E+00  0.0000E+00
    -10.648  0.0000E+00  0.0000E+00
    -10.586  0.0000E+00  0.0000E+00
    -10.524  0.0000E+00  0.0000E+00
    -10.461  0.0000E+00  0.0000E+00
    -10.399  0.0000E+00  0.0000E+00
    -10.337  0.0000E+00  0.0000E+00
    -10.274  0.0000E+00  0.0000E+00
    -10.212  0.0000E+00  0.0000E+00
    -10.150  0.0000E+00  0.0000E+00
    -10.088  0.0000E+00  0.0000E+00
    -10.025  0.0000E+00  0.0000E+00
     -9.963  0.3725E-01  0.9668E-03
     -9.901  0.5361E-01  0.3659E-02
     -9.838  0.1018E+00  0.9050E-02
     -9.776  0.7320E-01  0.1397E-01
     -9.714  0.6757E-01  0.1825E-01
     -9.652  0.1135E+00  0.2398E-01
     -9.589  0.1681E+00  0.3126E-01
     -9.527  0.1152E+00  0.3956E-01
     -9.465  0.1243E+00  0.4719E-01
     -9.403  0.1946E+00  0.5761E-01
     -9.340  0.9872E-01  0.6673E-01
     -9.278  0.1579E+00  0.7514E-01
     -9.216  0.1442E+00  0.8431E-01
     -9.153  0.2841E+00  0.9916E-01
     -9.091  0.3058E+00  0.1172E+00
     -9.029  0.9405E-01  0.1280E+00
     -8.967  0.5450E+00  0.1382E+00
     -8.904  0.2273E+00  0.1543E+00
     -8.842  0.1914E+00  0.1657E+00
     -8.780  0.4046E+00  0.1876E+00
     -8.718  0.2747E+00  0.2073E+00
     -8.655  0.3225E+00  0.2263E+00
     -8.593  0.3766E+00  0.2485E+00
     -8.531  0.5458E+00  0.2757E+00
     -8.468  0.5661E+00  0.3122E+00
     -8.406  0.1359E+01  0.3462E+00
     -8.344  0.6578E+00  0.3799E+00
     -8.282  0.4068E+00  0.4083E+00
     -8.219  0.4945E+00  0.4310E+00
     -8.157  0.6334E+00  0.4643E+00
     -8.095  0.6648E+00  0.5035E+00
     -8.032  0.5393E+00  0.5340E+00
     -7.970  0.7403E+00  0.5684E+00
     -7.908  0.7683E+00  0.6175E+00
     -7.846  0.7708E-01  0.6400E+00
     -7.783  0.0000E+00  0.6400E+00
     -7.721  0.0000E+00  0.6400E+00
     -7.659  0.0000E+00  0.6400E+00
     -7.597  0.0000E+00  0.6400E+00
     -7.534  0.0000E+00  0.6400E+00
     -7.472  0.0000E+00  0.6400E+00
     -7.410  0.0000E+00  0.6400E+00
     -7.347  0.0000E+00  0.6400E+00
     -7.285  0.0000E+00  0.6400E+00
     -7.223  0.0000E+00  0.6400E+00
     -7.161  0.0000E+00  0.6400E+00
     -7.098  0.0000E+00  0.6400E+00
     -7.036  0.0000E+00  0.6400E+00
     -6.974  0.0000E+00  0.6400E+00
     -6.911  0.0000E+00  0.6400E+00
     -6.849  0.0000E+00  0.6400E+00
     -6.787  0.0000E+00  0.6400E+00
     -6.725  0.0000E+00  0.6400E+00
     -6.662  0.0000E+00  0.6400E+00
     -6.600  0.0000E+00  0.6400E+00
     -6.538  0.0000E+00  0.6400E+00
     -6.476  0.0000E+00  0.6400E+00
     -6.413  0.0000E+00  0.6400E+00
     -6.351  0.0000E+00  0.6400E+00
     -6.289  0.0000E+00  0.6400E+00
     -6.226  0.0000E+00  0.6400E+00
     -6.164  0.0000E+00  0.6400E+00
     -6.102  0.0000E+00  0.6400E+00
     -6.040  0.0000E+00  0.6400E+00
     -5.977  0.0000E+00  0.6400E+00
     -5.915  0.0000E+00  0.6400E+00
     -5.853  0.0000E+00  0.6400E+00
     -5.790  0.0000E+00  0.6400E+00
     -5.728  0.0000E+00  0.6400E+00
     -5.666  0.0000E+00  0.6400E+00
     -5.604  0.0000E+00  0.6400E+00
     -5.541  0.0000E+00  0.6400E+00
     -5.479  0.0000E+00  0.6400E+00
     -5.417  0.0000E+00  0.6400E+00
     -5.355  0.0000E+00  0.6400E+00
     -5.292  0.0000E+00  0.6400E+00
     -5.230  0.0000E+00  0.6400E+00
     -5.168  0.0000E+00  0.6400E+00
     -5.105  0.0000E+00  0.6400E+00
     -5.043  0.0000E+00  0.6400E+00
     -4.981  0.0000E+00  0.6400E+00
     -4.919  0.0000E+00  0.6400E+00
     -4.856  0.0000E+00  0.6400E+00
     -4.794  0.0000E+00  0.6400E+00
     -4.732  0.0000E+00  0.6400E+00
     -4.670  0.0000E+00  0.6400E+00
     -4.607  0.0000E+00  0.6400E+00
     -4.545  0.0000E+00  0.6400E+00
     -4.483  0.0000E+00  0.6400E+00
     -4.420  0.0000E+00  0.6400E+00
     -4.358  0.0000E+00  0.6400E+00
     -4.296  0.0000E+00  0.6400E+00
     -4.234  0.3216E-01  0.6403E+00
     -4.171  0.1400E+00  0.6452E+00
     -4.109  0.2970E+00  0.6569E+00
     -4.047  0.6954E+00  0.6913E+00
     -3.984  0.7834E+00  0.7303E+00
     -3.922  0.1297E+01  0.7833E+00
     -3.860  0.1074E+01  0.8477E+00
     -3.798  0.5698E+00  0.8800E+00
     -3.735  0.1045E+01  0.9299E+00
     -3.673  0.1929E+00  0.9454E+00
     -3.611  0.1985E+00  0.9560E+00
     -3.549  0.5545E+00  0.9776E+00
     -3.486  0.2954E+00  0.9998E+00
     -3.424  0.1957E+00  0.1014E+01
     -3.362  0.1477E+00  0.1024E+01
     -3.299  0.3293E+00  0.1036E+01
     -3.237  0.2860E+00  0.1064E+01
     -3.175  0.1546E+00  0.1074E+01
     -3.113  0.1115E+00  0.1082E+01
     -3.050  0.7552E-01  0.1087E+01
     -2.988  0.1211E+00  0.1093E+01
     -2.926  0.1237E+00  0.1101E+01
     -2.863  0.1764E+00  0.1111E+01
     -2.801  0.1403E+00  0.1120E+01
     -2.739  0.1335E+00  0.1129E+01
     -2.677  0.1290E+00  0.1137E+01
     -2.614  0.1314E+00  0.1145E+01
     -2.552  0.1253E+00  0.1153E+01
     -2.490  0.6196E-01  0.1158E+01
     -2.428  0.6396E-01  0.1162E+01
     -2.365  0.7164E-01  0.1166E+01
     -2.303  0.8200E-01  0.1171E+01
     -2.241  0.1167E+00  0.1177E+01
     -2.178  0.1076E+00  0.1184E+01
     -2.116  0.6903E-01  0.1190E+01
     -2.054  0.8071E-01  0.1195E+01
     -1.992  0.6245E-01  0.1200E+01
     -1.929  0.4810E-01  0.1202E+01
     -1.867  0.4178E-01  0.1205E+01
     -1.805  0.3686E-01  0.1208E+01
     -1.742  0.3784E-01  0.1210E+01
     -1.680  0.4031E-01  0.1212E+01
     -1.618  0.7871E-01  0.1216E+01
     -1.556  0.9725E-01  0.1222E+01
     -1.493  0.8466E-01  0.1228E+01
     -1.431  0.6987E-01  0.1233E+01
     -1.369  0.6869E-01  0.1237E+01
     -1.307  0.1604E+00  0.1243E+01
     -1.244  0.2857E+00  0.1257E+01
     -1.182  0.4919E+00  0.1280E+01
     -1.120  0.4464E+00  0.1309E+01
     -1.057  0.4563E+00  0.1336E+01
     -0.995  0.4796E+00  0.1369E+01
     -0.933  0.3707E+00  0.1395E+01
     -0.871  0.4247E+00  0.1420E+01
     -0.808  0.3590E+00  0.1441E+01
     -0.746  0.2623E+00  0.1462E+01
     -0.684  0.3363E+00  0.1480E+01
     -0.622  0.3531E+00  0.1500E+01
     -0.559  0.4386E+00  0.1525E+01
     -0.497  0.4391E+00  0.1550E+01
     -0.435  0.4635E+00  0.1576E+01
     -0.372  0.5052E+00  0.1606E+01
     -0.310  0.4962E+00  0.1637E+01
     -0.248  0.4816E+00  0.1668E+01
     -0.186  0.4611E+00  0.1697E+01
     -0.123  0.4673E+00  0.1726E+01
     -0.061  0.6082E+00  0.1763E+01
      0.001  0.4621E+00  0.1797E+01
      0.064  0.5508E+00  0.1832E+01
      0.126  0.5177E+00  0.1861E+01
      0.188  0.5438E+00  0.1895E+01
      0.250  0.5054E+00  0.1927E+01
      0.313  0.4444E+00  0.1950E+01
      0.375  0.3970E+00  0.1979E+01
      0.437  0.6225E+00  0.2014E+01
      0.499  0.6950E+00  0.2048E+01
      0.562  0.7509E+00  0.2085E+01
      0.624  0.3694E+00  0.2115E+01
      0.686  0.5386E+00  0.2142E+01
      0.749  0.4963E+00  0.2173E+01
      0.811  0.4304E+00  0.2202E+01
      0.873  0.6169E+00  0.2228E+01
      0.935  0.4083E+00  0.2258E+01
      0.998  0.3553E+00  0.2281E+01
      1.060  0.4410E+00  0.2305E+01
      1.122  0.4613E+00  0.2334E+01
      1.185  0.4424E+00  0.2361E+01
      1.247  0.6311E+00  0.2393E+01
      1.309  0.3934E+00  0.2422E+01
      1.371  0.2430E+00  0.2440E+01
      1.434  0.1982E+00  0.2453E+01
      1.496  0.2284E+00  0.2468E+01
      1.558  0.2257E+00  0.2482E+01
      1.620  0.1877E+00  0.2496E+01
      1.683  0.1133E+00  0.2504E+01
      1.745  0.1315E+00  0.2511E+01
      1.807  0.1231E+00  0.2520E+01
      1.870  0.2028E+00  0.2532E+01
      1.932  0.5958E-01  0.2537E+01
      1.994  0.1227E+00  0.2542E+01
      2.056  0.1139E+00  0.2550E+01
      2.119  0.5347E-01  0.2556E+01
      2.181  0.3536E-01  0.2558E+01
      2.243  0.6130E-02  0.2560E+01
      2.306  0.0000E+00  0.2560E+01
      2.368  0.0000E+00  0.2560E+01
      2.430  0.4135E-06  0.2560E+01
      2.492  0.1670E-04  0.2560E+01
      2.555  0.5670E-04  0.2560E+01
      2.617  0.1204E-03  0.2560E+01
      2.679  0.2078E-03  0.2560E+01
      2.741  0.3190E-03  0.2560E+01
      2.804  0.4538E-03  0.2560E+01
      2.866  0.6124E-03  0.2560E+01
      2.928  0.7947E-03  0.2560E+01
      2.991  0.1001E-02  0.2560E+01
      3.053  0.1230E-02  0.2560E+01
      3.115  0.1484E-02  0.2560E+01
      3.177  0.1861E-02  0.2560E+01
      3.240  0.5951E-02  0.2561E+01
      3.302  0.1394E-01  0.2561E+01
      3.364  0.2157E-01  0.2562E+01
      3.426  0.3737E-01  0.2564E+01
      3.489  0.5406E-01  0.2567E+01
      3.551  0.7096E-01  0.2571E+01
      3.613  0.8507E-01  0.2576E+01
      3.676  0.6896E-01  0.2581E+01
      3.738  0.8494E-01  0.2586E+01
      3.800  0.1131E+00  0.2592E+01
      3.862  0.1387E+00  0.2599E+01
      3.925  0.2363E+00  0.2613E+01
      3.987  0.3091E+00  0.2626E+01
      4.049  0.3592E+00  0.2647E+01
      4.112  0.2483E+00  0.2667E+01
      4.174  0.2011E+00  0.2679E+01
      4.236  0.2660E+00  0.2693E+01
      4.298  0.3245E+00  0.2711E+01
      4.361  0.5457E+00  0.2740E+01
      4.423  0.3787E+00  0.2767E+01
      4.485  0.5708E+00  0.2792E+01
      4.547  0.6287E+00  0.2825E+01
      4.610  0.5299E+00  0.2861E+01
      4.672  0.7283E+00  0.2900E+01
      4.734  0.7342E+00  0.2942E+01
      4.797  0.6868E+00  0.2984E+01
      4.859  0.4174E+00  0.3019E+01
      4.921  0.3792E+00  0.3043E+01
      4.983  0.3747E+00  0.3069E+01
      5.046  0.4195E+00  0.3091E+01
      5.108  0.3610E+00  0.3117E+01
      5.170  0.3106E+00  0.3137E+01
      5.233  0.3443E+00  0.3157E+01
      5.295  0.2550E+00  0.3179E+01
      5.357  0.1781E+00  0.3190E+01
      5.419  0.3813E+00  0.3207E+01
      5.482  0.3218E+00  0.3228E+01
      5.544  0.2243E+00  0.3246E+01
      5.606  0.3929E+00  0.3266E+01
      5.668  0.1873E+00  0.3279E+01
      5.731  0.1980E+00  0.3291E+01
      5.793  0.2145E+00  0.3304E+01
      5.855  0.2035E+00  0.3317E+01
      5.918  0.1484E+00  0.3328E+01
      5.980  0.1219E+00  0.3336E+01
      6.042  0.1018E+00  0.3343E+01
      6.104  0.8378E-01  0.3349E+01
      6.167  0.6383E-01  0.3353E+01
      6.229  0.3309E-01  0.3356E+01
      6.291  0.1875E-01  0.3358E+01
      6.354  0.1230E-01  0.3359E+01
      6.416  0.8893E-02  0.3359E+01
      6.478  0.5855E-02  0.3360E+01
      6.540  0.2959E-03  0.3360E+01
      6.603  0.5916E-04  0.3360E+01
      6.665  0.0000E+00  0.3360E+01
      6.727  0.0000E+00  0.3360E+01
      6.789  0.0000E+00  0.3360E+01
      6.852  0.0000E+00  0.3360E+01
      6.914  0.0000E+00  0.3360E+01
      6.976  0.0000E+00  0.3360E+01
      7.039  0.0000E+00  0.3360E+01
      7.101  0.0000E+00  0.3360E+01
      7.163  0.0000E+00  0.3360E+01
      7.225  0.0000E+00  0.3360E+01
      7.288  0.0000E+00  0.3360E+01
      7.350  0.0000E+00  0.3360E+01
      7.412  0.0000E+00  0.3360E+01
      7.474  0.0000E+00  0.3360E+01
      7.537  0.0000E+00  0.3360E+01
      7.599  0.0000E+00  0.3360E+01
      7.661  0.0000E+00  0.3360E+01
