 vasp.6.4.3 19Mar24 (build Aug 29 2024 15:27:20) complex                        
  
 executed on             LinuxIFC date 2025.03.24  12:04:10
 running    8 mpi-ranks, on    1 nodes
 distrk:  each k-point on    8 cores,    1 groups
 distr:  one band on NCORE=   1 cores,    8 groups


--------------------------------------------------------------------------------------------------------


 INCAR:
   SYSTEM = GaAs
   PREC = Normal
   ENCUT = 400
   ISMEAR = -5
   SIGMA = 0.1
   IBRION = 2
   POTIM = 0.1
   NFREE = 2
   NSW = 100
   ISIF = 2
   LEPSILON = .TRUE.
   LOPTICS = .TRUE.

 POTCAR:    PAW_PBE As 22Sep2009                  
 POTCAR:    PAW_PBE Ga 08Apr2002                  
 -----------------------------------------------------------------------------
|                                                                             |
|           W    W    AA    RRRRR   N    N  II  N    N   GGGG   !!!           |
|           W    W   A  A   R    R  NN   N  II  NN   N  G    G  !!!           |
|           W    W  A    A  R    R  N N  N  II  N N  N  G       !!!           |
|           W WW W  AAAAAA  RRRRR   N  N N  II  N  N N  G  GGG   !            |
|           WW  WW  A    A  R   R   N   NN  II  N   NN  G    G                |
|           W    W  A    A  R    R  N    N  II  N    N   GGGG   !!!           |
|                                                                             |
|     For optimal performance we recommend to set                             |
|       NCORE = 2 up to number-of-cores-per-socket                            |
|     NCORE specifies how many cores store one orbital (NPAR=cpu/NCORE).      |
|     This setting can greatly improve the performance of VASP for DFT.       |
|     The default, NCORE=1 might be grossly inefficient on modern             |
|     multi-core architectures or massively parallel machines. Do your        |
|     own testing! More info at https://www.vasp.at/wiki/index.php/NCORE      |
|     Unfortunately you need to use the default for GW and RPA                |
|     calculations (for HF NCORE is supported but not extensively tested      |
|     yet).                                                                   |
|                                                                             |
 -----------------------------------------------------------------------------

 POTCAR:    PAW_PBE As 22Sep2009                  
   VRHFIN =As: s2p3                                                                                 
   LEXCH  = PE                                                                                      
   EATOM  =   170.1867 eV,   12.5084 Ry                                                             
                                                                                                    
   TITEL  = PAW_PBE As 22Sep2009                                                                    
   LULTRA =        F    use ultrasoft PP ?                                                          
   IUNSCR =        1    unscreen: 0-lin 1-nonlin 2-no                                               
   RPACOR =    1.900    partial core radius                                                         
   POMASS =   74.922; ZVAL   =    5.000    mass and valenz                                          
   RCORE  =    2.100    outmost cutoff radius                                                       
   RWIGS  =    2.300; RWIGS  =    1.217    wigner-seitz radius (au A)                               
   ENMAX  =  208.702; ENMIN  =  156.526 eV                                                          
   ICORE  =        3    local potential                                                             
   LCOR   =        T    correct aug charges                                                         
   LPAW   =        T    paw PP                                                                      
   EAUG   =  462.758                                                                                
   DEXC   =    0.000                                                                                
   RMAX   =    2.144    core radius for proj-oper                                                   
   RAUG   =    1.300    factor for augmentation sphere                                              
   RDEP   =    2.140    radius for radial grids                                                     
   RDEPT  =    1.956    core radius for aug-charge                                                  
                                                                                                    
   Atomic configuration                                                                             
   10 entries                                                                                       
     n  l   j            E        occ.                                                              
     1  0  0.50    -11718.0418   2.0000                                                             
     2  0  0.50     -1486.5454   2.0000                                                             
     2  1  1.50     -1303.3889   6.0000                                                             
     3  0  0.50      -190.2849   2.0000                                                             
     3  1  1.50      -133.6555   6.0000                                                             
     3  2  2.50       -40.6443  10.0000                                                             
     4  0  0.50       -14.4936   2.0000                                                             
     4  1  0.50        -5.1947   3.0000                                                             
     4  2  1.50        -5.4423   0.0000                                                             
     4  3  2.50        -5.4423   0.0000                                                             
   Description                                                                                      
     l       E           TYP  RCUT    TYP  RCUT                                                     
     0    -14.4935570     23  2.100                                                                 
     0    -11.9212055     23  2.100                                                                 
     1     -5.1947127     23  2.100                                                                 
     1     27.2116520     23  2.100                                                                 
     2     -5.4423304     23  2.100                                                                 
     3     -1.3605826      7  2.100                                                                 
  local pseudopotential read in
  partial core-charges read in
  partial kinetic energy density read in
  atomic valenz-charges read in
  non local Contribution for L=           0  read in
    real space projection operators read in
  non local Contribution for L=           0  read in
    real space projection operators read in
  non local Contribution for L=           1  read in
    real space projection operators read in
  non local Contribution for L=           1  read in
    real space projection operators read in
  non local Contribution for L=           2  read in
    real space projection operators read in
    PAW grid and wavefunctions read in
 
   number of l-projection  operators is LMAX  =           5
   number of lm-projection operators is LMMAX =          13
 
 POTCAR:    PAW_PBE Ga 08Apr2002                  
   VRHFIN =Ga: s2p1                                                                                 
   LEXCH  = PE                                                                                      
   EATOM  =    58.8688 eV,    4.3267 Ry                                                             
                                                                                                    
   TITEL  = PAW_PBE Ga 08Apr2002                                                                    
   LULTRA =        F    use ultrasoft PP ?                                                          
   IUNSCR =        1    unscreen: 0-lin 1-nonlin 2-no                                               
   RPACOR =    2.170    partial core radius                                                         
   POMASS =   69.723; ZVAL   =    3.000    mass and valenz                                          
   RCORE  =    2.600    outmost cutoff radius                                                       
   RWIGS  =    2.650; RWIGS  =    1.402    wigner-seitz radius (au A)                               
   ENMAX  =  134.678; ENMIN  =  101.009 eV                                                          
   ICORE  =        3    local potential                                                             
   LCOR   =        T    correct aug charges                                                         
   LPAW   =        T    paw PP                                                                      
   EAUG   =  320.264                                                                                
   DEXC   =    0.000                                                                                
   RMAX   =    2.658    core radius for proj-oper                                                   
   RAUG   =    1.300    factor for augmentation sphere                                              
   RDEP   =    2.684    radius for radial grids                                                     
   RDEPT  =    2.308    core radius for aug-charge                                                  
                                                                                                    
   Atomic configuration                                                                             
   10 entries                                                                                       
     n  l   j            E        occ.                                                              
     1  0  0.50    -10228.7830   2.0000                                                             
     2  0  0.50     -1262.1604   2.0000                                                             
     2  1  1.50     -1098.6333   6.0000                                                             
     3  0  0.50      -148.1110   2.0000                                                             
     3  1  1.50       -98.8436   6.0000                                                             
     3  2  2.50       -19.1549  10.0000                                                             
     4  0  0.50        -8.9483   2.0000                                                             
     4  1  0.50        -2.5791   1.0000                                                             
     4  2  1.50         5.4423   0.0000                                                             
     4  3  2.50        -2.7416   0.0000                                                             
   Description                                                                                      
     l       E           TYP  RCUT    TYP  RCUT                                                     
     0     -8.9483097     23  2.600                                                                 
     0     -5.8232215     23  2.600                                                                 
     1     -2.5790793     23  2.600                                                                 
     1      5.2230115     23  2.600                                                                 
     2      1.3605826     23  2.600                                                                 
     3     -1.3605826      7  2.600                                                                 
  local pseudopotential read in
  partial core-charges read in
  partial kinetic energy density read in
  atomic valenz-charges read in
  non local Contribution for L=           0  read in
    real space projection operators read in
  non local Contribution for L=           0  read in
    real space projection operators read in
  non local Contribution for L=           1  read in
    real space projection operators read in
  non local Contribution for L=           1  read in
    real space projection operators read in
  non local Contribution for L=           2  read in
    real space projection operators read in
    PAW grid and wavefunctions read in
 
   number of l-projection  operators is LMAX  =           5
   number of lm-projection operators is LMMAX =          13
 
 -----------------------------------------------------------------------------
|                                                                             |
|               ----> ADVICE to this user running VASP <----                  |
|                                                                             |
|     You have a (more or less) 'large supercell' and for larger cells it     |
|     might be more efficient to use real-space projection operators.         |
|     Therefore, try LREAL= Auto in the INCAR file.                           |
|     Mind: For very accurate calculation, you might also keep the            |
|     reciprocal projection scheme (i.e. LREAL=.FALSE.).                      |
|                                                                             |
 -----------------------------------------------------------------------------

  PAW_PBE As 22Sep2009                  :
 energy of atom  1       EATOM= -170.1867
 kinetic energy error for atom=    0.0013 (will be added to EATOM!!)
  PAW_PBE Ga 08Apr2002                  :
 energy of atom  2       EATOM=  -58.8688
 kinetic energy error for atom=    0.0001 (will be added to EATOM!!)
 
 
 POSCAR: cubic gallium arsenide
  positions in direct lattice
  velocities in cartesian coordinates


 exchange-correlation table for PE
   RHO(1)=    0.500       N(1)  =     2000
   RHO(2)=  100.500       N(2)  =     4000
 


--------------------------------------------------------------------------------------------------------


 ion  position               nearest neighbor table
   1  0.000  0.000  0.000-  33 2.50  46 2.50  55 2.50  60 2.50
   2  0.000  0.000  0.500-  34 2.50  45 2.50  56 2.50  59 2.50
   3  0.000  0.500  0.000-  35 2.50  48 2.50  53 2.50  58 2.50
   4  0.000  0.500  0.500-  36 2.50  47 2.50  54 2.50  57 2.50
   5  0.500  0.000  0.000-  37 2.50  42 2.50  51 2.50  64 2.50
   6  0.500  0.000  0.500-  38 2.50  41 2.50  52 2.50  63 2.50
   7  0.500  0.500  0.000-  39 2.50  44 2.50  49 2.50  62 2.50
   8  0.500  0.500  0.500-  40 2.50  43 2.50  50 2.50  61 2.50
   9  0.250  0.250  0.000-  33 2.50  42 2.50  49 2.50  58 2.50
  10  0.250  0.250  0.500-  34 2.50  41 2.50  50 2.50  57 2.50
  11  0.250  0.750  0.000-  35 2.50  44 2.50  51 2.50  60 2.50
  12  0.250  0.750  0.500-  36 2.50  43 2.50  52 2.50  59 2.50
  13  0.750  0.250  0.000-  37 2.50  46 2.50  53 2.50  62 2.50
  14  0.750  0.250  0.500-  38 2.50  45 2.50  54 2.50  61 2.50
  15  0.750  0.750  0.000-  39 2.50  48 2.50  55 2.50  64 2.50
  16  0.750  0.750  0.500-  40 2.50  47 2.50  56 2.50  63 2.50
  17  0.250  0.000  0.250-  33 2.50  41 2.50  51 2.50  59 2.50
  18  0.250  0.000  0.750-  34 2.50  42 2.50  52 2.50  60 2.50
  19  0.250  0.500  0.250-  35 2.50  43 2.50  49 2.50  57 2.50
  20  0.250  0.500  0.750-  36 2.50  44 2.50  50 2.50  58 2.50
  21  0.750  0.000  0.250-  37 2.50  45 2.50  55 2.50  63 2.50
  22  0.750  0.000  0.750-  38 2.50  46 2.50  56 2.50  64 2.50
  23  0.750  0.500  0.250-  39 2.50  47 2.50  53 2.50  61 2.50
  24  0.750  0.500  0.750-  40 2.50  48 2.50  54 2.50  62 2.50
  25  0.000  0.250  0.250-  33 2.50  45 2.50  53 2.50  57 2.50
  26  0.000  0.250  0.750-  34 2.50  46 2.50  54 2.50  58 2.50
  27  0.000  0.750  0.250-  35 2.50  47 2.50  55 2.50  59 2.50
  28  0.000  0.750  0.750-  36 2.50  48 2.50  56 2.50  60 2.50
  29  0.500  0.250  0.250-  37 2.50  41 2.50  49 2.50  61 2.50
  30  0.500  0.250  0.750-  38 2.50  42 2.50  50 2.50  62 2.50
  31  0.500  0.750  0.250-  39 2.50  43 2.50  51 2.50  63 2.50
  32  0.500  0.750  0.750-  40 2.50  44 2.50  52 2.50  64 2.50
  33  0.125  0.125  0.125-   1 2.50   9 2.50  17 2.50  25 2.50
  34  0.125  0.125  0.625-   2 2.50  10 2.50  18 2.50  26 2.50
  35  0.125  0.625  0.125-   3 2.50  11 2.50  19 2.50  27 2.50
  36  0.125  0.625  0.625-   4 2.50  12 2.50  20 2.50  28 2.50
  37  0.625  0.125  0.125-   5 2.50  13 2.50  21 2.50  29 2.50
  38  0.625  0.125  0.625-   6 2.50  14 2.50  22 2.50  30 2.50
  39  0.625  0.625  0.125-   7 2.50  15 2.50  23 2.50  31 2.50
  40  0.625  0.625  0.625-   8 2.50  16 2.50  24 2.50  32 2.50
  41  0.375  0.125  0.375-   6 2.50  10 2.50  17 2.50  29 2.50
  42  0.375  0.125  0.875-   5 2.50   9 2.50  18 2.50  30 2.50
  43  0.375  0.625  0.375-   8 2.50  12 2.50  19 2.50  31 2.50
  44  0.375  0.625  0.875-   7 2.50  11 2.50  20 2.50  32 2.50
  45  0.875  0.125  0.375-   2 2.50  14 2.50  21 2.50  25 2.50
  46  0.875  0.125  0.875-   1 2.50  13 2.50  22 2.50  26 2.50
  47  0.875  0.625  0.375-   4 2.50  16 2.50  23 2.50  27 2.50
  48  0.875  0.625  0.875-   3 2.50  15 2.50  24 2.50  28 2.50
  49  0.375  0.375  0.125-   7 2.50   9 2.50  19 2.50  29 2.50
  50  0.375  0.375  0.625-   8 2.50  10 2.50  20 2.50  30 2.50
  51  0.375  0.875  0.125-   5 2.50  11 2.50  17 2.50  31 2.50
  52  0.375  0.875  0.625-   6 2.50  12 2.50  18 2.50  32 2.50
  53  0.875  0.375  0.125-   3 2.50  13 2.50  23 2.50  25 2.50
  54  0.875  0.375  0.625-   4 2.50  14 2.50  24 2.50  26 2.50
  55  0.875  0.875  0.125-   1 2.50  15 2.50  21 2.50  27 2.50
  56  0.875  0.875  0.625-   2 2.50  16 2.50  22 2.50  28 2.50
  57  0.125  0.375  0.375-   4 2.50  10 2.50  19 2.50  25 2.50
  58  0.125  0.375  0.875-   3 2.50   9 2.50  20 2.50  26 2.50
  59  0.125  0.875  0.375-   2 2.50  12 2.50  17 2.50  27 2.50
  60  0.125  0.875  0.875-   1 2.50  11 2.50  18 2.50  28 2.50
  61  0.625  0.375  0.375-   8 2.50  14 2.50  23 2.50  29 2.50
  62  0.625  0.375  0.875-   7 2.50  13 2.50  24 2.50  30 2.50
  63  0.625  0.875  0.375-   6 2.50  16 2.50  21 2.50  31 2.50
  64  0.625  0.875  0.875-   5 2.50  15 2.50  22 2.50  32 2.50
 
  LATTYP: Found a simple tetragonal cell.
 ALAT       =    11.5178665637
 C/A-ratio  =     1.0032775401
  
  Lattice vectors:
  
 A1 = (   0.0000000000,  11.5178665637,   0.0000000000)
 A2 = (   0.0000000000,   0.0000000000,  11.5178665637)
 A3 = (  11.5556168331,   0.0000000000,   0.0000000000)


Analysis of symmetry for initial positions (statically):
=====================================================================
 Subroutine PRICEL returns following result:
 
  LATTYP: Found a body centered tetragonal cell.
 ALAT       =     4.0721807760
 C/A-ratio  =     1.4188487040
  
  Lattice vectors:
  
 A1 = (   2.8889042083,   0.0000000000,   2.8794666409)
 A2 = (   2.8889042083,   0.0000000000,  -2.8794666409)
 A3 = (  -2.8889042083,   2.8794666409,   0.0000000000)
 
  32 primitive cells build up your supercell.
 

 Routine SETGRP: Setting up the symmetry group for a 
 simple tetragonal supercell.


 Subroutine GETGRP returns: Found  8 space group operations
 (whereof  8 operations were pure point group operations)
 out of a pool of 16 trial point group operations.


The static configuration has the point symmetry D_2d.


Analysis of symmetry for dynamics (positions and initial velocities):
=====================================================================
 Subroutine PRICEL returns following result:
 
  LATTYP: Found a body centered tetragonal cell.
 ALAT       =     4.0721807760
 C/A-ratio  =     1.4188487040
  
  Lattice vectors:
  
 A1 = (   2.8889042083,   0.0000000000,   2.8794666409)
 A2 = (   2.8889042083,   0.0000000000,  -2.8794666409)
 A3 = (  -2.8889042083,   2.8794666409,   0.0000000000)
 
  32 primitive cells build up your supercell.
 

 Routine SETGRP: Setting up the symmetry group for a 
 simple tetragonal supercell.


 Subroutine GETGRP returns: Found  8 space group operations
 (whereof  8 operations were pure point group operations)
 out of a pool of 16 trial point group operations.


The dynamic configuration has the point symmetry D_2d.


 Subroutine INISYM returns: Found  8 space group operations
 (whereof  8 operations are pure point group operations),
 and found    32 'primitive' translations


----------------------------------------------------------------------------------------

                                     Primitive cell                                     

  volume of cell :      47.9057

  direct lattice vectors                    reciprocal lattice vectors
     2.888904208  0.000000000  2.879466641     0.173076005  0.173643269  0.173643269
     2.888904208  0.000000000 -2.879466641     0.173076005  0.173643269 -0.173643269
    -2.888904208  2.879466641  0.000000000     0.000000000  0.347286538  0.000000000

  length of vectors
     4.078859603  4.078859603  4.078859603     0.300431811  0.300431811  0.347286538

  position of ions in fractional coordinates (direct lattice)
     0.000000000  0.000000000  0.000000000
     0.750000000  0.250000000  0.500000000

  ion indices of the primitive-cell ions
   primitive index   ion index
                 1           1
                 2          33

----------------------------------------------------------------------------------------

 
 
 KPOINTS: Automatic mesh                          

Automatic generation of k-mesh.
 Grid dimensions read from file:
 generate k-points for:    5    5    5

 Generating k-lattice:

  Cartesian coordinates                     Fractional coordinates (reciprocal lattice)
     0.017307601  0.000000000  0.000000000     0.200000000  0.000000000  0.000000000
     0.000000000  0.017364327  0.000000000     0.000000000  0.200000000  0.000000000
     0.000000000  0.000000000  0.017364327     0.000000000  0.000000000  0.200000000

  Length of vectors
     0.017307601  0.017364327  0.017364327

  Shift w.r.t. Gamma in fractional coordinates (k-lattice)
     0.000000000  0.000000000  0.000000000

 TETIRR: Found    177 inequivalent tetrahedra from      750
 
 Subroutine IBZKPT returns following result:
 ===========================================
 
 Found     18 irreducible k-points:
 
 Following reciprocal coordinates:
            Coordinates               Weight
  0.000000  0.000000  0.000000      1.000000
  0.200000  0.000000  0.000000      2.000000
  0.400000  0.000000  0.000000      2.000000
  0.000000  0.200000  0.000000      4.000000
  0.200000  0.200000  0.000000      8.000000
  0.400000  0.200000  0.000000      8.000000
  0.000000  0.400000  0.000000      4.000000
  0.200000  0.400000  0.000000      8.000000
  0.400000  0.400000  0.000000      8.000000
  0.000000  0.200000  0.200000      4.000000
  0.200000  0.200000  0.200000      8.000000
  0.400000  0.200000  0.200000      8.000000
  0.000000  0.400000  0.200000      8.000000
  0.200000  0.400000  0.200000     16.000000
  0.400000  0.400000  0.200000     16.000000
  0.000000  0.400000  0.400000      4.000000
  0.200000  0.400000  0.400000      8.000000
  0.400000  0.400000  0.400000      8.000000
 
 Following cartesian coordinates:
            Coordinates               Weight
  0.000000  0.000000  0.000000      1.000000
  0.017308  0.000000  0.000000      2.000000
  0.034615  0.000000  0.000000      2.000000
  0.000000  0.017364  0.000000      4.000000
  0.017308  0.017364  0.000000      8.000000
  0.034615  0.017364  0.000000      8.000000
  0.000000  0.034729  0.000000      4.000000
  0.017308  0.034729  0.000000      8.000000
  0.034615  0.034729  0.000000      8.000000
  0.000000  0.017364  0.017364      4.000000
  0.017308  0.017364  0.017364      8.000000
  0.034615  0.017364  0.017364      8.000000
  0.000000  0.034729  0.017364      8.000000
  0.017308  0.034729  0.017364     16.000000
  0.034615  0.034729  0.017364     16.000000
  0.000000  0.034729  0.034729      4.000000
  0.017308  0.034729  0.034729      8.000000
  0.034615  0.034729  0.034729      8.000000
 
 
 Subroutine IBZKPT_HF returns following result:
 ==============================================
 
 Found    125 k-points in 1st BZ
 the following    125 k-points will be used (e.g. in the exchange kernel)
 Following reciprocal coordinates:   # in IRBZ
  0.000000  0.000000  0.000000    0.00800000   1 t-inv F
  0.200000  0.000000  0.000000    0.00800000   2 t-inv F
  0.400000  0.000000  0.000000    0.00800000   3 t-inv F
  0.000000  0.200000  0.000000    0.00800000   4 t-inv F
  0.200000  0.200000  0.000000    0.00800000   5 t-inv F
  0.400000  0.200000  0.000000    0.00800000   6 t-inv F
  0.000000  0.400000  0.000000    0.00800000   7 t-inv F
  0.200000  0.400000  0.000000    0.00800000   8 t-inv F
  0.400000  0.400000  0.000000    0.00800000   9 t-inv F
  0.000000  0.200000  0.200000    0.00800000  10 t-inv F
  0.200000  0.200000  0.200000    0.00800000  11 t-inv F
  0.400000  0.200000  0.200000    0.00800000  12 t-inv F
  0.000000  0.400000  0.200000    0.00800000  13 t-inv F
  0.200000  0.400000  0.200000    0.00800000  14 t-inv F
  0.400000  0.400000  0.200000    0.00800000  15 t-inv F
  0.000000  0.400000  0.400000    0.00800000  16 t-inv F
  0.200000  0.400000  0.400000    0.00800000  17 t-inv F
  0.400000  0.400000  0.400000    0.00800000  18 t-inv F
 -0.200000  0.000000  0.000000    0.00800000   2 t-inv F
 -0.400000  0.000000  0.000000    0.00800000   3 t-inv F
  0.000000  0.000000 -0.200000    0.00800000   4 t-inv F
  0.000000 -0.200000  0.000000    0.00800000   4 t-inv F
  0.000000  0.000000  0.200000    0.00800000   4 t-inv F
 -0.200000  0.000000 -0.200000    0.00800000   5 t-inv F
  0.200000 -0.200000  0.000000    0.00800000   5 t-inv F
 -0.200000  0.000000  0.200000    0.00800000   5 t-inv F
 -0.200000 -0.200000  0.000000    0.00800000   5 t-inv F
  0.200000  0.000000 -0.200000    0.00800000   5 t-inv F
 -0.200000  0.200000  0.000000    0.00800000   5 t-inv F
  0.200000  0.000000  0.200000    0.00800000   5 t-inv F
 -0.400000  0.000000 -0.200000    0.00800000   6 t-inv F
  0.400000 -0.200000  0.000000    0.00800000   6 t-inv F
 -0.400000  0.000000  0.200000    0.00800000   6 t-inv F
 -0.400000 -0.200000  0.000000    0.00800000   6 t-inv F
  0.400000  0.000000 -0.200000    0.00800000   6 t-inv F
 -0.400000  0.200000  0.000000    0.00800000   6 t-inv F
  0.400000  0.000000  0.200000    0.00800000   6 t-inv F
  0.000000  0.000000 -0.400000    0.00800000   7 t-inv F
  0.000000 -0.400000  0.000000    0.00800000   7 t-inv F
  0.000000  0.000000  0.400000    0.00800000   7 t-inv F
 -0.200000  0.000000 -0.400000    0.00800000   8 t-inv F
  0.200000 -0.400000  0.000000    0.00800000   8 t-inv F
 -0.200000  0.000000  0.400000    0.00800000   8 t-inv F
 -0.200000 -0.400000  0.000000    0.00800000   8 t-inv F
  0.200000  0.000000 -0.400000    0.00800000   8 t-inv F
 -0.200000  0.400000  0.000000    0.00800000   8 t-inv F
  0.200000  0.000000  0.400000    0.00800000   8 t-inv F
 -0.400000  0.000000 -0.400000    0.00800000   9 t-inv F
  0.400000 -0.400000  0.000000    0.00800000   9 t-inv F
 -0.400000  0.000000  0.400000    0.00800000   9 t-inv F
 -0.400000 -0.400000  0.000000    0.00800000   9 t-inv F
  0.400000  0.000000 -0.400000    0.00800000   9 t-inv F
 -0.400000  0.400000  0.000000    0.00800000   9 t-inv F
  0.400000  0.000000  0.400000    0.00800000   9 t-inv F
  0.000000  0.200000 -0.200000    0.00800000  10 t-inv F
  0.000000 -0.200000 -0.200000    0.00800000  10 t-inv F
  0.000000 -0.200000  0.200000    0.00800000  10 t-inv F
 -0.200000  0.200000 -0.200000    0.00800000  11 t-inv F
  0.200000 -0.200000 -0.200000    0.00800000  11 t-inv F
 -0.200000 -0.200000  0.200000    0.00800000  11 t-inv F
 -0.400000  0.200000 -0.200000    0.00800000  12 t-inv F
  0.400000 -0.200000 -0.200000    0.00800000  12 t-inv F
 -0.400000 -0.200000  0.200000    0.00800000  12 t-inv F
  0.000000  0.200000 -0.400000    0.00800000  13 t-inv F
  0.000000 -0.400000 -0.200000    0.00800000  13 t-inv F
  0.000000 -0.200000  0.400000    0.00800000  13 t-inv F
  0.000000 -0.400000  0.200000    0.00800000  13 t-inv F
  0.000000 -0.200000 -0.400000    0.00800000  13 t-inv F
  0.000000  0.400000 -0.200000    0.00800000  13 t-inv F
  0.000000  0.200000  0.400000    0.00800000  13 t-inv F
 -0.200000  0.200000 -0.400000    0.00800000  14 t-inv F
  0.200000 -0.400000 -0.200000    0.00800000  14 t-inv F
 -0.200000 -0.200000  0.400000    0.00800000  14 t-inv F
 -0.200000 -0.400000  0.200000    0.00800000  14 t-inv F
  0.200000 -0.200000 -0.400000    0.00800000  14 t-inv F
 -0.200000  0.400000 -0.200000    0.00800000  14 t-inv F
  0.200000  0.200000  0.400000    0.00800000  14 t-inv F
 -0.400000  0.200000 -0.400000    0.00800000  15 t-inv F
  0.400000 -0.400000 -0.200000    0.00800000  15 t-inv F
 -0.400000 -0.200000  0.400000    0.00800000  15 t-inv F
 -0.400000 -0.400000  0.200000    0.00800000  15 t-inv F
  0.400000 -0.200000 -0.400000    0.00800000  15 t-inv F
 -0.400000  0.400000 -0.200000    0.00800000  15 t-inv F
  0.400000  0.200000  0.400000    0.00800000  15 t-inv F
  0.000000  0.400000 -0.400000    0.00800000  16 t-inv F
  0.000000 -0.400000 -0.400000    0.00800000  16 t-inv F
  0.000000 -0.400000  0.400000    0.00800000  16 t-inv F
 -0.200000  0.400000 -0.400000    0.00800000  17 t-inv F
  0.200000 -0.400000 -0.400000    0.00800000  17 t-inv F
 -0.200000 -0.400000  0.400000    0.00800000  17 t-inv F
 -0.400000  0.400000 -0.400000    0.00800000  18 t-inv F
  0.400000 -0.400000 -0.400000    0.00800000  18 t-inv F
 -0.400000 -0.400000  0.400000    0.00800000  18 t-inv F
 -0.200000 -0.200000 -0.200000    0.00800000  11 t-inv T
  0.200000 -0.200000  0.200000    0.00800000  11 t-inv T
 -0.200000  0.200000  0.200000    0.00800000  11 t-inv T
  0.200000  0.200000 -0.200000    0.00800000  11 t-inv T
 -0.400000 -0.200000 -0.200000    0.00800000  12 t-inv T
  0.400000 -0.200000  0.200000    0.00800000  12 t-inv T
 -0.400000  0.200000  0.200000    0.00800000  12 t-inv T
  0.400000  0.200000 -0.200000    0.00800000  12 t-inv T
 -0.200000 -0.400000 -0.200000    0.00800000  14 t-inv T
  0.200000 -0.200000  0.400000    0.00800000  14 t-inv T
 -0.200000  0.400000  0.200000    0.00800000  14 t-inv T
  0.200000  0.200000 -0.400000    0.00800000  14 t-inv T
  0.200000  0.400000 -0.200000    0.00800000  14 t-inv T
 -0.200000  0.200000  0.400000    0.00800000  14 t-inv T
  0.200000 -0.400000  0.200000    0.00800000  14 t-inv T
 -0.200000 -0.200000 -0.400000    0.00800000  14 t-inv T
 -0.400000 -0.400000 -0.200000    0.00800000  15 t-inv T
  0.400000 -0.200000  0.400000    0.00800000  15 t-inv T
 -0.400000  0.400000  0.200000    0.00800000  15 t-inv T
  0.400000  0.200000 -0.400000    0.00800000  15 t-inv T
  0.400000  0.400000 -0.200000    0.00800000  15 t-inv T
 -0.400000  0.200000  0.400000    0.00800000  15 t-inv T
  0.400000 -0.400000  0.200000    0.00800000  15 t-inv T
 -0.400000 -0.200000 -0.400000    0.00800000  15 t-inv T
 -0.200000 -0.400000 -0.400000    0.00800000  17 t-inv T
  0.200000 -0.400000  0.400000    0.00800000  17 t-inv T
 -0.200000  0.400000  0.400000    0.00800000  17 t-inv T
  0.200000  0.400000 -0.400000    0.00800000  17 t-inv T
 -0.400000 -0.400000 -0.400000    0.00800000  18 t-inv T
  0.400000 -0.400000  0.400000    0.00800000  18 t-inv T
 -0.400000  0.400000  0.400000    0.00800000  18 t-inv T
  0.400000  0.400000 -0.400000    0.00800000  18 t-inv T


--------------------------------------------------------------------------------------------------------




 Dimension of arrays:
   k-points           NKPTS =     18   k-points in BZ     NKDIM =     18   number of bands    NBANDS=    168
   number of dos      NEDOS =    301   number of ions     NIONS =     64
   non local maximal  LDIM  =      5   non local SUM 2l+1 LMDIM =     13
   total plane-waves  NPLWV = 188160
   max r-space proj   IRMAX =      1   max aug-charges    IRDMAX=   9020
   dimension x,y,z NGX =    60 NGY =   56 NGZ =   56
   dimension x,y,z NGXF=   120 NGYF=  112 NGZF=  112
   support grid    NGXF=   120 NGYF=  112 NGZF=  112
   ions per type =              32  32
   NGX,Y,Z   is equivalent  to a cutoff of   8.63,  8.08,  8.08 a.u.
   NGXF,Y,Z  is equivalent  to a cutoff of  17.26, 16.17, 16.17 a.u.

 SYSTEM =  GaAs                                    
 POSCAR =  cubic gallium arsenide                  

 Startparameter for this run:
   NWRITE =      2    write-flag & timer
   PREC   = normal    normal or accurate (medium, high low for compatibility)
   ISTART =      0    job   : 0-new  1-cont  2-samecut
   ICHARG =      2    charge: 1-file 2-atom 10-const
   ISPIN  =      1    spin polarized calculation?
   LNONCOLLINEAR =      F non collinear calculations
   LSORBIT =      F    spin-orbit coupling
   INIWAV =      1    electr: 0-lowe 1-rand  2-diag
   LASPH  =      F    aspherical Exc in radial PAW
 Electronic Relaxation 1
   ENCUT  =  400.0 eV  29.40 Ry    5.42 a.u.  18.84 18.78 18.78*2*pi/ulx,y,z
   ENINI  =  400.0     initial cutoff
   ENAUG  =  462.8 eV  augmentation charge cutoff
   NELM   =     60;   NELMIN=  2; NELMDL= -5     # of ELM steps 
   EDIFF  = 0.1E-05   stopping-criterion for ELM
   LREAL  =      F    real-space projection
   NLSPLINE    = F    spline interpolate recip. space projectors
   LCOMPAT=      F    compatible to vasp.4.4
   GGA_COMPAT  = T    GGA compatible to vasp.4.4-vasp.4.6
   LMAXPAW     = -100 max onsite density
   LMAXMIX     =    2 max onsite mixed and CHGCAR
   VOSKOWN=      0    Vosko Wilk Nusair interpolation
   ROPT   =    0.00000   0.00000
 Ionic relaxation
   EDIFFG = 0.1E-02   stopping-criterion for IOM
   NSW    =    100    number of steps for IOM
   NBLOCK =      1;   KBLOCK =    100    inner block; outer block 
   IBRION =      2    ionic relax: 0-MD 1-quasi-New 2-CG
   NFREE  =      2    steps in history (QN), initial steepest desc. (CG)
   ISIF   =      2    stress and relaxation
   IWAVPR =     11    prediction:  0-non 1-charg 2-wave 3-comb
   ISYM   =      2    0-nonsym 1-usesym 2-fastsym
   LCORR  =      T    Harris-Foulkes like correction to forces

   POTIM  = 0.1000    time-step for ionic-motion
   TEIN   =    0.0    initial temperature
   TEBEG  =    0.0;   TEEND  =   0.0 temperature during run
   SMASS  =  -3.00    Nose mass-parameter (am)
   estimated Nose-frequenzy (Omega)   =  0.10E-29 period in steps = 0.63E+47 mass=  -0.305E-26a.u.
   SCALEE = 1.0000    scale energy and forces
   NPACO  =    256;   APACO  = 10.0  distance and # of slots for P.C.
   PSTRESS=    0.0 pullay stress

  Mass of Ions in am
   POMASS =  74.92 69.72
  Ionic Valenz
   ZVAL   =   5.00  3.00
  Atomic Wigner-Seitz radii
   RWIGS  =  -1.00 -1.00
  virtual crystal weights 
   VCA    =   1.00  1.00
   NELECT =     256.0000    total number of electrons
   NUPDOWN=      -1.0000    fix difference up-down

 DOS related values:
   EMIN   =  10.00;   EMAX   =-10.00  energy-range for DOS
   EFERMI =   0.00;   METHOD = LEGACY      
   ISMEAR =    -5;   SIGMA  =   0.10  broadening in eV -4-tet -1-fermi 0-gaus

 Electronic relaxation 2 (details)
   IALGO  =     38    algorithm
   LDIAG  =      T    sub-space diagonalisation (order eigenvalues)
   LSUBROT=      F    optimize rotation matrix (better conditioning)
   TURBO    =      0    0=normal 1=particle mesh
   IRESTART =      0    0=no restart 2=restart with 2 vectors
   NREBOOT  =      0    no. of reboots
   NMIN     =      0    reboot dimension
   EREF     =   0.00    reference energy to select bands
   IMIX   =      4    mixing-type and parameters
     AMIX     =   0.40;   BMIX     =  1.00
     AMIX_MAG =   1.60;   BMIX_MAG =  1.00
     AMIN     =   0.10
     WC   =   100.;   INIMIX=   1;  MIXPRE=   1;  MAXMIX= -45

 Intra band minimization:
   WEIMIN = 0.0010     energy-eigenvalue tresh-hold
   EBREAK =  0.15E-08  absolut break condition
   DEPER  =   0.30     relativ break condition  

   TIME   =   0.40     timestep for ELM

  volume/ion in A,a.u.               =      23.95       161.64
  Fermi-wavevector in a.u.,A,eV,Ry     =   0.901521  1.703627 11.057995  0.812740
  Thomas-Fermi vector in A             =   2.024612
 
 Write flags
   LWAVE        =      T    write WAVECAR
   LDOWNSAMPLE  =      F    k-point downsampling of WAVECAR
   LCHARG       =      T    write CHGCAR
   LVTOT        =      F    write LOCPOT, total local potential
   LVHAR        =      F    write LOCPOT, Hartree potential only
   WRT_POTENTIAL= false  ! write potential to hdf5 file
   LELF         =      F    write electronic localiz. function (ELF)
   LORBIT       =      0    0 simple, 1 ext, 2 COOP (PROOUT), +10 PAW based schemes


 Dipole corrections
   LMONO      =      F    monopole corrections only (constant potential shift)
   LDIPOL     =      F    correct potential (dipole corrections)
   IDIPOL     =      0    1-x, 2-y, 3-z, 4-all directions 
   EPSILON    =  1.0000000 bulk dielectric constant
   LVACPOTAV  =      F  vacuum potentials using an averaging scheme for the charge density
   VACPOTFLAT =  0.1000000 required flatness to determine vacuum potential
 Exchange correlation treatment:
   GGA     = PE    functional components
   XC_C    = 1    coefficients multiplying the functional components
   LIBXC   =     F    Libxc                    
   VOSKOWN =     0    Vosko Wilk Nusair interpolation
   LHFCALC =     F    Hartree Fock is set to
   LHFONE  =     F    Hartree Fock one center treatment
   AEXX    =    0.0000 exact exchange contribution

 Parameters of functionals:
   PE:
     No parameter
 
 Van der Waals corrections
   IVDW    =     0    specifies the selected vdW correction

 Linear response parameters
   LEPSILON=     T    determine dielectric tensor
   LRPA    =     F    only Hartree local field effects (RPA)
   LNABLA  =     F    use nabla operator in PAW spheres
   LVEL    =     F    velocity operator in full k-point grid
   CSHIFT  =0.1000    complex shift for real part using Kramers Kronig
   OMEGAMAX=  -1.0    maximum frequency
   DEG_THRESHOLD= 0.2000000E-02 threshold for treating states as degnerate
   RTIME   =   -0.100 relaxation time in fs
  (WPLASMAI=    0.000 imaginary part of plasma frequency in eV, 0.658/RTIME)
   DFIELD  = 0.0000000 0.0000000 0.0000000 field for delta impulse in time
 
  Optional k-point grid parameters
   LKPOINTS_OPT  =     F    use optional k-point grid
   KPOINTS_OPT_MODE=     1    mode for optional k-point grid
 
 Orbital magnetization related:
   ORBITALMAG=     F  switch on orbital magnetization
   LCHIMAG   =     F  perturbation theory with respect to B field
   DQ        =  0.001000  dq finite difference perturbation B field
   LLRAUG    =     F  two centre corrections for induced B field
   LBONE     =     F  B-component reconstruction in AE one-centre
   LVGVCALC  =     T  calculate vGv susceptibility
   LVGVAPPL  =     F  apply vGv susceptibility instead of pGv for G=0

 Random number generation:
   RANDOM_GENERATOR = DEFAULT
   PCG_SEED         = not used


--------------------------------------------------------------------------------------------------------


 conjugate gradient relaxation of ions
 charge density and potential will be updated during run
 non-spin polarized calculation
 Variant of blocked Davidson
 Davidson routine will perform the subspace rotation
 perform sub-space diagonalisation
    after iterative eigenvector-optimisation
 modified Broyden-mixing scheme, WC =      100.0
 initial mixing is a Kerker type mixing with AMIX =  0.4000 and BMIX =      1.0000
 Hartree-type preconditioning will be used
 using additional bands           40
 reciprocal scheme for non local part
 use partial core corrections
 calculate Harris-corrections to forces 
   (improved forces if not selfconsistent)
 use gradient corrections 
 use of overlap-Matrix (Vanderbilt PP)
 Fermi weights with tetrahedron method with Bloechl corrections


--------------------------------------------------------------------------------------------------------


  energy-cutoff  :      400.00
  volume of cell :     1532.98
      direct lattice vectors                 reciprocal lattice vectors
    11.555616833  0.000000000  0.000000000     0.086538003  0.000000000  0.000000000
     0.000000000 11.517866564  0.000000000     0.000000000  0.086821634  0.000000000
     0.000000000  0.000000000 11.517866564     0.000000000  0.000000000  0.086821634

  length of vectors
    11.555616833 11.517866564 11.517866564     0.086538003  0.086821634  0.086821634


 
 k-points in units of 2pi/SCALE and weight: Automatic mesh                          
   0.00000000  0.00000000  0.00000000       0.008
   0.01730760  0.00000000  0.00000000       0.016
   0.03461520  0.00000000  0.00000000       0.016
   0.00000000  0.01736433  0.00000000       0.032
   0.01730760  0.01736433  0.00000000       0.064
   0.03461520  0.01736433  0.00000000       0.064
   0.00000000  0.03472865  0.00000000       0.032
   0.01730760  0.03472865  0.00000000       0.064
   0.03461520  0.03472865  0.00000000       0.064
   0.00000000  0.01736433  0.01736433       0.032
   0.01730760  0.01736433  0.01736433       0.064
   0.03461520  0.01736433  0.01736433       0.064
   0.00000000  0.03472865  0.01736433       0.064
   0.01730760  0.03472865  0.01736433       0.128
   0.03461520  0.03472865  0.01736433       0.128
   0.00000000  0.03472865  0.03472865       0.032
   0.01730760  0.03472865  0.03472865       0.064
   0.03461520  0.03472865  0.03472865       0.064
 
 k-points in reciprocal lattice and weights: Automatic mesh                          
   0.00000000  0.00000000  0.00000000       0.008
   0.20000000  0.00000000  0.00000000       0.016
   0.40000000  0.00000000  0.00000000       0.016
   0.00000000  0.20000000  0.00000000       0.032
   0.20000000  0.20000000  0.00000000       0.064
   0.40000000  0.20000000  0.00000000       0.064
   0.00000000  0.40000000  0.00000000       0.032
   0.20000000  0.40000000  0.00000000       0.064
   0.40000000  0.40000000  0.00000000       0.064
   0.00000000  0.20000000  0.20000000       0.032
   0.20000000  0.20000000  0.20000000       0.064
   0.40000000  0.20000000  0.20000000       0.064
   0.00000000  0.40000000  0.20000000       0.064
   0.20000000  0.40000000  0.20000000       0.128
   0.40000000  0.40000000  0.20000000       0.128
   0.00000000  0.40000000  0.40000000       0.032
   0.20000000  0.40000000  0.40000000       0.064
   0.40000000  0.40000000  0.40000000       0.064
 
 position of ions in fractional coordinates (direct lattice) 
   0.00000000  0.00000000  0.00000000
   0.00000000  0.00000000  0.50000000
   0.00000000  0.50000000  0.00000000
   0.00000000  0.50000000  0.50000000
   0.50000000  0.00000000  0.00000000
   0.50000000  0.00000000  0.50000000
   0.50000000  0.50000000  0.00000000
   0.50000000  0.50000000  0.50000000
   0.25000000  0.25000000  0.00000000
   0.25000000  0.25000000  0.50000000
   0.25000000  0.75000000  0.00000000
   0.25000000  0.75000000  0.50000000
   0.75000000  0.25000000  0.00000000
   0.75000000  0.25000000  0.50000000
   0.75000000  0.75000000  0.00000000
   0.75000000  0.75000000  0.50000000
   0.25000000  0.00000000  0.25000000
   0.25000000  0.00000000  0.75000000
   0.25000000  0.50000000  0.25000000
   0.25000000  0.50000000  0.75000000
   0.75000000  0.00000000  0.25000000
   0.75000000  0.00000000  0.75000000
   0.75000000  0.50000000  0.25000000
   0.75000000  0.50000000  0.75000000
   0.00000000  0.25000000  0.25000000
   0.00000000  0.25000000  0.75000000
   0.00000000  0.75000000  0.25000000
   0.00000000  0.75000000  0.75000000
   0.50000000  0.25000000  0.25000000
   0.50000000  0.25000000  0.75000000
   0.50000000  0.75000000  0.25000000
   0.50000000  0.75000000  0.75000000
   0.12500000  0.12500000  0.12500000
   0.12500000  0.12500000  0.62500000
   0.12500000  0.62500000  0.12500000
   0.12500000  0.62500000  0.62500000
   0.62500000  0.12500000  0.12500000
   0.62500000  0.12500000  0.62500000
   0.62500000  0.62500000  0.12500000
   0.62500000  0.62500000  0.62500000
   0.37500000  0.12500000  0.37500000
   0.37500000  0.12500000  0.87500000
   0.37500000  0.62500000  0.37500000
   0.37500000  0.62500000  0.87500000
   0.87500000  0.12500000  0.37500000
   0.87500000  0.12500000  0.87500000
   0.87500000  0.62500000  0.37500000
   0.87500000  0.62500000  0.87500000
   0.37500000  0.37500000  0.12500000
   0.37500000  0.37500000  0.62500000
   0.37500000  0.87500000  0.12500000
   0.37500000  0.87500000  0.62500000
   0.87500000  0.37500000  0.12500000
   0.87500000  0.37500000  0.62500000
   0.87500000  0.87500000  0.12500000
   0.87500000  0.87500000  0.62500000
   0.12500000  0.37500000  0.37500000
   0.12500000  0.37500000  0.87500000
   0.12500000  0.87500000  0.37500000
   0.12500000  0.87500000  0.87500000
   0.62500000  0.37500000  0.37500000
   0.62500000  0.37500000  0.87500000
   0.62500000  0.87500000  0.37500000
   0.62500000  0.87500000  0.87500000
 
 position of ions in cartesian coordinates  (Angst):
   0.00000000  0.00000000  0.00000000
   0.00000000  0.00000000  5.75893328
   0.00000000  5.75893328  0.00000000
   0.00000000  5.75893328  5.75893328
   5.77780842  0.00000000  0.00000000
   5.77780842  0.00000000  5.75893328
   5.77780842  5.75893328  0.00000000
   5.77780842  5.75893328  5.75893328
   2.88890421  2.87946664  0.00000000
   2.88890421  2.87946664  5.75893328
   2.88890421  8.63839992  0.00000000
   2.88890421  8.63839992  5.75893328
   8.66671262  2.87946664  0.00000000
   8.66671262  2.87946664  5.75893328
   8.66671262  8.63839992  0.00000000
   8.66671262  8.63839992  5.75893328
   2.88890421  0.00000000  2.87946664
   2.88890421  0.00000000  8.63839992
   2.88890421  5.75893328  2.87946664
   2.88890421  5.75893328  8.63839992
   8.66671262  0.00000000  2.87946664
   8.66671262  0.00000000  8.63839992
   8.66671262  5.75893328  2.87946664
   8.66671262  5.75893328  8.63839992
   0.00000000  2.87946664  2.87946664
   0.00000000  2.87946664  8.63839992
   0.00000000  8.63839992  2.87946664
   0.00000000  8.63839992  8.63839992
   5.77780842  2.87946664  2.87946664
   5.77780842  2.87946664  8.63839992
   5.77780842  8.63839992  2.87946664
   5.77780842  8.63839992  8.63839992
   1.44445210  1.43973332  1.43973332
   1.44445210  1.43973332  7.19866660
   1.44445210  7.19866660  1.43973332
   1.44445210  7.19866660  7.19866660
   7.22226052  1.43973332  1.43973332
   7.22226052  1.43973332  7.19866660
   7.22226052  7.19866660  1.43973332
   7.22226052  7.19866660  7.19866660
   4.33335631  1.43973332  4.31919996
   4.33335631  1.43973332 10.07813324
   4.33335631  7.19866660  4.31919996
   4.33335631  7.19866660 10.07813324
  10.11116473  1.43973332  4.31919996
  10.11116473  1.43973332 10.07813324
  10.11116473  7.19866660  4.31919996
  10.11116473  7.19866660 10.07813324
   4.33335631  4.31919996  1.43973332
   4.33335631  4.31919996  7.19866660
   4.33335631 10.07813324  1.43973332
   4.33335631 10.07813324  7.19866660
  10.11116473  4.31919996  1.43973332
  10.11116473  4.31919996  7.19866660
  10.11116473 10.07813324  1.43973332
  10.11116473 10.07813324  7.19866660
   1.44445210  4.31919996  4.31919996
   1.44445210  4.31919996 10.07813324
   1.44445210 10.07813324  4.31919996
   1.44445210 10.07813324 10.07813324
   7.22226052  4.31919996  4.31919996
   7.22226052  4.31919996 10.07813324
   7.22226052 10.07813324  4.31919996
   7.22226052 10.07813324 10.07813324
 


--------------------------------------------------------------------------------------------------------


 k-point     1 :   0.0000 0.0000 0.0000  plane waves:   27809
 k-point     2 :   0.2000 0.0000 0.0000  plane waves:   27834
 k-point     3 :   0.4000 0.0000 0.0000  plane waves:   27878
 k-point     4 :   0.0000 0.2000 0.0000  plane waves:   27843
 k-point     5 :   0.2000 0.2000 0.0000  plane waves:   27870
 k-point     6 :   0.4000 0.2000 0.0000  plane waves:   27838
 k-point     7 :   0.0000 0.4000 0.0000  plane waves:   27832
 k-point     8 :   0.2000 0.4000 0.0000  plane waves:   27852
 k-point     9 :   0.4000 0.4000 0.0000  plane waves:   27853
 k-point    10 :   0.0000 0.2000 0.2000  plane waves:   27855
 k-point    11 :   0.2000 0.2000 0.2000  plane waves:   27847
 k-point    12 :   0.4000 0.2000 0.2000  plane waves:   27817
 k-point    13 :   0.0000 0.4000 0.2000  plane waves:   27827
 k-point    14 :   0.2000 0.4000 0.2000  plane waves:   27813
 k-point    15 :   0.4000 0.4000 0.2000  plane waves:   27873
 k-point    16 :   0.0000 0.4000 0.4000  plane waves:   27838
 k-point    17 :   0.2000 0.4000 0.4000  plane waves:   27843
 k-point    18 :   0.4000 0.4000 0.4000  plane waves:   27873

 maximum and minimum number of plane-waves per node :     27878    27809

 maximum number of plane-waves:     27878
 maximum index in each direction: 
   IXMAX=   18   IYMAX=   18   IZMAX=   18
   IXMIN=  -19   IYMIN=  -19   IZMIN=  -19


 serial   3D FFT for wavefunctions
 parallel 3D FFT for charge:
    minimum data exchange during FFTs selected (reduces bandwidth)


 total amount of memory used by VASP MPI-rank0   362563. kBytes
=======================================================================

   base      :      30000. kBytes
   nonl-proj :     132931. kBytes
   fftplans  :       7212. kBytes
   grid      :      18251. kBytes
   one-center:        519. kBytes
   wavefun   :     173650. kBytes
 
     INWAV:  cpu time      0.0001: real time      0.0010
 Broyden mixing: mesh for mixing (old mesh)
   NGX = 37   NGY = 37   NGZ = 37
  (NGX  =120   NGY  =112   NGZ  =112)
  gives a total of  50653 points

 initial charge density was supplied:
 charge density of overlapping atoms calculated
 number of electron     256.0000000 magnetization 
 keeping initial charge density in first step


--------------------------------------------------------------------------------------------------------


 Maximum index for augmentation-charges         1099 (set IRDMAX)


--------------------------------------------------------------------------------------------------------


 First call to EWALD:  gamma=   0.154
 Maximum number of real-space cells 3x 3x 3
 Maximum number of reciprocal cells 3x 3x 3

    FEWALD:  cpu time      0.0023: real time      0.0024


--------------------------------------- Ionic step        1  -------------------------------------------




--------------------------------------- Iteration      1(   1)  ---------------------------------------


    POTLOK:  cpu time      0.1120: real time      0.1149
    SETDIJ:  cpu time      0.0109: real time      0.0110
     EDDAV:  cpu time    137.0547: real time    138.7312
 BZINTS: Fermi energy:    9.776398;  256.000000 electrons
         Band energy: 0.380259E+03;  BLOECHL correction:   -0.046515
       DOS:  cpu time      0.0126: real time      0.0127
    --------------------------------------------
      LOOP:  cpu time    137.1902: real time    138.8699

 eigenvalue-minimisations  :  6048
 total energy-change (2. order) : 0.9357018E+03  (-0.8090132E+04)
 number of electron     256.0000000 magnetization 
 augmentation part      256.0000000 magnetization 

 Free energy of the ion-electron system (eV)
  ---------------------------------------------------
  alpha Z        PSCENC =       571.28278463
  Ewald energy   TEWEN  =     -7191.12626699
  -Hartree energ DENC   =      -602.37348199
  -exchange      EXHF   =         0.00000000
  -V(xc)+E(xc)   XCENC  =      -996.29955818
  PAW double counting   =      6692.16565901    -5247.93935635
  entropy T*S    EENTRO =         0.00000000
  eigenvalues    EBANDS =       380.25900586
  atomic energy  EATOM  =      7329.73306348
  Solvation  Ediel_sol  =         0.00000000
  ---------------------------------------------------
  free energy    TOTEN  =       935.70184947 eV

  energy without entropy =      935.70184947  energy(sigma->0) =      935.70184947


--------------------------------------------------------------------------------------------------------




--------------------------------------- Iteration      1(   2)  ---------------------------------------


     EDDAV:  cpu time    157.2158: real time    159.2652
 BZINTS: Fermi energy:    3.004597;  256.000000 electrons
         Band energy:-0.722897E+03;  BLOECHL correction:    0.000000
       DOS:  cpu time      0.0075: real time      0.0076
    --------------------------------------------
      LOOP:  cpu time    157.2233: real time    159.2728

 eigenvalue-minimisations  :  7216
 total energy-change (2. order) :-0.1103156E+04  (-0.1051287E+04)
 number of electron     256.0000000 magnetization 
 augmentation part      256.0000000 magnetization 

 Free energy of the ion-electron system (eV)
  ---------------------------------------------------
  alpha Z        PSCENC =       571.28278463
  Ewald energy   TEWEN  =     -7191.12626699
  -Hartree energ DENC   =      -602.37348199
  -exchange      EXHF   =         0.00000000
  -V(xc)+E(xc)   XCENC  =      -996.29955818
  PAW double counting   =      6692.16565901    -5247.93935635
  entropy T*S    EENTRO =         0.00000000
  eigenvalues    EBANDS =      -722.89706168
  atomic energy  EATOM  =      7329.73306348
  Solvation  Ediel_sol  =         0.00000000
  ---------------------------------------------------
  free energy    TOTEN  =      -167.45421808 eV

  energy without entropy =     -167.45421808  energy(sigma->0) =     -167.45421808


--------------------------------------------------------------------------------------------------------




--------------------------------------- Iteration      1(   3)  ---------------------------------------


     EDDAV:  cpu time    158.9475: real time    161.3456
 BZINTS: Fermi energy:    1.804585;  256.000000 electrons
         Band energy:-0.823130E+03;  BLOECHL correction:    0.000000
       DOS:  cpu time      0.0077: real time      0.0077
    --------------------------------------------
      LOOP:  cpu time    158.9552: real time    161.3533

 eigenvalue-minimisations  :  7384
 total energy-change (2. order) :-0.1002326E+03  (-0.9890914E+02)
 number of electron     256.0000000 magnetization 
 augmentation part      256.0000000 magnetization 

 Free energy of the ion-electron system (eV)
  ---------------------------------------------------
  alpha Z        PSCENC =       571.28278463
  Ewald energy   TEWEN  =     -7191.12626699
  -Hartree energ DENC   =      -602.37348199
  -exchange      EXHF   =         0.00000000
  -V(xc)+E(xc)   XCENC  =      -996.29955818
  PAW double counting   =      6692.16565901    -5247.93935635
  entropy T*S    EENTRO =         0.00000000
  eigenvalues    EBANDS =      -823.12963080
  atomic energy  EATOM  =      7329.73306348
  Solvation  Ediel_sol  =         0.00000000
  ---------------------------------------------------
  free energy    TOTEN  =      -267.68678719 eV

  energy without entropy =     -267.68678719  energy(sigma->0) =     -267.68678719


--------------------------------------------------------------------------------------------------------




--------------------------------------- Iteration      1(   4)  ---------------------------------------


     EDDAV:  cpu time    158.8148: real time    160.9872
 BZINTS: Fermi energy:    1.768467;  256.000000 electrons
         Band energy:-0.825618E+03;  BLOECHL correction:    0.000000
       DOS:  cpu time      0.0078: real time      0.0079
    --------------------------------------------
      LOOP:  cpu time    158.8227: real time    160.9951

 eigenvalue-minimisations  :  7296
 total energy-change (2. order) :-0.2488208E+01  (-0.2459806E+01)
 number of electron     256.0000000 magnetization 
 augmentation part      256.0000000 magnetization 

 Free energy of the ion-electron system (eV)
  ---------------------------------------------------
  alpha Z        PSCENC =       571.28278463
  Ewald energy   TEWEN  =     -7191.12626699
  -Hartree energ DENC   =      -602.37348199
  -exchange      EXHF   =         0.00000000
  -V(xc)+E(xc)   XCENC  =      -996.29955818
  PAW double counting   =      6692.16565901    -5247.93935635
  entropy T*S    EENTRO =         0.00000000
  eigenvalues    EBANDS =      -825.61783907
  atomic energy  EATOM  =      7329.73306348
  Solvation  Ediel_sol  =         0.00000000
  ---------------------------------------------------
  free energy    TOTEN  =      -270.17499547 eV

  energy without entropy =     -270.17499547  energy(sigma->0) =     -270.17499547


--------------------------------------------------------------------------------------------------------




--------------------------------------- Iteration      1(   5)  ---------------------------------------


     EDDAV:  cpu time    160.1074: real time    162.2154
 BZINTS: Fermi energy:    1.786856;  256.000000 electrons
         Band energy:-0.825687E+03;  BLOECHL correction:    0.000000
       DOS:  cpu time      0.0075: real time      0.0076
    CHARGE:  cpu time      0.8032: real time      0.8079
    MIXING:  cpu time      0.0034: real time      0.0035
    --------------------------------------------
      LOOP:  cpu time    160.9216: real time    163.0344

 eigenvalue-minimisations  :  7368
 total energy-change (2. order) :-0.6952699E-01  (-0.6930304E-01)
 number of electron     255.9999499 magnetization 
 augmentation part      -41.5290135 magnetization 

 Broyden mixing:
  rms(total) = 0.20159E+01    rms(broyden)= 0.20159E+01
  rms(prec ) = 0.22978E+01
  weight for this iteration     100.00

 Free energy of the ion-electron system (eV)
  ---------------------------------------------------
  alpha Z        PSCENC =       571.28278463
  Ewald energy   TEWEN  =     -7191.12626699
  -Hartree energ DENC   =      -602.37348199
  -exchange      EXHF   =         0.00000000
  -V(xc)+E(xc)   XCENC  =      -996.29955818
  PAW double counting   =      6692.16565901    -5247.93935635
  entropy T*S    EENTRO =         0.00000000
  eigenvalues    EBANDS =      -825.68736606
  atomic energy  EATOM  =      7329.73306348
  Solvation  Ediel_sol  =         0.00000000
  ---------------------------------------------------
  free energy    TOTEN  =      -270.24452245 eV

  energy without entropy =     -270.24452245  energy(sigma->0) =     -270.24452245


--------------------------------------------------------------------------------------------------------




--------------------------------------- Iteration      1(   6)  ---------------------------------------


    POTLOK:  cpu time      0.1125: real time      0.1180
    SETDIJ:  cpu time      0.0108: real time      0.0109
     EDDAV:  cpu time    153.1868: real time    155.0679
 BZINTS: Fermi energy:    2.089742;  256.000000 electrons
         Band energy:-0.774050E+03;  BLOECHL correction:    0.000000
       DOS:  cpu time      0.0078: real time      0.0078
    CHARGE:  cpu time      0.8090: real time      0.8144
    MIXING:  cpu time      0.0033: real time      0.0033
    --------------------------------------------
      LOOP:  cpu time    154.1302: real time    156.0223

 eigenvalue-minimisations  :  7024
 total energy-change (2. order) : 0.4193467E+01  (-0.6514083E+00)
 number of electron     255.9999507 magnetization 
 augmentation part      -41.4032828 magnetization 

 Broyden mixing:
  rms(total) = 0.11834E+01    rms(broyden)= 0.11834E+01
  rms(prec ) = 0.13081E+01
  weight for this iteration     100.00

 eigenvalues of (default mixing * dielectric matrix)
  average eigenvalue GAMMA=   2.2609
  2.2609

 Free energy of the ion-electron system (eV)
  ---------------------------------------------------
  alpha Z        PSCENC =       571.28278463
  Ewald energy   TEWEN  =     -7191.12626699
  -Hartree energ DENC   =      -653.10868086
  -exchange      EXHF   =         0.00000000
  -V(xc)+E(xc)   XCENC  =      -987.49275945
  PAW double counting   =      9409.63595579    -7970.92551985
  entropy T*S    EENTRO =         0.00000000
  eigenvalues    EBANDS =      -774.04963214
  atomic energy  EATOM  =      7329.73306348
  Solvation  Ediel_sol  =         0.00000000
  ---------------------------------------------------
  free energy    TOTEN  =      -266.05105538 eV

  energy without entropy =     -266.05105538  energy(sigma->0) =     -266.05105538


--------------------------------------------------------------------------------------------------------




--------------------------------------- Iteration      1(   7)  ---------------------------------------


    POTLOK:  cpu time      0.1108: real time      0.1163
    SETDIJ:  cpu time      0.0107: real time      0.0108
     EDDAV:  cpu time    155.7353: real time    158.0091
 BZINTS: Fermi energy:    2.295644;  256.000000 electrons
         Band energy:-0.725197E+03;  BLOECHL correction:    0.000000
       DOS:  cpu time      0.0075: real time      0.0076
    CHARGE:  cpu time      0.7975: real time      0.8028
    MIXING:  cpu time      0.0035: real time      0.0035
    --------------------------------------------
      LOOP:  cpu time    156.6653: real time    158.9501

 eigenvalue-minimisations  :  7288
 total energy-change (2. order) : 0.8313793E+00  (-0.4327033E+00)
 number of electron     255.9999514 magnetization 
 augmentation part      -41.2757207 magnetization 

 Broyden mixing:
  rms(total) = 0.24477E+00    rms(broyden)= 0.24477E+00
  rms(prec ) = 0.28760E+00
  weight for this iteration     100.00

 eigenvalues of (default mixing * dielectric matrix)
  average eigenvalue GAMMA=   1.9372
  1.6162  2.2582

 Free energy of the ion-electron system (eV)
  ---------------------------------------------------
  alpha Z        PSCENC =       571.28278463
  Ewald energy   TEWEN  =     -7191.12626699
  -Hartree energ DENC   =      -706.15887648
  -exchange      EXHF   =         0.00000000
  -V(xc)+E(xc)   XCENC  =      -976.65424944
  PAW double counting   =     13936.84709146   -12503.94580394
  entropy T*S    EENTRO =         0.00000000
  eigenvalues    EBANDS =      -725.19741882
  atomic energy  EATOM  =      7329.73306348
  Solvation  Ediel_sol  =         0.00000000
  ---------------------------------------------------
  free energy    TOTEN  =      -265.21967610 eV

  energy without entropy =     -265.21967610  energy(sigma->0) =     -265.21967610


--------------------------------------------------------------------------------------------------------




--------------------------------------- Iteration      1(   8)  ---------------------------------------


    POTLOK:  cpu time      0.1114: real time      0.1167
    SETDIJ:  cpu time      0.0107: real time      0.0108
     EDDAV:  cpu time    152.4401: real time    154.4515
 BZINTS: Fermi energy:    2.309472;  256.000000 electrons
         Band energy:-0.726927E+03;  BLOECHL correction:    0.000000
       DOS:  cpu time      0.0079: real time      0.0079
    CHARGE:  cpu time      0.8035: real time      0.8089
    MIXING:  cpu time      0.0035: real time      0.0035
    --------------------------------------------
      LOOP:  cpu time    153.3771: real time    155.3993

 eigenvalue-minimisations  :  7056
 total energy-change (2. order) : 0.4144432E-01  (-0.5067446E-01)
 number of electron     255.9999512 magnetization 
 augmentation part      -41.2845208 magnetization 

 Broyden mixing:
  rms(total) = 0.61427E-01    rms(broyden)= 0.61427E-01
  rms(prec ) = 0.71534E-01
  weight for this iteration     100.00

 eigenvalues of (default mixing * dielectric matrix)
  average eigenvalue GAMMA=   1.9488
  2.6791  1.5837  1.5837

 Free energy of the ion-electron system (eV)
  ---------------------------------------------------
  alpha Z        PSCENC =       571.28278463
  Ewald energy   TEWEN  =     -7191.12626699
  -Hartree energ DENC   =      -705.43824581
  -exchange      EXHF   =         0.00000000
  -V(xc)+E(xc)   XCENC  =      -975.30530609
  PAW double counting   =     14601.10166363   -13168.49916611
  entropy T*S    EENTRO =         0.00000000
  eigenvalues    EBANDS =      -726.92675851
  atomic energy  EATOM  =      7329.73306348
  Solvation  Ediel_sol  =         0.00000000
  ---------------------------------------------------
  free energy    TOTEN  =      -265.17823177 eV

  energy without entropy =     -265.17823177  energy(sigma->0) =     -265.17823177


--------------------------------------------------------------------------------------------------------




--------------------------------------- Iteration      1(   9)  ---------------------------------------


    POTLOK:  cpu time      0.1137: real time      0.1190
    SETDIJ:  cpu time      0.0106: real time      0.0107
     EDDAV:  cpu time    151.9499: real time    154.3574
 BZINTS: Fermi energy:    2.299598;  256.000000 electrons
         Band energy:-0.723010E+03;  BLOECHL correction:    0.000000
       DOS:  cpu time      0.0076: real time      0.0077
    CHARGE:  cpu time      0.8048: real time      0.8104
    MIXING:  cpu time      0.0035: real time      0.0035
    --------------------------------------------
      LOOP:  cpu time    152.8900: real time    155.3087

 eigenvalue-minimisations  :  6960
 total energy-change (2. order) :-0.1171576E-01  (-0.3576431E-02)
 number of electron     255.9999512 magnetization 
 augmentation part      -41.2856397 magnetization 

 Broyden mixing:
  rms(total) = 0.23099E-01    rms(broyden)= 0.23099E-01
  rms(prec ) = 0.24550E-01
  weight for this iteration     100.00

 eigenvalues of (default mixing * dielectric matrix)
  average eigenvalue GAMMA=   1.6636
  2.5785  1.6668  1.6668  0.7425

 Free energy of the ion-electron system (eV)
  ---------------------------------------------------
  alpha Z        PSCENC =       571.28278463
  Ewald energy   TEWEN  =     -7191.12626699
  -Hartree energ DENC   =      -710.06638050
  -exchange      EXHF   =         0.00000000
  -V(xc)+E(xc)   XCENC  =      -974.40276653
  PAW double counting   =     14792.26275332   -13359.86270259
  entropy T*S    EENTRO =         0.00000000
  eigenvalues    EBANDS =      -723.01043235
  atomic energy  EATOM  =      7329.73306348
  Solvation  Ediel_sol  =         0.00000000
  ---------------------------------------------------
  free energy    TOTEN  =      -265.18994754 eV

  energy without entropy =     -265.18994754  energy(sigma->0) =     -265.18994754


--------------------------------------------------------------------------------------------------------




--------------------------------------- Iteration      1(  10)  ---------------------------------------


    POTLOK:  cpu time      0.1119: real time      0.1167
    SETDIJ:  cpu time      0.0109: real time      0.0110
     EDDAV:  cpu time    155.4663: real time    157.6750
 BZINTS: Fermi energy:    2.281888;  256.000000 electrons
         Band energy:-0.722958E+03;  BLOECHL correction:    0.000000
       DOS:  cpu time      0.0075: real time      0.0075
    CHARGE:  cpu time      0.7852: real time      0.7912
    MIXING:  cpu time      0.0035: real time      0.0035
    --------------------------------------------
      LOOP:  cpu time    156.3853: real time    158.6050

 eigenvalue-minimisations  :  7504
 total energy-change (2. order) :-0.1079974E-02  (-0.9850083E-04)
 number of electron     255.9999512 magnetization 
 augmentation part      -41.2860334 magnetization 

 Broyden mixing:
  rms(total) = 0.10699E-01    rms(broyden)= 0.10699E-01
  rms(prec ) = 0.12471E-01
  weight for this iteration     100.00

 eigenvalues of (default mixing * dielectric matrix)
  average eigenvalue GAMMA=   1.9233
  3.1124  2.4988  1.0336  1.4860  1.4860

 Free energy of the ion-electron system (eV)
  ---------------------------------------------------
  alpha Z        PSCENC =       571.28278463
  Ewald energy   TEWEN  =     -7191.12626699
  -Hartree energ DENC   =      -710.15448401
  -exchange      EXHF   =         0.00000000
  -V(xc)+E(xc)   XCENC  =      -974.44576085
  PAW double counting   =     14709.65525204   -13277.17740427
  entropy T*S    EENTRO =         0.00000000
  eigenvalues    EBANDS =      -722.95821153
  atomic energy  EATOM  =      7329.73306348
  Solvation  Ediel_sol  =         0.00000000
  ---------------------------------------------------
  free energy    TOTEN  =      -265.19102751 eV

  energy without entropy =     -265.19102751  energy(sigma->0) =     -265.19102751


--------------------------------------------------------------------------------------------------------




--------------------------------------- Iteration      1(  11)  ---------------------------------------


    POTLOK:  cpu time      0.1115: real time      0.1175
    SETDIJ:  cpu time      0.0106: real time      0.0107
     EDDAV:  cpu time    142.3227: real time    144.1146
 BZINTS: Fermi energy:    2.327054;  256.000000 electrons
         Band energy:-0.722536E+03;  BLOECHL correction:    0.000000
       DOS:  cpu time      0.0075: real time      0.0076
    CHARGE:  cpu time      0.7971: real time      0.8025
    MIXING:  cpu time      0.0037: real time      0.0038
    --------------------------------------------
      LOOP:  cpu time    143.2532: real time    145.0566

 eigenvalue-minimisations  :  6496
 total energy-change (2. order) :-0.1300377E-02  (-0.2189317E-03)
 number of electron     255.9999512 magnetization 
 augmentation part      -41.2833410 magnetization 

 Broyden mixing:
  rms(total) = 0.50031E-02    rms(broyden)= 0.50031E-02
  rms(prec ) = 0.52558E-02
  weight for this iteration     100.00

 eigenvalues of (default mixing * dielectric matrix)
  average eigenvalue GAMMA=   1.7917
  3.0739  2.4849  1.6641  1.6641  0.9527  0.9103

 Free energy of the ion-electron system (eV)
  ---------------------------------------------------
  alpha Z        PSCENC =       571.28278463
  Ewald energy   TEWEN  =     -7191.12626699
  -Hartree energ DENC   =      -710.71509087
  -exchange      EXHF   =         0.00000000
  -V(xc)+E(xc)   XCENC  =      -974.36458628
  PAW double counting   =     14660.57462011   -13228.04123862
  entropy T*S    EENTRO =         0.00000000
  eigenvalues    EBANDS =      -722.53561333
  atomic energy  EATOM  =      7329.73306348
  Solvation  Ediel_sol  =         0.00000000
  ---------------------------------------------------
  free energy    TOTEN  =      -265.19232789 eV

  energy without entropy =     -265.19232789  energy(sigma->0) =     -265.19232789


--------------------------------------------------------------------------------------------------------




--------------------------------------- Iteration      1(  12)  ---------------------------------------


    POTLOK:  cpu time      0.1126: real time      0.1160
    SETDIJ:  cpu time      0.0108: real time      0.0109
     EDDAV:  cpu time    159.8400: real time    161.8458
 BZINTS: Fermi energy:    2.321212;  256.000000 electrons
         Band energy:-0.722490E+03;  BLOECHL correction:    0.000000
       DOS:  cpu time      0.0078: real time      0.0078
    CHARGE:  cpu time      0.7947: real time      0.8002
    MIXING:  cpu time      0.0039: real time      0.0039
    --------------------------------------------
      LOOP:  cpu time    160.7698: real time    162.7846

 eigenvalue-minimisations  :  7416
 total energy-change (2. order) :-0.6907965E-05  (-0.3102092E-05)
 number of electron     255.9999512 magnetization 
 augmentation part      -41.2832746 magnetization 

 Broyden mixing:
  rms(total) = 0.22218E-02    rms(broyden)= 0.22218E-02
  rms(prec ) = 0.24854E-02
  weight for this iteration     100.00

 eigenvalues of (default mixing * dielectric matrix)
  average eigenvalue GAMMA=   1.8865
  3.2466  2.6136  2.6136  1.3458  1.3458  1.0200  1.0200

 Free energy of the ion-electron system (eV)
  ---------------------------------------------------
  alpha Z        PSCENC =       571.28278463
  Ewald energy   TEWEN  =     -7191.12626699
  -Hartree energ DENC   =      -710.74838029
  -exchange      EXHF   =         0.00000000
  -V(xc)+E(xc)   XCENC  =      -974.37021673
  PAW double counting   =     14666.51307901   -13233.98683561
  entropy T*S    EENTRO =         0.00000000
  eigenvalues    EBANDS =      -722.48956229
  atomic energy  EATOM  =      7329.73306348
  Solvation  Ediel_sol  =         0.00000000
  ---------------------------------------------------
  free energy    TOTEN  =      -265.19233479 eV

  energy without entropy =     -265.19233479  energy(sigma->0) =     -265.19233479


--------------------------------------------------------------------------------------------------------




--------------------------------------- Iteration      1(  13)  ---------------------------------------


    POTLOK:  cpu time      0.1100: real time      0.1154
    SETDIJ:  cpu time      0.0109: real time      0.0110
     EDDAV:  cpu time    153.7813: real time    155.7978
 BZINTS: Fermi energy:    2.318258;  256.000000 electrons
         Band energy:-0.722364E+03;  BLOECHL correction:    0.000000
       DOS:  cpu time      0.0076: real time      0.0077
    CHARGE:  cpu time      0.7972: real time      0.8029
    MIXING:  cpu time      0.0040: real time      0.0040
    --------------------------------------------
      LOOP:  cpu time    154.7110: real time    156.7388

 eigenvalue-minimisations  :  6976
 total energy-change (2. order) :-0.8801899E-05  (-0.7758805E-05)
 number of electron     255.9999512 magnetization 
 augmentation part      -41.2825708 magnetization 

 Broyden mixing:
  rms(total) = 0.97175E-03    rms(broyden)= 0.97175E-03
  rms(prec ) = 0.10879E-02
  weight for this iteration     100.00

 eigenvalues of (default mixing * dielectric matrix)
  average eigenvalue GAMMA=   1.8411
  3.3707  2.7751  2.4508  1.6220  1.6220  1.1011  0.8934  0.8934

 Free energy of the ion-electron system (eV)
  ---------------------------------------------------
  alpha Z        PSCENC =       571.28278463
  Ewald energy   TEWEN  =     -7191.12626699
  -Hartree energ DENC   =      -710.87300688
  -exchange      EXHF   =         0.00000000
  -V(xc)+E(xc)   XCENC  =      -974.36536865
  PAW double counting   =     14670.19534032   -13237.67515178
  entropy T*S    EENTRO =         0.00000000
  eigenvalues    EBANDS =      -722.36373772
  atomic energy  EATOM  =      7329.73306348
  Solvation  Ediel_sol  =         0.00000000
  ---------------------------------------------------
  free energy    TOTEN  =      -265.19234360 eV

  energy without entropy =     -265.19234360  energy(sigma->0) =     -265.19234360


--------------------------------------------------------------------------------------------------------




--------------------------------------- Iteration      1(  14)  ---------------------------------------


    POTLOK:  cpu time      0.1115: real time      0.1147
    SETDIJ:  cpu time      0.0109: real time      0.0110
     EDDAV:  cpu time    134.1927: real time    135.9319
 BZINTS: Fermi energy:    2.316031;  256.000000 electrons
         Band energy:-0.722376E+03;  BLOECHL correction:    0.000000
       DOS:  cpu time      0.0076: real time      0.0077
    --------------------------------------------
      LOOP:  cpu time    134.3228: real time    136.0653

 eigenvalue-minimisations  :  5912
 total energy-change (2. order) : 0.5741385E-06  (-0.3985863E-06)
 number of electron     255.9999512 magnetization 
 augmentation part      -41.2825708 magnetization 

 Free energy of the ion-electron system (eV)
  ---------------------------------------------------
  alpha Z        PSCENC =       571.28278463
  Ewald energy   TEWEN  =     -7191.12626699
  -Hartree energ DENC   =      -710.86147618
  -exchange      EXHF   =         0.00000000
  -V(xc)+E(xc)   XCENC  =      -974.36547741
  PAW double counting   =     14670.23035370   -13237.70897437
  entropy T*S    EENTRO =         0.00000000
  eigenvalues    EBANDS =      -722.37634988
  atomic energy  EATOM  =      7329.73306348
  Solvation  Ediel_sol  =         0.00000000
  ---------------------------------------------------
  free energy    TOTEN  =      -265.19234302 eV

  energy without entropy =     -265.19234302  energy(sigma->0) =     -265.19234302


--------------------------------------------------------------------------------------------------------




 average (electrostatic) potential at core
  the test charge radii are     1.0621  1.2767
  (the norm of the test charge is              1.0000)
       1 -51.9026       2 -51.9026       3 -51.9026       4 -51.9026       5 -51.9026
       6 -51.9026       7 -51.9026       8 -51.9026       9 -51.9026      10 -51.9026
      11 -51.9026      12 -51.9026      13 -51.9026      14 -51.9026      15 -51.9026
      16 -51.9026      17 -51.9026      18 -51.9026      19 -51.9026      20 -51.9026
      21 -51.9026      22 -51.9026      23 -51.9026      24 -51.9026      25 -51.9026
      26 -51.9026      27 -51.9026      28 -51.9026      29 -51.9026      30 -51.9026
      31 -51.9026      32 -51.9026      33 -15.0767      34 -15.0767      35 -15.0767
      36 -15.0767      37 -15.0767      38 -15.0767      39 -15.0767      40 -15.0767
      41 -15.0767      42 -15.0767      43 -15.0767      44 -15.0767      45 -15.0767
      46 -15.0767      47 -15.0767      48 -15.0767      49 -15.0767      50 -15.0767
      51 -15.0767      52 -15.0767      53 -15.0767      54 -15.0767      55 -15.0767
      56 -15.0767      57 -15.0767      58 -15.0767      59 -15.0767      60 -15.0767
      61 -15.0767      62 -15.0767      63 -15.0767      64 -15.0767
 
 
 
 E-fermi :   2.3160     XC(G=0):  -8.9469     alpha+bet : -8.0724

 val. band max:        2.2836724612   @ k =   0.0000   0.0000   0.0000
 cond. band min:       2.4184615959   @ k =   0.0000   0.0000   0.0000
 fundamental gap:      0.1347891347
 Fermi energy:         2.3160307382

 k-point     1 :       0.0000    0.0000    0.0000
  band No.  band energies     occupation 
      1     -10.0217      2.00000
      2      -9.2233      2.00000
      3      -9.2233      2.00000
      4      -9.2192      2.00000
      5      -9.2192      2.00000
      6      -9.2192      2.00000
      7      -9.2192      2.00000
      8      -8.6200      2.00000
      9      -8.6200      2.00000
     10      -8.6200      2.00000
     11      -8.6200      2.00000
     12      -8.6200      2.00000
     13      -8.6200      2.00000
     14      -8.6200      2.00000
     15      -8.6200      2.00000
     16      -8.6185      2.00000
     17      -8.6185      2.00000
     18      -8.6185      2.00000
     19      -8.6185      2.00000
     20      -8.5331      2.00000
     21      -8.5331      2.00000
     22      -8.5331      2.00000
     23      -8.5331      2.00000
     24      -7.8939      2.00000
     25      -7.8839      2.00000
     26      -7.8839      2.00000
     27      -7.8538      2.00000
     28      -7.8538      2.00000
     29      -7.8538      2.00000
     30      -7.8538      2.00000
     31      -7.8496      2.00000
     32      -7.8496      2.00000
     33      -4.2568      2.00000
     34      -4.2386      2.00000
     35      -4.2386      2.00000
     36      -4.0729      2.00000
     37      -4.0729      2.00000
     38      -4.0729      2.00000
     39      -4.0729      2.00000
     40      -4.0666      2.00000
     41      -4.0666      2.00000
     42      -4.0233      2.00000
     43      -4.0233      2.00000
     44      -4.0233      2.00000
     45      -4.0233      2.00000
     46      -3.1811      2.00000
     47      -3.1811      2.00000
     48      -3.1811      2.00000
     49      -3.1811      2.00000
     50      -3.1756      2.00000
     51      -3.1756      2.00000
     52      -3.1756      2.00000
     53      -3.1756      2.00000
     54      -3.1756      2.00000
     55      -3.1756      2.00000
     56      -3.1756      2.00000
     57      -3.1756      2.00000
     58      -1.7820      2.00000
     59      -1.7820      2.00000
     60      -1.7664      2.00000
     61      -1.7664      2.00000
     62      -1.7664      2.00000
     63      -1.7664      2.00000
[...]
   15.671072    0.403628    0.406112    0.406112   -0.000000    0.000000    0.000000
   15.691112    0.405158    0.407717    0.407717   -0.000000    0.000000    0.000000
   15.711151    0.406729    0.409350    0.409350   -0.000000    0.000000    0.000000
   15.731191    0.408333    0.411018    0.411018   -0.000000    0.000000    0.000000
   15.751231    0.409961    0.412719    0.412719   -0.000000    0.000000    0.000000
   15.771270    0.411610    0.414447    0.414447   -0.000000    0.000000    0.000000
   15.791310    0.413274    0.416190    0.416190   -0.000000    0.000000    0.000000
   15.811350    0.414951    0.417940    0.417940   -0.000000    0.000000    0.000000
   15.831390    0.416638    0.419692    0.419692   -0.000000    0.000000    0.000000
   15.851429    0.418333    0.421441    0.421441   -0.000000    0.000000    0.000000
   15.871469    0.420033    0.423185    0.423185   -0.000000    0.000000    0.000000
   15.891509    0.421738    0.424923    0.424923   -0.000000    0.000000    0.000000
   15.911549    0.423445    0.426653    0.426653   -0.000000    0.000000    0.000000
   15.931588    0.425155    0.428378    0.428378   -0.000000    0.000000    0.000000
   15.951628    0.426870    0.430100    0.430100   -0.000000    0.000000    0.000000
   15.971668    0.428593    0.431827    0.431827   -0.000000    0.000000    0.000000
   15.991708    0.430324    0.433560    0.433560   -0.000000    0.000000    0.000000
   16.011747    0.432056    0.435297    0.435297   -0.000000    0.000000    0.000000
   16.031787    0.433782    0.437033    0.437033   -0.000000    0.000000    0.000000
   16.051827    0.435493    0.438761    0.438761   -0.000000    0.000000    0.000000
   16.071866    0.437186    0.440477    0.440477   -0.000000    0.000000    0.000000
   16.091906    0.438862    0.442182    0.442182   -0.000000    0.000000    0.000000
   16.111946    0.440528    0.443878    0.443878   -0.000000    0.000000    0.000000
   16.131986    0.442191    0.445567    0.445567   -0.000000    0.000000    0.000000
   16.152025    0.443858    0.447254    0.447254   -0.000000    0.000000    0.000000
   16.172065    0.445532    0.448940    0.448940   -0.000000    0.000000    0.000000
   16.192105    0.447212    0.450623    0.450623   -0.000000    0.000000    0.000000
   16.212145    0.448894    0.452301    0.452301   -0.000000    0.000000    0.000000
   16.232184    0.450573    0.453971    0.453971   -0.000000    0.000000    0.000000
   16.252224    0.452244    0.455631    0.455631   -0.000000    0.000000    0.000000
   16.272264    0.453907    0.457280    0.457280   -0.000000    0.000000    0.000000
   16.292304    0.455558    0.458917    0.458917   -0.000000    0.000000    0.000000
   16.312343    0.457197    0.460542    0.460542   -0.000000    0.000000    0.000000
   16.332383    0.458825    0.462155    0.462155   -0.000000    0.000000    0.000000
   16.352423    0.460441    0.463756    0.463756   -0.000000    0.000000    0.000000
   16.372462    0.462045    0.465346    0.465346   -0.000000    0.000000    0.000000
   16.392502    0.463638    0.466925    0.466925   -0.000000    0.000000    0.000000
   16.412542    0.465221    0.468492    0.468492   -0.000000    0.000000    0.000000
   16.432582    0.466792    0.470049    0.470049   -0.000000    0.000000    0.000000
   16.452621    0.468353    0.471596    0.471596   -0.000000    0.000000    0.000000
   16.472661    0.469905    0.473133    0.473133   -0.000000    0.000000    0.000000
   16.492701    0.471446    0.474660    0.474660   -0.000000    0.000000    0.000000
   16.512741    0.472977    0.476177    0.476177   -0.000000    0.000000    0.000000
   16.532780    0.474499    0.477685    0.477685   -0.000000    0.000000    0.000000
   16.552820    0.476011    0.479184    0.479184   -0.000000    0.000000    0.000000
   16.572860    0.477514    0.480674    0.480674   -0.000000    0.000000    0.000000
   16.592900    0.479008    0.482155    0.482155   -0.000000    0.000000    0.000000
   16.612939    0.480493    0.483627    0.483627   -0.000000    0.000000    0.000000
   16.632979    0.481969    0.485090    0.485090   -0.000000    0.000000    0.000000
   16.653019    0.483437    0.486545    0.486545   -0.000000    0.000000    0.000000
   16.673058    0.484895    0.487991    0.487991   -0.000000    0.000000    0.000000
   16.693098    0.486345    0.489430    0.489430   -0.000000    0.000000    0.000000
   16.713138    0.487786    0.490860    0.490860   -0.000000    0.000000    0.000000
   16.733178    0.489220    0.492282    0.492282   -0.000000    0.000000    0.000000
   16.753217    0.490645    0.493696    0.493696   -0.000000    0.000000    0.000000
   16.773257    0.492061    0.495103    0.495103   -0.000000    0.000000    0.000000
   16.793297    0.493471    0.496502    0.496502   -0.000000    0.000000    0.000000
   16.813337    0.494872    0.497893    0.497893   -0.000000    0.000000    0.000000
   16.833376    0.496265    0.499277    0.499277   -0.000000    0.000000    0.000000
   16.853416    0.497652    0.500653    0.500653   -0.000000    0.000000    0.000000
   16.873456    0.499030    0.502023    0.502023   -0.000000    0.000000    0.000000
   16.893496    0.500402    0.503385    0.503385   -0.000000    0.000000    0.000000
   16.913535    0.501766    0.504740    0.504740   -0.000000    0.000000    0.000000
   16.933575    0.503123    0.506089    0.506089   -0.000000    0.000000    0.000000
   16.953615    0.504474    0.507430    0.507430   -0.000000    0.000000    0.000000
   16.973654    0.505817    0.508765    0.508765   -0.000000    0.000000    0.000000
   16.993694    0.507154    0.510093    0.510093   -0.000000    0.000000    0.000000
   17.013734    0.508483    0.511415    0.511415   -0.000000    0.000000    0.000000
   17.033774    0.509807    0.512730    0.512730   -0.000000    0.000000    0.000000
   17.053813    0.511123    0.514039    0.514039   -0.000000    0.000000    0.000000
   17.073853    0.512434    0.515341    0.515341   -0.000000    0.000000    0.000000
   17.093893    0.513737    0.516637    0.516637   -0.000000    0.000000    0.000000
   17.113933    0.515035    0.517927    0.517927   -0.000000    0.000000    0.000000
   17.133972    0.516326    0.519210    0.519210   -0.000000    0.000000    0.000000
   17.154012    0.517611    0.520488    0.520488   -0.000000    0.000000    0.000000
   17.174052    0.518890    0.521759    0.521759   -0.000000    0.000000    0.000000
   17.194092    0.520163    0.523024    0.523024   -0.000000    0.000000    0.000000
   17.214131    0.521430    0.524284    0.524284   -0.000000    0.000000    0.000000
   17.234171    0.522691    0.525538    0.525538   -0.000000    0.000000    0.000000
   17.254211    0.523946    0.526785    0.526785   -0.000000    0.000000    0.000000
   17.274250    0.525195    0.528027    0.528027   -0.000000    0.000000    0.000000
   17.294290    0.526439    0.529264    0.529264   -0.000000    0.000000    0.000000
   17.314330    0.527676    0.530495    0.530495   -0.000000    0.000000    0.000000
   17.334370    0.528909    0.531720    0.531720   -0.000000    0.000000    0.000000
   17.354409    0.530135    0.532939    0.532939   -0.000000    0.000000    0.000000
   17.374449    0.531356    0.534153    0.534153   -0.000000    0.000000    0.000000
   17.394489    0.532571    0.535362    0.535362   -0.000000    0.000000    0.000000
   17.414529    0.533781    0.536565    0.536565   -0.000000    0.000000    0.000000
   17.434568    0.534986    0.537763    0.537763   -0.000000    0.000000    0.000000
   17.454608    0.536185    0.538955    0.538955   -0.000000    0.000000    0.000000
   17.474648    0.537379    0.540143    0.540143   -0.000000    0.000000    0.000000
   17.494688    0.538568    0.541325    0.541325   -0.000000    0.000000    0.000000
   17.514727    0.539751    0.542501    0.542501   -0.000000    0.000000    0.000000
   17.534767    0.540929    0.543673    0.543673   -0.000000    0.000000    0.000000
   17.554807    0.542102    0.544839    0.544839   -0.000000    0.000000    0.000000
   17.574846    0.543270    0.546001    0.546001   -0.000000    0.000000    0.000000
   17.594886    0.544433    0.547157    0.547157   -0.000000    0.000000    0.000000
   17.614926    0.545591    0.548309    0.548309   -0.000000    0.000000    0.000000
   17.634966    0.546744    0.549455    0.549455   -0.000000    0.000000    0.000000
   17.655005    0.547892    0.550597    0.550597   -0.000000    0.000000    0.000000
   17.675045    0.549035    0.551734    0.551734   -0.000000    0.000000    0.000000
   17.695085    0.550173    0.552866    0.552866   -0.000000    0.000000    0.000000
   17.715125    0.551306    0.553993    0.553993   -0.000000    0.000000    0.000000
   17.735164    0.552435    0.555115    0.555115   -0.000000    0.000000    0.000000
   17.755204    0.553558    0.556232    0.556232   -0.000000    0.000000    0.000000
   17.775244    0.554677    0.557345    0.557345   -0.000000    0.000000    0.000000
   17.795284    0.555792    0.558454    0.558454   -0.000000    0.000000    0.000000
   17.815323    0.556901    0.559557    0.559557   -0.000000    0.000000    0.000000
   17.835363    0.558006    0.560656    0.560656   -0.000000    0.000000    0.000000
   17.855403    0.559107    0.561751    0.561751   -0.000000    0.000000    0.000000
   17.875442    0.560202    0.562840    0.562840   -0.000000    0.000000    0.000000
   17.895482    0.561294    0.563926    0.563926   -0.000000    0.000000    0.000000
   17.915522    0.562381    0.565007    0.565007   -0.000000    0.000000    0.000000
   17.935562    0.563463    0.566083    0.566083   -0.000000    0.000000    0.000000
   17.955601    0.564541    0.567155    0.567155   -0.000000    0.000000    0.000000
   17.975641    0.565614    0.568223    0.568223   -0.000000    0.000000    0.000000
   17.995681    0.566684    0.569286    0.569286   -0.000000    0.000000    0.000000
   18.015721    0.567748    0.570345    0.570345   -0.000000    0.000000    0.000000
   18.035760    0.568809    0.571400    0.571400   -0.000000    0.000000    0.000000
   18.055800    0.569865    0.572450    0.572450   -0.000000    0.000000    0.000000
   18.075840    0.570917    0.573497    0.573497   -0.000000    0.000000    0.000000
   18.095880    0.571965    0.574539    0.574539   -0.000000    0.000000    0.000000
   18.115919    0.573008    0.575577    0.575577   -0.000000    0.000000    0.000000
   18.135959    0.574048    0.576610    0.576610   -0.000000    0.000000    0.000000
   18.155999    0.575083    0.577640    0.577640   -0.000000    0.000000    0.000000
   18.176039    0.576114    0.578665    0.578665   -0.000000    0.000000    0.000000
   18.196078    0.577141    0.579687    0.579687   -0.000000    0.000000    0.000000
   18.216118    0.578164    0.580704    0.580704   -0.000000    0.000000    0.000000
   18.236158    0.579183    0.581717    0.581717   -0.000000    0.000000    0.000000
   18.256197    0.580198    0.582727    0.582727   -0.000000    0.000000    0.000000
   18.276237    0.581208    0.583732    0.583732   -0.000000    0.000000    0.000000
   18.296277    0.582215    0.584733    0.584733   -0.000000    0.000000    0.000000
   18.316317    0.583218    0.585731    0.585731   -0.000000    0.000000    0.000000
   18.336356    0.584217    0.586724    0.586724   -0.000000    0.000000    0.000000
   18.356396    0.585212    0.587714    0.587714   -0.000000    0.000000    0.000000
   18.376436    0.586204    0.588700    0.588700   -0.000000    0.000000    0.000000
   18.396476    0.587191    0.589682    0.589682   -0.000000    0.000000    0.000000
   18.416515    0.588175    0.590660    0.590660   -0.000000    0.000000    0.000000
   18.436555    0.589155    0.591635    0.591635   -0.000000    0.000000    0.000000
   18.456595    0.590131    0.592606    0.592606   -0.000000    0.000000    0.000000
   18.476635    0.591103    0.593573    0.593573   -0.000000    0.000000    0.000000
   18.496674    0.592072    0.594536    0.594536   -0.000000    0.000000    0.000000
   18.516714    0.593036    0.595495    0.595495   -0.000000    0.000000    0.000000
   18.536754    0.593998    0.596451    0.596451   -0.000000    0.000000    0.000000
   18.556793    0.594955    0.597404    0.597404   -0.000000    0.000000    0.000000
   18.576833    0.595909    0.598352    0.598352   -0.000000    0.000000    0.000000
   18.596873    0.596859    0.599297    0.599297   -0.000000    0.000000    0.000000
   18.616913    0.597806    0.600239    0.600239   -0.000000    0.000000    0.000000
   18.636952    0.598749    0.601177    0.601177   -0.000000    0.000000    0.000000
   18.656992    0.599689    0.602111    0.602111   -0.000000    0.000000    0.000000
   18.677032    0.600625    0.603042    0.603042   -0.000000    0.000000    0.000000
   18.697072    0.601557    0.603969    0.603969   -0.000000    0.000000    0.000000
   18.717111    0.602486    0.604893    0.604893   -0.000000    0.000000    0.000000
   18.737151    0.603411    0.605814    0.605814   -0.000000    0.000000    0.000000
   18.757191    0.604334    0.606731    0.606731   -0.000000    0.000000    0.000000
   18.777231    0.605252    0.607644    0.607644   -0.000000    0.000000    0.000000
   18.797270    0.606167    0.608554    0.608554   -0.000000    0.000000    0.000000
   18.817310    0.607079    0.609461    0.609461   -0.000000    0.000000    0.000000
   18.837350    0.607988    0.610365    0.610365   -0.000000    0.000000    0.000000
   18.857389    0.608893    0.611265    0.611265   -0.000000    0.000000    0.000000
   18.877429    0.609794    0.612161    0.612161   -0.000000    0.000000    0.000000
   18.897469    0.610693    0.613055    0.613055   -0.000000    0.000000    0.000000
   18.917509    0.611588    0.613945    0.613945   -0.000000    0.000000    0.000000
   18.937548    0.612480    0.614832    0.614832   -0.000000    0.000000    0.000000
   18.957588    0.613368    0.615716    0.615716   -0.000000    0.000000    0.000000
   18.977628    0.614254    0.616596    0.616596   -0.000000    0.000000    0.000000
   18.997668    0.615136    0.617473    0.617473   -0.000000    0.000000    0.000000
   19.017707    0.616014    0.618347    0.618347   -0.000000    0.000000    0.000000
   19.037747    0.616890    0.619218    0.619218   -0.000000    0.000000    0.000000
   19.057787    0.617763    0.620086    0.620086   -0.000000    0.000000    0.000000
   19.077827    0.618632    0.620950    0.620950   -0.000000    0.000000    0.000000
   19.097866    0.619498    0.621812    0.621812   -0.000000    0.000000    0.000000
   19.117906    0.620361    0.622670    0.622670   -0.000000    0.000000    0.000000
   19.137946    0.621221    0.623525    0.623525   -0.000000    0.000000    0.000000
   19.157985    0.622078    0.624377    0.624377   -0.000000    0.000000    0.000000
   19.178025    0.622932    0.625226    0.625226   -0.000000    0.000000    0.000000
   19.198065    0.623782    0.626072    0.626072   -0.000000    0.000000    0.000000
   19.218105    0.624630    0.626915    0.626915   -0.000000    0.000000    0.000000
   19.238144    0.625475    0.627755    0.627755   -0.000000    0.000000    0.000000
   19.258184    0.626316    0.628592    0.628592   -0.000000    0.000000    0.000000
   19.278224    0.627155    0.629426    0.629426   -0.000000    0.000000    0.000000
   19.298264    0.627991    0.630257    0.630257   -0.000000    0.000000    0.000000
   19.318303    0.628823    0.631085    0.631085   -0.000000    0.000000    0.000000
   19.338343    0.629653    0.631910    0.631910   -0.000000    0.000000    0.000000
   19.358383    0.630480    0.632733    0.632733   -0.000000    0.000000    0.000000
   19.378423    0.631304    0.633552    0.633552   -0.000000    0.000000    0.000000
   19.398462    0.632125    0.634368    0.634368   -0.000000    0.000000    0.000000
   19.418502    0.632943    0.635182    0.635182   -0.000000    0.000000    0.000000
   19.438542    0.633758    0.635993    0.635993   -0.000000    0.000000    0.000000
   19.458581    0.634571    0.636800    0.636800   -0.000000    0.000000    0.000000
   19.478621    0.635380    0.637606    0.637606   -0.000000    0.000000    0.000000
   19.498661    0.636187    0.638408    0.638408   -0.000000    0.000000    0.000000
   19.518701    0.636991    0.639207    0.639207   -0.000000    0.000000    0.000000
   19.538740    0.637792    0.640004    0.640004   -0.000000    0.000000    0.000000
   19.558780    0.638590    0.640798    0.640798   -0.000000    0.000000    0.000000
   19.578820    0.639386    0.641589    0.641589   -0.000000    0.000000    0.000000
   19.598860    0.640179    0.642377    0.642377   -0.000000    0.000000    0.000000
   19.618899    0.640969    0.643163    0.643163   -0.000000    0.000000    0.000000
   19.638939    0.641756    0.643945    0.643945   -0.000000    0.000000    0.000000
   19.658979    0.642540    0.644726    0.644726   -0.000000    0.000000    0.000000
   19.679019    0.643322    0.645503    0.645503   -0.000000    0.000000    0.000000
   19.699058    0.644102    0.646278    0.646278   -0.000000    0.000000    0.000000
   19.719098    0.644878    0.647050    0.647050   -0.000000    0.000000    0.000000
   19.739138    0.645652    0.647820    0.647820   -0.000000    0.000000    0.000000
   19.759177    0.646423    0.648587    0.648587   -0.000000    0.000000    0.000000
   19.779217    0.647192    0.649351    0.649351   -0.000000    0.000000    0.000000
   19.799257    0.647958    0.650112    0.650112   -0.000000    0.000000    0.000000
   19.819297    0.648721    0.650872    0.650872   -0.000000    0.000000    0.000000
   19.839336    0.649482    0.651628    0.651628   -0.000000    0.000000    0.000000
   19.859376    0.650240    0.652382    0.652382   -0.000000    0.000000    0.000000
   19.879416    0.650995    0.653133    0.653133   -0.000000    0.000000    0.000000
   19.899456    0.651748    0.653882    0.653882   -0.000000    0.000000    0.000000
   19.919495    0.652499    0.654628    0.654628   -0.000000    0.000000    0.000000
   19.939535    0.653247    0.655372    0.655372   -0.000000    0.000000    0.000000
   19.959575    0.653992    0.656113    0.656113   -0.000000    0.000000    0.000000
   19.979615    0.654735    0.656852    0.656852   -0.000000    0.000000    0.000000
   19.999654    0.655476    0.657588    0.657588   -0.000000    0.000000    0.000000
   20.019694    0.656214    0.658322    0.658322   -0.000000    0.000000    0.000000
 
 The outermost node in the dielectric function lies at epsilon=  12.1


--------------------------------------------------------------------------------------------------------


    OPTICS:  cpu time     56.4634: real time     57.4232
    4ORBIT:  cpu time      0.0000: real time      0.0000
 BZINTS: Fermi energy:    2.313295;  256.000000 electrons
         Band energy:-0.722390E+03;  BLOECHL correction:    0.000000

 total amount of memory used by VASP MPI-rank0   362563. kBytes
=======================================================================

   base      :      30000. kBytes
   nonl-proj :     132931. kBytes
   fftplans  :       7212. kBytes
   grid      :      18251. kBytes
   one-center:        519. kBytes
   wavefun   :     173650. kBytes
 
  
  
 General timing and accounting informations for this job:
 ========================================================
  
                  Total CPU time used (sec):    18336.854
                            User time (sec):    17988.019
                          System time (sec):      348.834
                         Elapsed time (sec):    18586.284
  
                   Maximum memory used (kb):     1860324.
                   Average memory used (kb):          N/A
  
                          Minor page faults:      2292950
                          Major page faults:          262
                 Voluntary context switches:        21989
