 running    8 mpi-ranks, on    1 nodes
 distrk:  each k-point on    8 cores,    1 groups
 distr:  one band on    1 cores,    8 groups
 vasp.6.4.3 19Mar24 (build Aug 29 2024 15:27:20) complex                        
  
 POSCAR found type information on POSCAR AsGa
 POSCAR found :  2 types and      64 ions
 scaLAPACK will be used
 -----------------------------------------------------------------------------
|                                                                             |
|           W    W    AA    RRRRR   N    N  II  N    N   GGGG   !!!           |
|           W    W   A  A   R    R  NN   N  II  NN   N  G    G  !!!           |
|           W    W  A    A  R    R  N N  N  II  N N  N  G       !!!           |
|           W WW W  AAAAAA  RRRRR   N  N N  II  N  N N  G  GGG   !            |
|           WW  WW  A    A  R   R   N   NN  II  N   NN  G    G                |
|           W    W  A    A  R    R  N    N  II  N    N   GGGG   !!!           |
|                                                                             |
|     For optimal performance we recommend to set                             |
|       NCORE = 2 up to number-of-cores-per-socket                            |
|     NCORE specifies how many cores store one orbital (NPAR=cpu/NCORE).      |
|     This setting can greatly improve the performance of VASP for DFT.       |
|     The default, NCORE=1 might be grossly inefficient on modern             |
|     multi-core architectures or massively parallel machines. Do your        |
|     own testing! More info at https://www.vasp.at/wiki/index.php/NCORE      |
|     Unfortunately you need to use the default for GW and RPA                |
|     calculations (for HF NCORE is supported but not extensively tested      |
|     yet).                                                                   |
|                                                                             |
 -----------------------------------------------------------------------------

 -----------------------------------------------------------------------------
|                                                                             |
|               ----> ADVICE to this user running VASP <----                  |
|                                                                             |
|     You have a (more or less) 'large supercell' and for larger cells it     |
|     might be more efficient to use real-space projection operators.         |
|     Therefore, try LREAL= Auto in the INCAR file.                           |
|     Mind: For very accurate calculation, you might also keep the            |
|     reciprocal projection scheme (i.e. LREAL=.FALSE.).                      |
|                                                                             |
 -----------------------------------------------------------------------------

 LDA part: xc-table for (Slater+PW92), standard interpolation
 POSCAR, INCAR and KPOINTS ok, starting setup
 FFT: planning ... GRIDC
 FFT: planning ... GRID_SOFT
 FFT: planning ... GRID
 WAVECAR not read
 entering main loop
       N       E                     dE             d eps       ncg     rms          rms(c)
DAV:   1     0.935701849470E+03    0.93570E+03   -0.80901E+04  6048   0.101E+03
DAV:   2    -0.167454218075E+03   -0.11032E+04   -0.10513E+04  7216   0.170E+02
DAV:   3    -0.267686787191E+03   -0.10023E+03   -0.98909E+02  7384   0.522E+01
DAV:   4    -0.270174995466E+03   -0.24882E+01   -0.24598E+01  7296   0.857E+00
DAV:   5    -0.270244522455E+03   -0.69527E-01   -0.69303E-01  7368   0.128E+00    0.202E+01
DAV:   6    -0.266051055385E+03    0.41935E+01   -0.65141E+00  7024   0.358E+00    0.118E+01
DAV:   7    -0.265219676097E+03    0.83138E+00   -0.43270E+00  7288   0.299E+00    0.245E+00
DAV:   8    -0.265178231774E+03    0.41444E-01   -0.50674E-01  7056   0.109E+00    0.614E-01
DAV:   9    -0.265189947536E+03   -0.11716E-01   -0.35764E-02  6960   0.392E-01    0.231E-01
DAV:  10    -0.265191027510E+03   -0.10800E-02   -0.98501E-04  7504   0.596E-02    0.107E-01
DAV:  11    -0.265192327887E+03   -0.13004E-02   -0.21893E-03  6496   0.870E-02    0.500E-02
DAV:  12    -0.265192334795E+03   -0.69080E-05   -0.31021E-05  7416   0.115E-02    0.222E-02
DAV:  13    -0.265192343596E+03   -0.88019E-05   -0.77588E-05  6976   0.132E-02    0.972E-03
DAV:  14    -0.265192343022E+03    0.57414E-06   -0.39859E-06  5912   0.386E-03
 Linear response reoptimize wavefunctions to high precision
DAV:   1    -0.265192343512E+03   -0.48961E-06   -0.22035E-06  7248   0.198E-03
DAV:   2    -0.265192343521E+03   -0.87875E-08   -0.90674E-08  6104   0.559E-04
DAV:   3    -0.265192343521E+03   -0.49113E-10   -0.16253E-09  3760   0.789E-05
 Linear response G [H, r] |phi>, progress :
  Direction:   1
       N       E                     dE             d eps       ncg     rms
RMM:   1    -0.127253243480E+04   -0.12725E+04    0.18350E+03 14185   0.841E+01
RMM:   2    -0.109932810662E+04    0.17320E+03   -0.20765E+02  9800   0.227E+01
RMM:   3    -0.110158820629E+04   -0.22601E+01   -0.10278E+01 10082   0.379E+00
RMM:   4    -0.110171065027E+04   -0.12244E+00   -0.43734E-01 10475   0.668E-01
RMM:   5    -0.110171136529E+04   -0.71502E-03   -0.12714E-01 10516   0.143E-01
RMM:   6    -0.110170511659E+04    0.62487E-02   -0.47160E-02 11153   0.384E-02
RMM:   7    -0.110170961013E+04   -0.44935E-02   -0.89499E-02 11765   0.190E-02
RMM:   8    -0.110170463661E+04    0.49735E-02   -0.39569E-02 12505   0.158E-02
RMM:   9    -0.110170964542E+04   -0.50088E-02   -0.90154E-02 12701   0.153E-02
RMM:  10    -0.110170343781E+04    0.62076E-02   -0.28236E-02 12974   0.153E-02
RMM:  11    -0.110170963019E+04   -0.61924E-02   -0.89498E-02 13235   0.153E-02
 Linear response G [H, r] |phi>, progress :
  Direction:   2
       N       E                     dE             d eps       ncg     rms
RMM:   1    -0.126283946069E+04   -0.12628E+04    0.17355E+03 14266   0.837E+01
RMM:   2    -0.109800927156E+04    0.16483E+03   -0.20738E+02  9772   0.226E+01
RMM:   3    -0.109971040571E+04   -0.17011E+01   -0.10224E+01 10079   0.375E+00
RMM:   4    -0.109981159391E+04   -0.10119E+00   -0.66722E-01 10478   0.660E-01
RMM:   5    -0.109978626791E+04    0.25326E-01   -0.10135E-01 10486   0.142E-01
RMM:   6    -0.109978073688E+04    0.55310E-02   -0.26284E-02 11227   0.387E-02
RMM:   7    -0.109977841029E+04    0.23266E-02   -0.25853E-03 11844   0.195E-02
RMM:   8    -0.109977811948E+04    0.29081E-03    0.11896E-03 12556   0.164E-02
RMM:   9    -0.109977779828E+04    0.32120E-03    0.33816E-03 12783   0.160E-02
RMM:  10    -0.109977791344E+04   -0.11516E-03    0.31027E-03 13061   0.159E-02
RMM:  11    -0.109977780011E+04    0.11333E-03    0.42956E-03 13291   0.159E-02
 Linear response G [H, r] |phi>, progress :
  Direction:   3
       N       E                     dE             d eps       ncg     rms
RMM:   1    -0.137422797683E+04   -0.13742E+04    0.14427E+03 14621   0.857E+01
RMM:   2    -0.110341964285E+04    0.27081E+03   -0.23498E+02  9818   0.239E+01
RMM:   3    -0.110542345463E+04   -0.20038E+01   -0.11471E+01 10081   0.397E+00
RMM:   4    -0.110554005029E+04   -0.11660E+00   -0.67437E-01 10524   0.693E-01
RMM:   5    -0.110551460675E+04    0.25444E-01   -0.91787E-02 10500   0.149E-01
RMM:   6    -0.110550957722E+04    0.50295E-02   -0.20911E-02 11168   0.404E-02
RMM:   7    -0.110550729598E+04    0.22812E-02    0.33672E-03 11815   0.204E-02
RMM:   8    -0.110550695081E+04    0.34517E-03    0.64683E-03 12585   0.172E-02
RMM:   9    -0.110550667991E+04    0.27090E-03    0.93707E-03 12720   0.167E-02
RMM:  10    -0.110550676320E+04   -0.83285E-04    0.80347E-03 13014   0.167E-02
RMM:  11    -0.110550671945E+04    0.43753E-04    0.87000E-03 13241   0.167E-02
 Linear response to external field, progress :
  Direction:   1
       N       E                     dE             d eps       ncg     rms          rms(c)
RMM:   1    -0.116877298255E+03   -0.11688E+03   -0.88809E+02 15503   0.665E+00
RMM:   2    -0.332665712019E+03   -0.21579E+03   -0.10128E+01 14740   0.146E+00    0.126E+01
RMM:   3    -0.329682807755E+03    0.29829E+01   -0.95209E-01 14716   0.159E+00    0.741E+00
RMM:   4    -0.321171540371E+03    0.85113E+01   -0.14772E+00 14221   0.224E+00    0.748E-01
RMM:   5    -0.320485252620E+03    0.68629E+00   -0.68958E-02 15083   0.449E-01    0.115E-01
RMM:   6    -0.320408981088E+03    0.76272E-01   -0.32211E-03 15182   0.819E-02    0.651E-02
RMM:   7    -0.320357748436E+03    0.51233E-01   -0.48788E-03 15067   0.590E-02    0.257E-02
RMM:   8    -0.320343923666E+03    0.13825E-01   -0.15815E-03 15852   0.990E-03    0.668E-03
RMM:   9    -0.320349555659E+03   -0.56320E-02   -0.45123E-04 15873   0.628E-03    0.134E-03
RMM:  10    -0.320349240129E+03    0.31553E-03   -0.24852E-04 15984   0.202E-03    0.422E-04
RMM:  11    -0.320349003671E+03    0.23646E-03   -0.62311E-05 15683   0.185E-03    0.792E-05
RMM:  12    -0.320349038863E+03   -0.35191E-04   -0.99775E-05 14293   0.171E-03    0.358E-05
RMM:  13    -0.320349023616E+03    0.15247E-04   -0.42097E-05 14364   0.171E-03    0.742E-06
 change of polarisation eV/A/(eV/A) component  1 :   661.210    -8.473   -12.966
 dielectric tensor                  component  1 :    79.049    -1.000    -1.530
 Linear response to external field, progress :
  Direction:   2
       N       E                     dE             d eps       ncg     rms          rms(c)
RMM:   1    -0.126238781602E+03   -0.12624E+03   -0.97115E+02 22583   0.676E+00
RMM:   2    -0.452074540614E+03   -0.32584E+03   -0.32693E+00 21422   0.151E+00    0.134E+01
RMM:   3    -0.449734940494E+03    0.23396E+01   -0.15734E+00 21437   0.159E+00    0.786E+00
RMM:   4    -0.440344826492E+03    0.93901E+01   -0.14122E+00 20619   0.228E+00    0.738E-01
RMM:   5    -0.439577737927E+03    0.76709E+00   -0.82313E-02 21904   0.466E-01    0.847E-02
RMM:   6    -0.439515206879E+03    0.62531E-01   -0.47295E-03 22319   0.669E-02    0.542E-02
RMM:   7    -0.439499865037E+03    0.15342E-01   -0.29845E-03 22070   0.464E-02    0.260E-02
RMM:   8    -0.439484661547E+03    0.15203E-01   -0.71784E-05 23118   0.799E-03    0.466E-03
RMM:   9    -0.439488385915E+03   -0.37244E-02   -0.25202E-04 23370   0.509E-03    0.102E-03
RMM:  10    -0.439488375838E+03    0.10077E-04   -0.93233E-05 23348   0.205E-03    0.387E-04
RMM:  11    -0.439487975146E+03    0.40069E-03   -0.63557E-05 23146   0.191E-03    0.611E-05
RMM:  12    -0.439488004411E+03   -0.29266E-04   -0.51563E-05 21705   0.181E-03    0.355E-05
RMM:  13    -0.439488008076E+03   -0.36649E-05   -0.50119E-05 21826   0.181E-03    0.571E-06
 change of polarisation eV/A/(eV/A) component  2 :    -4.568   901.414   -12.356
 dielectric tensor                  component  2 :    -0.539   107.403    -1.458
 Linear response to external field, progress :
  Direction:   3
       N       E                     dE             d eps       ncg     rms          rms(c)
RMM:   1    -0.126235997542E+03   -0.12624E+03   -0.97113E+02 22584   0.676E+00
RMM:   2    -0.452074561197E+03   -0.32584E+03   -0.32671E+00 21407   0.151E+00    0.134E+01
RMM:   3    -0.449735021477E+03    0.23395E+01   -0.15738E+00 21438   0.159E+00    0.786E+00
RMM:   4    -0.440345189135E+03    0.93898E+01   -0.14162E+00 20620   0.228E+00    0.738E-01
RMM:   5    -0.439577479006E+03    0.76771E+00   -0.80926E-02 21920   0.466E-01    0.847E-02
RMM:   6    -0.439515053116E+03    0.62426E-01   -0.15952E-03 22332   0.668E-02    0.542E-02
RMM:   7    -0.439499762217E+03    0.15291E-01    0.31694E-03 22062   0.464E-02    0.260E-02
RMM:   8    -0.439484581316E+03    0.15181E-01    0.19016E-03 23133   0.797E-03    0.467E-03
RMM:   9    -0.439488305801E+03   -0.37245E-02   -0.13952E-05 23343   0.508E-03    0.102E-03
RMM:  10    -0.439488299647E+03    0.61538E-05   -0.11069E-04 23327   0.204E-03    0.387E-04
RMM:  11    -0.439487898967E+03    0.40068E-03   -0.12967E-04 23136   0.189E-03    0.612E-05
RMM:  12    -0.439487926950E+03   -0.27984E-04    0.81687E-06 21661   0.179E-03    0.352E-05
RMM:  13    -0.439487932043E+03   -0.50928E-05   -0.10063E-04 21775   0.179E-03    0.546E-06
 change of polarisation eV/A/(eV/A) component  3 :   -11.911    -3.468   901.414
 dielectric tensor                  component  3 :    -1.406    -0.409   107.403
 Born effective charges drift removed
   1 F= -.26519234E+03 E0= -.26519234E+03  d E =-.265192E+03
 curvature:   0.00 expect dE= 0.000E+00 dE for cont linesearch  0.000E+00
 trial: gam= 0.00000 g(F)=  0.734E-58 g(S)=  0.000E+00 ort = 0.000E+00 (trialstep = 0.100E+01)
 search vector abs. value=  0.100E-09
 reached required accuracy - stopping structural energy minimisation
 writing wavefunctions
 optical routines
 imaginary and real dielectric function
 recalculating local potential from charge density
 direction            1
 direction            2
 direction            3
