<?xml version="1.0" encoding="ISO-8859-1"?>
<modeling>
 <generator>
  <i name="program" type="string">vasp </i>
  <i name="version" type="string">6.4.3  </i>
  <i name="subversion" type="string">19Mar24 (build Aug 29 2024 15:27:20) complex                          parallel </i>
  <i name="platform" type="string">LinuxIFC </i>
  <i name="date" type="string">2025 03 24 </i>
  <i name="time" type="string">12:04:10 </i>
 </generator>
 <incar>
  <i type="string" name="SYSTEM">GaAs</i>
  <i type="string" name="PREC">Normal</i>
  <i type="int" name="IBRION">     2</i>
  <i type="int" name="NFREE">     2</i>
  <i type="int" name="NSW">   100</i>
  <i type="int" name="ISIF">     2</i>
  <i name="ENCUT">    400.00000000</i>
  <i name="POTIM">      0.10000000</i>
  <i type="int" name="ISMEAR">    -5</i>
  <i name="SIGMA">      0.10000000</i>
  <i type="logical" name="LOPTICS"> T  </i>
  <i type="logical" name="LEPSILON"> T  </i>
 </incar>
 <primitive_cell>
  <structure name="primitive_cell" >
   <crystal>
    <varray name="basis" >
     <v>       2.88890421       0.00000000       2.87946664 </v>
     <v>       2.88890421       0.00000000      -2.87946664 </v>
     <v>      -2.88890421       2.87946664       0.00000000 </v>
    </varray>
    <i name="volume">     47.90570549 </i>
    <varray name="rec_basis" >
     <v>       0.17307601       0.17364327       0.17364327 </v>
     <v>       0.17307601       0.17364327      -0.17364327 </v>
     <v>       0.00000000       0.34728654       0.00000000 </v>
    </varray>
   </crystal>
   <varray name="positions" >
    <v>       0.00000000       0.00000000       0.00000000 </v>
    <v>       0.75000000       0.25000000       0.50000000 </v>
   </varray>
  </structure>
  <varray name="primitive_index" >
   <v type="int" >        1 </v>
   <v type="int" >       33 </v>
  </varray>
 </primitive_cell>
 <kpoints>
  <generation param="Gamma">
   <v type="int" name="divisions">       5        5        5 </v>
   <v name="usershift">      0.00000000       0.00000000       0.00000000 </v>
   <v name="genvec1">      0.20000000       0.00000000       0.00000000 </v>
   <v name="genvec2">      0.00000000       0.20000000       0.00000000 </v>
   <v name="genvec3">      0.00000000       0.00000000       0.20000000 </v>
   <v name="shift">      0.00000000       0.00000000       0.00000000 </v>
  </generation>
  <varray name="kpointlist" >
   <v>       0.00000000       0.00000000       0.00000000 </v>
   <v>       0.20000000       0.00000000       0.00000000 </v>
   <v>       0.40000000       0.00000000       0.00000000 </v>
   <v>       0.00000000       0.20000000       0.00000000 </v>
   <v>       0.20000000       0.20000000       0.00000000 </v>
   <v>       0.40000000       0.20000000       0.00000000 </v>
   <v>       0.00000000       0.40000000       0.00000000 </v>
   <v>       0.20000000       0.40000000       0.00000000 </v>
   <v>       0.40000000       0.40000000       0.00000000 </v>
   <v>       0.00000000       0.20000000       0.20000000 </v>
   <v>       0.20000000       0.20000000       0.20000000 </v>
   <v>       0.40000000       0.20000000       0.20000000 </v>
   <v>       0.00000000       0.40000000       0.20000000 </v>
   <v>       0.20000000       0.40000000       0.20000000 </v>
   <v>       0.40000000       0.40000000       0.20000000 </v>
   <v>       0.00000000       0.40000000       0.40000000 </v>
   <v>       0.20000000       0.40000000       0.40000000 </v>
   <v>       0.40000000       0.40000000       0.40000000 </v>
  </varray>
  <varray name="weights" >
   <v>       0.00800000 </v>
   <v>       0.01600000 </v>
   <v>       0.01600000 </v>
   <v>       0.03200000 </v>
   <v>       0.06400000 </v>
   <v>       0.06400000 </v>
   <v>       0.03200000 </v>
   <v>       0.06400000 </v>
   <v>       0.06400000 </v>
   <v>       0.03200000 </v>
   <v>       0.06400000 </v>
   <v>       0.06400000 </v>
   <v>       0.06400000 </v>
   <v>       0.12800000 </v>
   <v>       0.12800000 </v>
   <v>       0.03200000 </v>
   <v>       0.06400000 </v>
   <v>       0.06400000 </v>
  </varray>
  <varray name="tetrahedronlist"  type="int" >
   <v type="int" >        4       11       12       14       15 </v>
   <v type="int" >        4       11       14       14       15 </v>
   <v type="int" >        8       14       14       15       17 </v>
   <v type="int" >        4       12       14       15       15 </v>
   <v type="int" >        8       14       15       15       18 </v>
   <v type="int" >        4       14       15       17       18 </v>
   <v type="int" >        2       12       12       15       15 </v>
   <v type="int" >        4       12       15       15       15 </v>
   <v type="int" >       12       15       15       15       18 </v>
   <v type="int" >       10       15       15       18       18 </v>
   <v type="int" >        4       10       11       13       14 </v>
   <v type="int" >        4       11       13       14       14 </v>
   <v type="int" >        8       13       14       14       17 </v>
   <v type="int" >        4       10       13       13       14 </v>
   <v type="int" >        8       13       13       14       16 </v>
   <v type="int" >        4       13       14       16       17 </v>
   <v type="int" >        4       14       15       15       17 </v>
   <v type="int" >        4       14       15       17       17 </v>
   <v type="int" >        4       15       15       17       18 </v>
   <v type="int" >        4       15       17       18       18 </v>
   <v type="int" >        4       15       17       17       18 </v>
   <v type="int" >        8       15       18       18       18 </v>
   <v type="int" >        4       14       14       15       18 </v>
   <v type="int" >        4       14       15       18       18 </v>
   <v type="int" >        4       14       14       17       18 </v>
   <v type="int" >        4       14       17       17       18 </v>
   <v type="int" >        4       14       17       18       18 </v>
   <v type="int" >        4       13       13       14       17 </v>
   <v type="int" >        4       13       14       17       17 </v>
   <v type="int" >        4       13       13       16       17 </v>
   <v type="int" >        4       13       16       16       17 </v>
   <v type="int" >        4       13       16       17       17 </v>
   <v type="int" >        4       13       14       14       16 </v>
   <v type="int" >        4       13       14       16       16 </v>
   <v type="int" >        4       14       14       16       17 </v>
   <v type="int" >        4       14       16       17       17 </v>
   <v type="int" >        4       14       16       16       17 </v>
   <v type="int" >        4       12       14       15       17 </v>
   <v type="int" >        4       11       12       14       17 </v>
   <v type="int" >        4       12       15       17       18 </v>
   <v type="int" >        4       12       15       15       18 </v>
   <v type="int" >        4       12       12       15       18 </v>
   <v type="int" >        4       12       15       18       18 </v>
   <v type="int" >        4       11       14       15       18 </v>
   <v type="int" >        4       11       12       15       18 </v>
   <v type="int" >        4       11       14       17       18 </v>
   <v type="int" >        4       10       13       14       17 </v>
   <v type="int" >        4       10       11       14       17 </v>
   <v type="int" >        4       10       13       16       17 </v>
   <v type="int" >        4       11       13       14       16 </v>
   <v type="int" >        4       10       11       13       16 </v>
   <v type="int" >        4       11       14       16       17 </v>
   <v type="int" >        4        6       11       12       14 </v>
   <v type="int" >        4        5        6       11       14 </v>
   <v type="int" >        4        5        6        8       14 </v>
   <v type="int" >        4        6       12       14       15 </v>
   <v type="int" >        4        6        9       14       15 </v>
   <v type="int" >        4        6        8        9       14 </v>
   <v type="int" >        4        6       12       12       15 </v>
   <v type="int" >        4        6        6       12       15 </v>
   <v type="int" >        4        6        6        9       15 </v>
   <v type="int" >        4        6       12       15       15 </v>
   <v type="int" >        4        6        9       15       15 </v>
   <v type="int" >        4        6        9        9       15 </v>
   <v type="int" >        4        5       11       12       15 </v>
   <v type="int" >        4        5        6       12       15 </v>
   <v type="int" >        4        5        6        9       15 </v>
   <v type="int" >        4        5       11       14       15 </v>
   <v type="int" >        4        5        8       14       15 </v>
   <v type="int" >        4        5        8        9       15 </v>
   <v type="int" >        4        4       10       11       14 </v>
   <v type="int" >        4        4        5       11       14 </v>
   <v type="int" >        4        4        5        8       14 </v>
   <v type="int" >        4        4       10       13       14 </v>
   <v type="int" >        4        4        7       13       14 </v>
   <v type="int" >        4        4        7        8       14 </v>
   <v type="int" >        4        5       10       11       13 </v>
   <v type="int" >        4        4        5       10       13 </v>
   <v type="int" >        4        4        5        7       13 </v>
   <v type="int" >        4        5       11       13       14 </v>
   <v type="int" >        4        5        8       13       14 </v>
   <v type="int" >        4        5        7        8       13 </v>
   <v type="int" >        4        5        6        8       12 </v>
   <v type="int" >        4        5        8       11       12 </v>
   <v type="int" >        4        8       11       12       14 </v>
   <v type="int" >        4        6        8        9       12 </v>
   <v type="int" >        4        8        9       12       15 </v>
   <v type="int" >        4        8       12       14       15 </v>
   <v type="int" >        4        6        6        9       12 </v>
   <v type="int" >        4        6        9       12       12 </v>
   <v type="int" >        4        9       12       12       15 </v>
   <v type="int" >        4        6        9        9       12 </v>
   <v type="int" >        4        9        9       12       15 </v>
   <v type="int" >        4        9       12       15       15 </v>
   <v type="int" >        4        5        6        9       11 </v>
   <v type="int" >        4        6        9       11       12 </v>
   <v type="int" >        4        9       11       12       15 </v>
   <v type="int" >        4        5        8        9       11 </v>
   <v type="int" >        4        8        9       11       14 </v>
   <v type="int" >        4        9       11       14       15 </v>
   <v type="int" >        4        4        5        8       10 </v>
   <v type="int" >        4        5        8       10       11 </v>
   <v type="int" >        4        8       10       11       14 </v>
   <v type="int" >        4        4        7        8       10 </v>
   <v type="int" >        4        7        8       10       13 </v>
   <v type="int" >        4        8       10       13       14 </v>
   <v type="int" >        4        4        5        7       11 </v>
   <v type="int" >        4        4        7       10       11 </v>
   <v type="int" >        4        7       10       11       13 </v>
   <v type="int" >        4        5        7        8       11 </v>
   <v type="int" >        4        7        8       11       14 </v>
   <v type="int" >        4        7       11       13       14 </v>
   <v type="int" >        4       17       17       18       18 </v>
   <v type="int" >        4       17       17       17       18 </v>
   <v type="int" >        4       17       18       18       18 </v>
   <v type="int" >        6       18       18       18       18 </v>
   <v type="int" >        4       16       16       17       17 </v>
   <v type="int" >        4       16       17       17       17 </v>
   <v type="int" >        4       16       16       16       17 </v>
   <v type="int" >        4        9       14       14       15 </v>
   <v type="int" >        4        8        9       14       14 </v>
   <v type="int" >        4        8        8        9       14 </v>
   <v type="int" >        4        9       14       15       15 </v>
   <v type="int" >        4        9        9       14       15 </v>
   <v type="int" >        4        8        9        9       14 </v>
   <v type="int" >        8        9       15       15       15 </v>
   <v type="int" >        8        9        9       15       15 </v>
   <v type="int" >        8        9        9        9       15 </v>
   <v type="int" >        4        8       14       15       15 </v>
   <v type="int" >        4        8        9       15       15 </v>
   <v type="int" >        4        8        9        9       15 </v>
   <v type="int" >        4        8       14       14       15 </v>
   <v type="int" >        4        8        8       14       15 </v>
   <v type="int" >        4        8        8        9       15 </v>
   <v type="int" >        4        7       13       14       14 </v>
   <v type="int" >        4        7        8       14       14 </v>
   <v type="int" >        4        7        8        8       14 </v>
   <v type="int" >        4        7       13       13       14 </v>
   <v type="int" >        4        7        7       13       14 </v>
   <v type="int" >        4        7        7        8       14 </v>
   <v type="int" >        4        8       13       13       14 </v>
   <v type="int" >        4        7        8       13       13 </v>
   <v type="int" >        4        7        7        8       13 </v>
   <v type="int" >        4        8       13       14       14 </v>
   <v type="int" >        4        8        8       13       14 </v>
   <v type="int" >        4        7        8        8       13 </v>
   <v type="int" >        4        5        6       11       12 </v>
   <v type="int" >        4        5        5        6       11 </v>
   <v type="int" >        4        2        5        5        6 </v>
   <v type="int" >        4        5        6        6       12 </v>
   <v type="int" >        4        3        5        6        6 </v>
   <v type="int" >        4        2        3        5        6 </v>
   <v type="int" >        2        6        6       12       12 </v>
   <v type="int" >        4        6        6        6       12 </v>
   <v type="int" >        4        3        6        6        6 </v>
   <v type="int" >        2        3        3        6        6 </v>
   <v type="int" >        4        4        5       10       11 </v>
   <v type="int" >        4        4        5        5       11 </v>
   <v type="int" >        4        2        4        5        5 </v>
   <v type="int" >        4        4        4        5       10 </v>
   <v type="int" >        4        1        4        4        5 </v>
   <v type="int" >        4        1        2        4        5 </v>
   <v type="int" >        4        2        5        6       12 </v>
   <v type="int" >        4        2        5       11       12 </v>
   <v type="int" >        4        2        3        6       12 </v>
   <v type="int" >        4        3        6        6       12 </v>
   <v type="int" >        4        3        6       12       12 </v>
   <v type="int" >        4        3        3        6       12 </v>
   <v type="int" >        4        3        5        6       11 </v>
   <v type="int" >        4        3        6       11       12 </v>
   <v type="int" >        4        2        3        5       11 </v>
   <v type="int" >        4        2        4        5       10 </v>
   <v type="int" >        4        2        5       10       11 </v>
   <v type="int" >        4        1        2        4       10 </v>
   <v type="int" >        4        1        4        5       11 </v>
   <v type="int" >        4        1        4       10       11 </v>
   <v type="int" >        4        1        2        5       11 </v>
  </varray>
  <i name="volumeweight">      0.00133333 </i>
 </kpoints>
 <parameters>
  <separator name="general" >
   <i type="string" name="SYSTEM">GaAs</i>
   <i type="logical" name="LCOMPAT"> F  </i>
  </separator>
  <separator name="electronic" >
   <i type="string" name="PREC">normal</i>
   <i name="ENMAX">    400.00000000</i>
   <i name="ENAUG">    462.75800000</i>
   <i name="EDIFF">      0.00000100</i>
   <i type="int" name="IALGO">    38</i>
   <i type="int" name="IWAVPR">    11</i>
   <i type="int" name="NBANDS">   168</i>
   <i type="int" name="NBANDSLOW">    -1</i>
   <i type="int" name="NBANDSHIGH">    -1</i>
   <i name="NELECT">    256.00000000</i>
   <i type="int" name="TURBO">     0</i>
   <i type="int" name="IRESTART">     0</i>
   <i type="int" name="NREBOOT">     0</i>
   <i type="int" name="NMIN">     0</i>
   <i name="EREF">      0.00000000</i>
   <separator name="electronic smearing" >
    <i type="int" name="ISMEAR">    -5</i>
    <i name="SIGMA">      0.10000000</i>
    <i name="KSPACING">      0.50000000</i>
    <i type="logical" name="KGAMMA"> T  </i>
    <i type="logical" name="KBLOWUP"> T  </i>
   </separator>
   <separator name="electronic projectors" >
    <i type="logical" name="LREAL"> F  </i>
    <v name="ROPT">      0.00000000      0.00000000</v>
    <i type="int" name="LMAXPAW">  -100</i>
    <i type="int" name="LMAXMIX">     2</i>
    <i type="logical" name="NLSPLINE"> F  </i>
   </separator>
   <separator name="electronic startup" >
    <i type="int" name="ISTART">     0</i>
    <i type="int" name="ICHARG">     2</i>
    <i type="int" name="INIWAV">     1</i>
   </separator>
   <separator name="electronic spin" >
    <i type="int" name="ISPIN">     1</i>
    <i type="logical" name="LNONCOLLINEAR"> F  </i>
    <v name="MAGMOM">      1.00000000      1.00000000      1.00000000      1.00000000      1.00000000      1.00000000      1.00000000      1.00000000      1.00000000      1.00000000      1.00000000      1.00000000      1.00000000      1.00000000      1.00000000      1.00000000      1.00000000      1.00000000      1.00000000      1.00000000
      1.00000000      1.00000000      1.00000000      1.00000000      1.00000000      1.00000000      1.00000000      1.00000000      1.00000000      1.00000000      1.00000000      1.00000000      1.00000000      1.00000000      1.00000000      1.00000000      1.00000000      1.00000000      1.00000000      1.00000000
      1.00000000      1.00000000      1.00000000      1.00000000      1.00000000      1.00000000      1.00000000      1.00000000      1.00000000      1.00000000      1.00000000      1.00000000      1.00000000      1.00000000      1.00000000      1.00000000      1.00000000      1.00000000      1.00000000      1.00000000
      1.00000000      1.00000000      1.00000000      1.00000000</v>
    <i name="NUPDOWN">     -1.00000000</i>
    <i type="logical" name="LSORBIT"> F  </i>
    <v name="SAXIS">      0.00000000      0.00000000      1.00000000</v>
    <i type="logical" name="LSPIRAL"> F  </i>
    <v name="QSPIRAL">      0.00000000      0.00000000      0.00000000</v>
    <i type="logical" name="LZEROZ"> F  </i>
   </separator>
   <separator name="electronic exchange-correlation" >
    <i type="logical" name="LASPH"> F  </i>
   </separator>
   <separator name="electronic convergence" >
    <i type="int" name="NELM">    60</i>
    <i type="int" name="NELMDL">    -5</i>
    <i type="int" name="NELMIN">     2</i>
    <i name="ENINI">    400.00000000</i>
    <separator name="electronic convergence detail" >
     <i type="logical" name="LDIAG"> T  </i>
     <i type="logical" name="LSUBROT"> F  </i>
     <i name="WEIMIN">      0.00100000</i>
     <i name="EBREAK">      0.00000000</i>
     <i name="DEPER">      0.30000000</i>
     <i type="int" name="NRMM">     4</i>
     <i name="TIME">      0.40000000</i>
    </separator>
   </separator>
   <separator name="electronic mixer" >
    <i name="AMIX">      0.40000000</i>
    <i name="BMIX">      1.00000000</i>
    <i name="AMIN">      0.10000000</i>
    <i name="AMIX_MAG">      1.60000000</i>
    <i name="BMIX_MAG">      1.00000000</i>
    <separator name="electronic mixer details" >
     <i type="int" name="IMIX">     4</i>
     <i type="logical" name="MIXFIRST"> F  </i>
     <i type="int" name="MAXMIX">   -45</i>
     <i name="WC">    100.00000000</i>
     <i type="int" name="INIMIX">     1</i>
     <i type="int" name="MIXPRE">     1</i>
     <i type="int" name="MREMOVE">     5</i>
    </separator>
   </separator>
   <separator name="electronic dipolcorrection" >
    <i type="logical" name="LDIPOL"> F  </i>
    <i type="logical" name="LMONO"> F  </i>
    <i type="int" name="IDIPOL">     0</i>
    <i name="EPSILON">      1.00000000</i>
    <v name="DIPOL">   -100.00000000   -100.00000000   -100.00000000</v>
    <i name="EFIELD">      0.00000000</i>
    <i type="logical" name="LVACPOTAV"> F  </i>
   </separator>
  </separator>
  <separator name="grids" >
   <i type="int" name="NGX">    60</i>
   <i type="int" name="NGY">    56</i>
   <i type="int" name="NGZ">    56</i>
   <i type="int" name="NGXF">   120</i>
   <i type="int" name="NGYF">   112</i>
   <i type="int" name="NGZF">   112</i>
   <i type="logical" name="ADDGRID"> F  </i>
  </separator>
  <separator name="ionic" >
   <i type="int" name="NSW">   100</i>
   <i type="int" name="IBRION">     2</i>
   <i type="int" name="MDALGO">     0</i>
   <i type="int" name="ISIF">     2</i>
   <i name="PSTRESS">      0.00000000</i>
   <i name="EDIFFG">      0.00100000</i>
   <i type="int" name="NFREE">     2</i>
   <i name="POTIM">      0.10000000</i>
   <i name="SMASS">     -3.00000000</i>
   <i name="SCALEE">      1.00000000</i>
  </separator>
  <separator name="ionic md" >
   <i name="TEBEG">      0.00010000</i>
   <i name="TEEND">      0.00010000</i>
   <i type="int" name="NBLOCK">     1</i>
   <i type="int" name="KBLOCK">   100</i>
   <i type="int" name="NPACO">   256</i>
   <i name="APACO">     10.00000000</i>
  </separator>
  <separator name="symmetry" >
   <i type="int" name="ISYM">     2</i>
   <i name="SYMPREC">      0.00001000</i>
  </separator>
  <separator name="dos" >
   <i type="int" name="LORBIT">     0</i>
   <v name="RWIGS">     -1.00000000     -1.00000000</v>
   <i type="int" name="NEDOS">   301</i>
   <i name="EMIN">     10.00000000</i>
   <i name="EMAX">    -10.00000000</i>
   <i name="EFERMI">      0.00000000</i>
  </separator>
  <separator name="writing" >
   <i type="int" name="NWRITE">     2</i>
   <i type="logical" name="LWAVE"> T  </i>
   <i type="logical" name="LDOWNSAMPLE"> F  </i>
   <i type="logical" name="LCHARG"> T  </i>
   <i type="logical" name="LPARD"> F  </i>
   <i type="logical" name="LVTOT"> F  </i>
   <i type="logical" name="LVHAR"> F  </i>
   <i type="logical" name="LELF"> F  </i>
   <i type="logical" name="LOPTICS"> T  </i>
   <v name="STM">      0.00000000      0.00000000      0.00000000      0.00000000      0.00000000      0.00000000      0.00000000</v>
  </separator>
  <separator name="performance" >
   <i type="int" name="NPAR">     8</i>
   <i type="int" name="NSIM">     4</i>
   <i type="int" name="NBLK">    -1</i>
   <i type="logical" name="LPLANE"> T  </i>
   <i type="logical" name="LSCALAPACK"> T  </i>
   <i type="logical" name="LSCAAWARE"> F  </i>
   <i type="logical" name="LSCALU"> F  </i>
   <i type="logical" name="LASYNC"> F  </i>
   <i type="logical" name="LORBITALREAL"> F  </i>
  </separator>
  <separator name="miscellaneous" >
   <i type="int" name="IDIOT">     3</i>
   <i type="int" name="PHON_NSTRUCT">    -1</i>
   <i type="logical" name="LMUSIC"> F  </i>
   <v name="POMASS">     74.92200000     69.72300000</v>
   <v name="DARWINR">      0.00000000      0.00000000</v>
   <v name="DARWINV">      1.00000000      1.00000000</v>
   <i type="logical" name="LCORR"> T  </i>
  </separator>
  <i type="logical" name="GGA_COMPAT"> T  </i>
  <i type="logical" name="LBERRY"> F  </i>
  <i type="int" name="ICORELEVEL">     0</i>
  <i type="logical" name="LDAU"> F  </i>
  <i type="int" name="I_CONSTRAINED_M">     0</i>
  <separator name="electronic exchange-correlation" >
   <i type="string" name="GGA    ">PE</i>
   <i type="string" name="XC_C">1</i>
   <i type="int" name="VOSKOWN">     0</i>
   <i type="logical" name="LHFCALC"> F  </i>
   <i type="string" name="PRECFOCK"></i>
   <i type="logical" name="LSYMGRAD"> F  </i>
   <i type="logical" name="LHFONE"> F  </i>
   <i type="logical" name="LRHFCALC"> F  </i>
   <i type="logical" name="LTHOMAS"> F  </i>
   <i type="logical" name="LMODELHF"> F  </i>
   <i type="logical" name="LFOCKACE"> F  </i>
   <i name="ENCUT4O">     -1.00000000</i>
   <i type="int" name="EXXOEP">     0</i>
   <i type="int" name="FOURORBIT">     0</i>
   <i name="AEXX">      0.00000000</i>
   <i name="HFALPHA">      0.00000000</i>
   <i name="MCALPHA">      0.00000000</i>
   <i name="ALDAX">      1.00000000</i>
   <i name="AGGAX">      1.00000000</i>
   <i name="AMGGAX">      1.00000000</i>
   <i name="ALDAC">      1.00000000</i>
   <i name="AGGAC">      1.00000000</i>
   <i name="AMGGAC">      1.00000000</i>
   <i type="int" name="NKREDX">     1</i>
   <i type="int" name="NKREDY">     1</i>
   <i type="int" name="NKREDZ">     1</i>
   <i type="logical" name="SHIFTRED"> F  </i>
   <i type="logical" name="ODDONLY"> F  </i>
   <i type="logical" name="EVENONLY"> F  </i>
   <i type="int" name="LMAXFOCK">     0</i>
   <i type="int" name="NMAXFOCKAE">     0</i>
   <i type="logical" name="LFOCKAEDFT"> F  </i>
   <i name="HFSCREEN">      0.00000000</i>
   <i name="HFSCREENC">      0.00000000</i>
   <i type="int" name="NBANDSGWLOW">     0</i>
  </separator>
  <separator name="vdW DFT" >
   <i type="logical" name="LUSE_VDW"> F  </i>
   <i type="int" name="IVDW_NL">    -1</i>
   <i type="logical" name="LSPIN_VDW"> F  </i>
   <i name="ZAB_VDW">     -0.84910000</i>
   <i name="GAMMA_VDW">      1.39626340</i>
   <i name="ALPHA_VDW">      0.00000000</i>
   <i name="PARAM1">      0.12340000</i>
   <i name="PARAM2">      1.00000000</i>
   <i name="BPARAM">      6.30000000</i>
   <i name="CPARAM">      0.00930000</i>
  </separator>
  <separator name="model GW" >
   <i type="int" name="MODEL_GW">     0</i>
   <i name="MODEL_EPS0">     14.37171165</i>
   <i name="MODEL_ALPHA">      1.00000000</i>
  </separator>
  <separator name="linear response parameters" >
   <i type="logical" name="LEPSILON"> T  </i>
   <i type="logical" name="LRPA"> F  </i>
   <i type="logical" name="LNABLA"> F  </i>
   <i type="logical" name="LVEL"> F  </i>
   <i name="CSHIFT">      0.10000000</i>
   <i name="OMEGAMAX">     -1.00000000</i>
   <i name="DEG_THRESHOLD">      0.00200000</i>
   <i name="RTIME">     -0.10000000</i>
   <i name="WPLASMAI">      0.00000000</i>
   <v name="DFIELD">      0.00000000      0.00000000      0.00000000</v>
   <v name="WPLASMA">      0.00000000      0.00000000      0.00000000      0.00000000      0.00000000      0.00000000      0.00000000      0.00000000      0.00000000</v>
  </separator>
  <separator name="orbital magnetization" >
   <i type="logical" name="NUCIND"> F  </i>
   <v name="MAGPOS">      0.00000000      0.00000000      0.00000000</v>
   <i type="logical" name="LNICSALL"> T  </i>
   <i type="logical" name="ORBITALMAG"> F  </i>
   <i type="logical" name="LMAGBLOCH"> F  </i>
   <i type="logical" name="LCHIMAG"> F  </i>
   <i type="logical" name="LGAUGE"> T  </i>
   <i type="int" name="MAGATOM">     0</i>
   <v name="MAGDIPOL">      0.00000000      0.00000000      0.00000000</v>
   <v name="AVECCONST">      0.00000000      0.00000000      0.00000000</v>
  </separator>
  <separator name="response functions" >
   <i type="logical" name="LALL_IN_ONE"> F  </i>
   <i type="int" name="IALL_IN_ONE">    -1</i>
   <i type="int" name="NBANDS_WAVE">    -1</i>
   <i type="logical" name="LFINITE_TEMPERATURE"> F  </i>
   <i type="logical" name="LADDER"> F  </i>
   <i type="logical" name="LRPAFORCE"> F  </i>
   <i type="logical" name="LFXC"> F  </i>
   <i type="logical" name="LHARTREE"> T  </i>
   <i type="int" name="IBSE">     0</i>
   <v type="int" name="KPOINT">    -1     0     0     0</v>
   <i type="logical" name="LTCTC"> F  </i>
   <i type="logical" name="LTCTE"> F  </i>
   <i type="logical" name="LTETE"> F  </i>
   <i type="logical" name="LTRIPLET"> F  </i>
   <i type="logical" name="LFXCEPS"> F  </i>
   <i type="logical" name="LFXHEG"> F  </i>
   <i type="int" name="NATURALO">     2</i>
   <i type="logical" name="LHOLEGF"> F  </i>
   <i type="logical" name="L2ORDER"> F  </i>
   <i type="logical" name="LDMP1"> F  </i>
   <i type="logical" name="LMP2LT"> F  </i>
   <i type="logical" name="LSMP2LT"> F  </i>
   <i type="logical" name="LGWLF"> F  </i>
   <i name="ENCUTGW">     -1.60000002</i>
   <i name="ENCUTGWSOFT">     -1.60000002</i>
   <i name="ENCUTLF">     -1.00000000</i>
   <i type="logical" name="ESF_SPLINES"> F  </i>
   <i name="ESF_CONV">      0.01000000</i>
   <i type="int" name="ESF_NINTER">    15</i>
   <i type="int" name="LMAXMP2">    -1</i>
   <i name="SCISSOR">      0.00000000</i>
   <i type="int" name="NOMEGA">     0</i>
   <i type="int" name="NOMEGAR">     0</i>
   <i type="int" name="NBANDSGW">    -1</i>
   <i type="int" name="NBANDSO">    -1</i>
   <i type="int" name="NBANDSV">    -1</i>
   <i type="int" name="NELMGW">     1</i>
   <i type="int" name="NELMHF">     1</i>
   <i type="int" name="DIM">     3</i>
   <i type="int" name="IESPILON">     4</i>
   <i type="int" name="ANTIRES">     0</i>
   <i name="OMEGAMAX">    -30.00000000</i>
   <i name="OMEGAMIN">    -30.00000000</i>
   <i name="OMEGATL">   -200.00000000</i>
   <i type="int" name="OMEGAGRID">     0</i>
   <i name="CSHIFT">     -0.10000000</i>
   <i type="logical" name="LSELFENERGY"> F  </i>
   <i type="logical" name="LSPECTRAL"> F  </i>
   <i type="logical" name="LSPECTRALGW"> F  </i>
   <i type="logical" name="LSINGLES"> F  </i>
   <i type="logical" name="LFERMIGW"> F  </i>
   <i type="logical" name="ODDONLYGW"> F  </i>
   <i type="logical" name="EVENONLYGW"> F  </i>
   <i type="int" name="NKREDLFX">     1</i>
   <i type="int" name="NKREDLFY">     1</i>
   <i type="int" name="NKREDLFZ">     1</i>
   <i type="int" name="MAXMEM">  2800</i>
   <i type="int" name="TELESCOPE">     0</i>
   <i type="int" name="NTAUPAR">    -1</i>
   <i type="int" name="NOMEGAPAR">    -1</i>
   <i name="DAMP_NEWTON">      0.80000001</i>
   <i name="LAMBDA">      1.00000000</i>
  </separator>
  <separator name="External order field" >
   <i name="OFIELD_KAPPA">      0.00000000</i>
   <v name="OFIELD_K">      0.00000000      0.00000000      0.00000000</v>
   <i name="OFIELD_Q6_NEAR">      0.00000000</i>
   <i name="OFIELD_Q6_FAR">      0.00000000</i>
   <i name="OFIELD_A">      0.00000000</i>
  </separator>
  <separator name="optional k-points parameters" >
   <i type="int" name="KPOINTS_OPT_MODE">     1</i>
   <i type="logical" name="LKPOINTS_OPT"> F  </i>
  </separator>
 </parameters>
 <atominfo>
  <atoms>      64 </atoms>
  <types>       2 </types>
  <array name="atoms" >
   <dimension dim="1">ion</dimension>
   <field type="string">element</field>
   <field type="int">atomtype</field>
   <set>
    <rc><c>As</c><c>   1</c></rc>
    <rc><c>As</c><c>   1</c></rc>
    <rc><c>As</c><c>   1</c></rc>
    <rc><c>As</c><c>   1</c></rc>
    <rc><c>As</c><c>   1</c></rc>
    <rc><c>As</c><c>   1</c></rc>
    <rc><c>As</c><c>   1</c></rc>
    <rc><c>As</c><c>   1</c></rc>
    <rc><c>As</c><c>   1</c></rc>
    <rc><c>As</c><c>   1</c></rc>
    <rc><c>As</c><c>   1</c></rc>
    <rc><c>As</c><c>   1</c></rc>
    <rc><c>As</c><c>   1</c></rc>
    <rc><c>As</c><c>   1</c></rc>
    <rc><c>As</c><c>   1</c></rc>
    <rc><c>As</c><c>   1</c></rc>
    <rc><c>As</c><c>   1</c></rc>
    <rc><c>As</c><c>   1</c></rc>
    <rc><c>As</c><c>   1</c></rc>
    <rc><c>As</c><c>   1</c></rc>
    <rc><c>As</c><c>   1</c></rc>
    <rc><c>As</c><c>   1</c></rc>
    <rc><c>As</c><c>   1</c></rc>
    <rc><c>As</c><c>   1</c></rc>
    <rc><c>As</c><c>   1</c></rc>
    <rc><c>As</c><c>   1</c></rc>
    <rc><c>As</c><c>   1</c></rc>
    <rc><c>As</c><c>   1</c></rc>
    <rc><c>As</c><c>   1</c></rc>
    <rc><c>As</c><c>   1</c></rc>
    <rc><c>As</c><c>   1</c></rc>
    <rc><c>As</c><c>   1</c></rc>
    <rc><c>Ga</c><c>   2</c></rc>
    <rc><c>Ga</c><c>   2</c></rc>
    <rc><c>Ga</c><c>   2</c></rc>
    <rc><c>Ga</c><c>   2</c></rc>
    <rc><c>Ga</c><c>   2</c></rc>
    <rc><c>Ga</c><c>   2</c></rc>
    <rc><c>Ga</c><c>   2</c></rc>
    <rc><c>Ga</c><c>   2</c></rc>
    <rc><c>Ga</c><c>   2</c></rc>
    <rc><c>Ga</c><c>   2</c></rc>
    <rc><c>Ga</c><c>   2</c></rc>
    <rc><c>Ga</c><c>   2</c></rc>
    <rc><c>Ga</c><c>   2</c></rc>
    <rc><c>Ga</c><c>   2</c></rc>
    <rc><c>Ga</c><c>   2</c></rc>
    <rc><c>Ga</c><c>   2</c></rc>
    <rc><c>Ga</c><c>   2</c></rc>
    <rc><c>Ga</c><c>   2</c></rc>
    <rc><c>Ga</c><c>   2</c></rc>
    <rc><c>Ga</c><c>   2</c></rc>
    <rc><c>Ga</c><c>   2</c></rc>
    <rc><c>Ga</c><c>   2</c></rc>
    <rc><c>Ga</c><c>   2</c></rc>
    <rc><c>Ga</c><c>   2</c></rc>
    <rc><c>Ga</c><c>   2</c></rc>
    <rc><c>Ga</c><c>   2</c></rc>
    <rc><c>Ga</c><c>   2</c></rc>
    <rc><c>Ga</c><c>   2</c></rc>
    <rc><c>Ga</c><c>   2</c></rc>
    <rc><c>Ga</c><c>   2</c></rc>
    <rc><c>Ga</c><c>   2</c></rc>
    <rc><c>Ga</c><c>   2</c></rc>
   </set>
  </array>
  <array name="atomtypes" >
   <dimension dim="1">type</dimension>
   <field type="int">atomspertype</field>
   <field type="string">element</field>
   <field>mass</field>
   <field>valence</field>
   <field type="string">pseudopotential</field>
   <set>
    <rc><c>  32</c><c>As</c><c>     74.92200000</c><c>      5.00000000</c><c>  PAW_PBE As 22Sep2009                  </c></rc>
    <rc><c>  32</c><c>Ga</c><c>     69.72300000</c><c>      3.00000000</c><c>  PAW_PBE Ga 08Apr2002                  </c></rc>
   </set>
  </array>
 </atominfo>
 <structure name="initialpos" >
  <crystal>
   <varray name="basis" >
    <v>      11.55561683       0.00000000       0.00000000 </v>
    <v>       0.00000000      11.51786656       0.00000000 </v>
    <v>       0.00000000       0.00000000      11.51786656 </v>
   </varray>
   <i name="volume">   1532.98257568 </i>
   <varray name="rec_basis" >
    <v>       0.08653800       0.00000000       0.00000000 </v>
    <v>       0.00000000       0.08682163       0.00000000 </v>
    <v>       0.00000000       0.00000000       0.08682163 </v>
   </varray>
  </crystal>
  <varray name="positions" >
   <v>       0.00000000       0.00000000       0.00000000 </v>
   <v>       0.00000000       0.00000000       0.50000000 </v>
   <v>       0.00000000       0.50000000       0.00000000 </v>
   <v>       0.00000000       0.50000000       0.50000000 </v>
   <v>       0.50000000       0.00000000       0.00000000 </v>
   <v>       0.50000000       0.00000000       0.50000000 </v>
   <v>       0.50000000       0.50000000       0.00000000 </v>
   <v>       0.50000000       0.50000000       0.50000000 </v>
   <v>       0.25000000       0.25000000       0.00000000 </v>
   <v>       0.25000000       0.25000000       0.50000000 </v>
   <v>       0.25000000       0.75000000       0.00000000 </v>
   <v>       0.25000000       0.75000000       0.50000000 </v>
   <v>       0.75000000       0.25000000       0.00000000 </v>
   <v>       0.75000000       0.25000000       0.50000000 </v>
   <v>       0.75000000       0.75000000       0.00000000 </v>
   <v>       0.75000000       0.75000000       0.50000000 </v>
   <v>       0.25000000       0.00000000       0.25000000 </v>
   <v>       0.25000000       0.00000000       0.75000000 </v>
   <v>       0.25000000       0.50000000       0.25000000 </v>
   <v>       0.25000000       0.50000000       0.75000000 </v>
   <v>       0.75000000       0.00000000       0.25000000 </v>
   <v>       0.75000000       0.00000000       0.75000000 </v>
   <v>       0.75000000       0.50000000       0.25000000 </v>
   <v>       0.75000000       0.50000000       0.75000000 </v>
   <v>       0.00000000       0.25000000       0.25000000 </v>
   <v>       0.00000000       0.25000000       0.75000000 </v>
   <v>       0.00000000       0.75000000       0.25000000 </v>
   <v>       0.00000000       0.75000000       0.75000000 </v>
   <v>       0.50000000       0.25000000       0.25000000 </v>
   <v>       0.50000000       0.25000000       0.75000000 </v>
   <v>       0.50000000       0.75000000       0.25000000 </v>
   <v>       0.50000000       0.75000000       0.75000000 </v>
   <v>       0.12500000       0.12500000       0.12500000 </v>
   <v>       0.12500000       0.12500000       0.62500000 </v>
   <v>       0.12500000       0.62500000       0.12500000 </v>
   <v>       0.12500000       0.62500000       0.62500000 </v>
   <v>       0.62500000       0.12500000       0.12500000 </v>
   <v>       0.62500000       0.12500000       0.62500000 </v>
   <v>       0.62500000       0.62500000       0.12500000 </v>
   <v>       0.62500000       0.62500000       0.62500000 </v>
   <v>       0.37500000       0.12500000       0.37500000 </v>
   <v>       0.37500000       0.12500000       0.87500000 </v>
   <v>       0.37500000       0.62500000       0.37500000 </v>
   <v>       0.37500000       0.62500000       0.87500000 </v>
   <v>       0.87500000       0.12500000       0.37500000 </v>
   <v>       0.87500000       0.12500000       0.87500000 </v>
   <v>       0.87500000       0.62500000       0.37500000 </v>
   <v>       0.87500000       0.62500000       0.87500000 </v>
   <v>       0.37500000       0.37500000       0.12500000 </v>
   <v>       0.37500000       0.37500000       0.62500000 </v>
   <v>       0.37500000       0.87500000       0.12500000 </v>
   <v>       0.37500000       0.87500000       0.62500000 </v>
   <v>       0.87500000       0.37500000       0.12500000 </v>
   <v>       0.87500000       0.37500000       0.62500000 </v>
   <v>       0.87500000       0.87500000       0.12500000 </v>
   <v>       0.87500000       0.87500000       0.62500000 </v>
   <v>       0.12500000       0.37500000       0.37500000 </v>
   <v>       0.12500000       0.37500000       0.87500000 </v>
   <v>       0.12500000       0.87500000       0.37500000 </v>
   <v>       0.12500000       0.87500000       0.87500000 </v>
   <v>       0.62500000       0.37500000       0.37500000 </v>
   <v>       0.62500000       0.37500000       0.87500000 </v>
   <v>       0.62500000       0.87500000       0.37500000 </v>
   <v>       0.62500000       0.87500000       0.87500000 </v>
  </varray>
 </structure>
 <calculation>
  <scstep>
   <time name="dav">  137.05  138.73</time>
   <time name="total">  137.19  138.87</time>
   <energy>
    <i name="alphaZ">    571.28278463 </i>
    <i name="ewald">  -7191.12626699 </i>
    <i name="hartreedc">   -602.37348199 </i>
    <i name="XCdc">   -996.29955818 </i>
    <i name="pawpsdc">   6692.16565901 </i>
    <i name="pawaedc">  -5247.93935635 </i>
    <i name="eentropy">      0.00000000 </i>
    <i name="bandstr">    380.25900586 </i>
    <i name="atom">   7329.73306348 </i>
    <i name="e_fr_energy">    935.70184947 </i>
    <i name="e_wo_entrp">    935.70184947 </i>
    <i name="e_0_energy">    935.70184947 </i>
   </energy>
  </scstep>
  <scstep>
   <time name="dav">  157.22  159.27</time>
   <time name="total">  157.22  159.27</time>
   <energy>
    <i name="e_fr_energy">   -167.45421808 </i>
    <i name="e_wo_entrp">   -167.45421808 </i>
    <i name="e_0_energy">   -167.45421808 </i>
   </energy>
  </scstep>
  <scstep>
   <time name="dav">  158.95  161.35</time>
   <time name="total">  158.96  161.35</time>
   <energy>
    <i name="e_fr_energy">   -267.68678719 </i>
    <i name="e_wo_entrp">   -267.68678719 </i>
    <i name="e_0_energy">   -267.68678719 </i>
   </energy>
  </scstep>
  <scstep>
   <time name="dav">  158.81  160.99</time>
   <time name="total">  158.82  161.00</time>
   <energy>
    <i name="e_fr_energy">   -270.17499547 </i>
    <i name="e_wo_entrp">   -270.17499547 </i>
    <i name="e_0_energy">   -270.17499547 </i>
   </energy>
  </scstep>
  <scstep>
   <time name="dav">  160.11  162.22</time>
   <time name="total">  160.92  163.03</time>
   <energy>
    <i name="e_fr_energy">   -270.24452245 </i>
    <i name="e_wo_entrp">   -270.24452245 </i>
    <i name="e_0_energy">   -270.24452245 </i>
   </energy>
  </scstep>
  <scstep>
   <time name="dav">  153.19  155.07</time>
   <time name="total">  154.13  156.02</time>
   <energy>
    <i name="e_fr_energy">   -266.05105538 </i>
    <i name="e_wo_entrp">   -266.05105538 </i>
    <i name="e_0_energy">   -266.05105538 </i>
   </energy>
  </scstep>
  <scstep>
   <time name="dav">  155.74  158.01</time>
   <time name="total">  156.67  158.95</time>
   <energy>
    <i name="e_fr_energy">   -265.21967610 </i>
    <i name="e_wo_entrp">   -265.21967610 </i>
    <i name="e_0_energy">   -265.21967610 </i>
   </energy>
  </scstep>
  <scstep>
   <time name="dav">  152.44  154.45</time>
   <time name="total">  153.38  155.40</time>
   <energy>
    <i name="e_fr_energy">   -265.17823177 </i>
    <i name="e_wo_entrp">   -265.17823177 </i>
    <i name="e_0_energy">   -265.17823177 </i>
   </energy>
  </scstep>
  <scstep>
   <time name="dav">  151.95  154.36</time>
   <time name="total">  152.89  155.31</time>
   <energy>
    <i name="e_fr_energy">   -265.18994754 </i>
    <i name="e_wo_entrp">   -265.18994754 </i>
    <i name="e_0_energy">   -265.18994754 </i>
   </energy>
  </scstep>
  <scstep>
   <time name="dav">  155.47  157.68</time>
   <time name="total">  156.39  158.60</time>
   <energy>
    <i name="e_fr_energy">   -265.19102751 </i>
    <i name="e_wo_entrp">   -265.19102751 </i>
    <i name="e_0_energy">   -265.19102751 </i>
   </energy>
  </scstep>
  <scstep>
   <time name="dav">  142.32  144.11</time>
   <time name="total">  143.25  145.06</time>
   <energy>
    <i name="e_fr_energy">   -265.19232789 </i>
    <i name="e_wo_entrp">   -265.19232789 </i>
    <i name="e_0_energy">   -265.19232789 </i>
   </energy>
  </scstep>
  <scstep>
   <time name="dav">  159.84  161.85</time>
   <time name="total">  160.77  162.78</time>
   <energy>
    <i name="e_fr_energy">   -265.19233479 </i>
    <i name="e_wo_entrp">   -265.19233479 </i>
    <i name="e_0_energy">   -265.19233479 </i>
   </energy>
  </scstep>
  <scstep>
   <time name="dav">  153.78  155.80</time>
   <time name="total">  154.71  156.74</time>
   <energy>
    <i name="e_fr_energy">   -265.19234360 </i>
    <i name="e_wo_entrp">   -265.19234360 </i>
    <i name="e_0_energy">   -265.19234360 </i>
   </energy>
  </scstep>
  <scstep>
   <time name="dav">  134.19  135.93</time>
   <time name="total">  134.32  136.07</time>
   <energy>
    <i name="alphaZ">    571.28278463 </i>
    <i name="ewald">  -7191.12626699 </i>
    <i name="hartreedc">   -710.86147618 </i>
    <i name="XCdc">   -974.36547741 </i>
    <i name="pawpsdc">  14670.23035370 </i>
    <i name="pawaedc"> -13237.70897437 </i>
    <i name="eentropy">      0.00000000 </i>
    <i name="bandstr">   -722.37634988 </i>
    <i name="atom">   7329.73306348 </i>
    <i name="e_fr_energy">   -265.19234302 </i>
    <i name="e_wo_entrp">   -265.19234302 </i>
    <i name="e_0_energy">   -265.19234302 </i>
   </energy>
  </scstep>
  <structure>
   <crystal>
    <varray name="basis" >
     <v>      11.55561683       0.00000000       0.00000000 </v>
     <v>       0.00000000      11.51786656       0.00000000 </v>
     <v>       0.00000000       0.00000000      11.51786656 </v>
    </varray>
    <i name="volume">   1532.98257568 </i>
    <varray name="rec_basis" >
     <v>       0.08653800       0.00000000       0.00000000 </v>
     <v>       0.00000000       0.08682163       0.00000000 </v>
     <v>       0.00000000       0.00000000       0.08682163 </v>
    </varray>
   </crystal>
   <varray name="positions" >
    <v>       0.00000000       0.00000000       0.00000000 </v>
    <v>       0.00000000       0.00000000       0.50000000 </v>
    <v>       0.00000000       0.50000000       0.00000000 </v>
    <v>       0.00000000       0.50000000       0.50000000 </v>
    <v>       0.50000000       0.00000000       0.00000000 </v>
    <v>       0.50000000       0.00000000       0.50000000 </v>
    <v>       0.50000000       0.50000000       0.00000000 </v>
    <v>       0.50000000       0.50000000       0.50000000 </v>
    <v>       0.25000000       0.25000000       0.00000000 </v>
    <v>       0.25000000       0.25000000       0.50000000 </v>
    <v>       0.25000000       0.75000000       0.00000000 </v>
    <v>       0.25000000       0.75000000       0.50000000 </v>
    <v>       0.75000000       0.25000000       0.00000000 </v>
    <v>       0.75000000       0.25000000       0.50000000 </v>
    <v>       0.75000000       0.75000000       0.00000000 </v>
    <v>       0.75000000       0.75000000       0.50000000 </v>
    <v>       0.25000000       0.00000000       0.25000000 </v>
    <v>       0.25000000       0.00000000       0.75000000 </v>
    <v>       0.25000000       0.50000000       0.25000000 </v>
    <v>       0.25000000       0.50000000       0.75000000 </v>
    <v>       0.75000000       0.00000000       0.25000000 </v>
    <v>       0.75000000       0.00000000       0.75000000 </v>
    <v>       0.75000000       0.50000000       0.25000000 </v>
    <v>       0.75000000       0.50000000       0.75000000 </v>
    <v>       0.00000000       0.25000000       0.25000000 </v>
    <v>       0.00000000       0.25000000       0.75000000 </v>
    <v>       0.00000000       0.75000000       0.25000000 </v>
    <v>       0.00000000       0.75000000       0.75000000 </v>
    <v>       0.50000000       0.25000000       0.25000000 </v>
    <v>       0.50000000       0.25000000       0.75000000 </v>
    <v>       0.50000000       0.75000000       0.25000000 </v>
    <v>       0.50000000       0.75000000       0.75000000 </v>
    <v>       0.12500000       0.12500000       0.12500000 </v>
    <v>       0.12500000       0.12500000       0.62500000 </v>
    <v>       0.12500000       0.62500000       0.12500000 </v>
    <v>       0.12500000       0.62500000       0.62500000 </v>
    <v>       0.62500000       0.12500000       0.12500000 </v>
    <v>       0.62500000       0.12500000       0.62500000 </v>
    <v>       0.62500000       0.62500000       0.12500000 </v>
    <v>       0.62500000       0.62500000       0.62500000 </v>
    <v>       0.37500000       0.12500000       0.37500000 </v>
    <v>       0.37500000       0.12500000       0.87500000 </v>
    <v>       0.37500000       0.62500000       0.37500000 </v>
    <v>       0.37500000       0.62500000       0.87500000 </v>
    <v>       0.87500000       0.12500000       0.37500000 </v>
    <v>       0.87500000       0.12500000       0.87500000 </v>
    <v>       0.87500000       0.62500000       0.37500000 </v>
    <v>       0.87500000       0.62500000       0.87500000 </v>
    <v>       0.37500000       0.37500000       0.12500000 </v>
    <v>       0.37500000       0.37500000       0.62500000 </v>
    <v>       0.37500000       0.87500000       0.12500000 </v>
    <v>       0.37500000       0.87500000       0.62500000 </v>
    <v>       0.87500000       0.37500000       0.12500000 </v>
    <v>       0.87500000       0.37500000       0.62500000 </v>
    <v>       0.87500000       0.87500000       0.12500000 </v>
    <v>       0.87500000       0.87500000       0.62500000 </v>
    <v>       0.12500000       0.37500000       0.37500000 </v>
    <v>       0.12500000       0.37500000       0.87500000 </v>
    <v>       0.12500000       0.87500000       0.37500000 </v>
    <v>       0.12500000       0.87500000       0.87500000 </v>
    <v>       0.62500000       0.37500000       0.37500000 </v>
    <v>       0.62500000       0.37500000       0.87500000 </v>
    <v>       0.62500000       0.87500000       0.37500000 </v>
    <v>       0.62500000       0.87500000       0.87500000 </v>
   </varray>
  </structure>
  <varray name="forces" >
   <v>      -0.00000000       0.00000000      -0.00000000 </v>
   <v>       0.00000000       0.00000000       0.00000000 </v>
   <v>       0.00000000      -0.00000000       0.00000000 </v>
   <v>      -0.00000000      -0.00000000       0.00000000 </v>
   <v>       0.00000000       0.00000000       0.00000000 </v>
   <v>       0.00000000       0.00000000       0.00000000 </v>
   <v>      -0.00000000       0.00000000       0.00000000 </v>
   <v>       0.00000000       0.00000000       0.00000000 </v>
   <v>      -0.00000000       0.00000000      -0.00000000 </v>
   <v>      -0.00000000      -0.00000000      -0.00000000 </v>
   <v>      -0.00000000      -0.00000000      -0.00000000 </v>
   <v>       0.00000000       0.00000000       0.00000000 </v>
   <v>      -0.00000000      -0.00000000      -0.00000000 </v>
   <v>       0.00000000       0.00000000       0.00000000 </v>
   <v>       0.00000000      -0.00000000      -0.00000000 </v>
   <v>       0.00000000      -0.00000000      -0.00000000 </v>
   <v>       0.00000000       0.00000000       0.00000000 </v>
   <v>      -0.00000000      -0.00000000      -0.00000000 </v>
   <v>      -0.00000000      -0.00000000       0.00000000 </v>
   <v>       0.00000000       0.00000000       0.00000000 </v>
   <v>       0.00000000      -0.00000000      -0.00000000 </v>
   <v>      -0.00000000       0.00000000      -0.00000000 </v>
   <v>       0.00000000       0.00000000       0.00000000 </v>
   <v>       0.00000000       0.00000000       0.00000000 </v>
   <v>      -0.00000000      -0.00000000       0.00000000 </v>
   <v>       0.00000000       0.00000000       0.00000000 </v>
   <v>       0.00000000      -0.00000000       0.00000000 </v>
   <v>       0.00000000       0.00000000      -0.00000000 </v>
   <v>      -0.00000000       0.00000000      -0.00000000 </v>
   <v>      -0.00000000      -0.00000000      -0.00000000 </v>
   <v>      -0.00000000      -0.00000000       0.00000000 </v>
   <v>      -0.00000000       0.00000000      -0.00000000 </v>
   <v>      -0.00000000      -0.00000000      -0.00000000 </v>
   <v>      -0.00000000      -0.00000000       0.00000000 </v>
   <v>      -0.00000000       0.00000000       0.00000000 </v>
   <v>      -0.00000000      -0.00000000      -0.00000000 </v>
   <v>       0.00000000      -0.00000000      -0.00000000 </v>
   <v>       0.00000000       0.00000000      -0.00000000 </v>
   <v>      -0.00000000      -0.00000000      -0.00000000 </v>
   <v>      -0.00000000      -0.00000000      -0.00000000 </v>
   <v>       0.00000000      -0.00000000      -0.00000000 </v>
   <v>      -0.00000000      -0.00000000      -0.00000000 </v>
   <v>       0.00000000       0.00000000       0.00000000 </v>
   <v>      -0.00000000      -0.00000000       0.00000000 </v>
   <v>      -0.00000000      -0.00000000       0.00000000 </v>
   <v>       0.00000000       0.00000000      -0.00000000 </v>
   <v>       0.00000000      -0.00000000       0.00000000 </v>
   <v>      -0.00000000      -0.00000000      -0.00000000 </v>
   <v>       0.00000000       0.00000000       0.00000000 </v>
   <v>       0.00000000      -0.00000000       0.00000000 </v>
   <v>      -0.00000000       0.00000000      -0.00000000 </v>
   <v>       0.00000000      -0.00000000      -0.00000000 </v>
   <v>       0.00000000       0.00000000      -0.00000000 </v>
   <v>      -0.00000000      -0.00000000       0.00000000 </v>
   <v>       0.00000000      -0.00000000      -0.00000000 </v>
   <v>       0.00000000       0.00000000      -0.00000000 </v>
   <v>      -0.00000000      -0.00000000       0.00000000 </v>
   <v>       0.00000000       0.00000000       0.00000000 </v>
   <v>      -0.00000000       0.00000000      -0.00000000 </v>
   <v>      -0.00000000      -0.00000000      -0.00000000 </v>
   <v>       0.00000000      -0.00000000      -0.00000000 </v>
   <v>      -0.00000000      -0.00000000      -0.00000000 </v>
   <v>      -0.00000000      -0.00000000       0.00000000 </v>
   <v>       0.00000000      -0.00000000      -0.00000000 </v>
  </varray>
  <varray name="stress" >
   <v>      -2.08511097       0.00000000       0.00000000 </v>
   <v>       0.00000000      -0.25670954       0.00000000 </v>
   <v>       0.00000000       0.00000000      -0.25670954 </v>
  </varray>
  <scstep>
   <time name="total">  240.26  243.03</time>
   <energy>
    <i name="e_fr_energy">  -1272.53243480 </i>
    <i name="e_wo_entrp">  -1272.53243480 </i>
    <i name="e_0_energy">  -1272.53243480 </i>
   </energy>
  </scstep>
  <scstep>
   <time name="total">  162.86  165.03</time>
   <energy>
    <i name="e_fr_energy">  -1099.32810662 </i>
    <i name="e_wo_entrp">  -1099.32810662 </i>
    <i name="e_0_energy">  -1099.32810662 </i>
   </energy>
  </scstep>
  <scstep>
   <time name="total">  168.06  169.97</time>
   <energy>
    <i name="e_fr_energy">  -1101.58820629 </i>
    <i name="e_wo_entrp">  -1101.58820629 </i>
    <i name="e_0_energy">  -1101.58820629 </i>
   </energy>
  </scstep>
  <scstep>
   <time name="total">  117.24  119.05</time>
   <energy>
    <i name="e_fr_energy">  -1101.71065027 </i>
    <i name="e_wo_entrp">  -1101.71065027 </i>
    <i name="e_0_energy">  -1101.71065027 </i>
   </energy>
  </scstep>
  <scstep>
   <time name="total">  118.37  119.87</time>
   <energy>
    <i name="e_fr_energy">  -1101.71136529 </i>
    <i name="e_wo_entrp">  -1101.71136529 </i>
    <i name="e_0_energy">  -1101.71136529 </i>
   </energy>
  </scstep>
  <scstep>
   <time name="total">  126.04  127.87</time>
   <energy>
    <i name="e_fr_energy">  -1101.70511659 </i>
    <i name="e_wo_entrp">  -1101.70511659 </i>
    <i name="e_0_energy">  -1101.70511659 </i>
   </energy>
  </scstep>
  <scstep>
   <time name="total">  134.38  136.14</time>
   <energy>
    <i name="e_fr_energy">  -1101.70961013 </i>
    <i name="e_wo_entrp">  -1101.70961013 </i>
    <i name="e_0_energy">  -1101.70961013 </i>
   </energy>
  </scstep>
  <scstep>
   <time name="total">  144.58  146.16</time>
   <energy>
    <i name="e_fr_energy">  -1101.70463661 </i>
    <i name="e_wo_entrp">  -1101.70463661 </i>
    <i name="e_0_energy">  -1101.70463661 </i>
   </energy>
  </scstep>
  <scstep>
   <time name="total">  146.21  147.88</time>
   <energy>
    <i name="e_fr_energy">  -1101.70964542 </i>
    <i name="e_wo_entrp">  -1101.70964542 </i>
    <i name="e_0_energy">  -1101.70964542 </i>
   </energy>
  </scstep>
  <scstep>
   <time name="total">  149.93  151.84</time>
   <energy>
    <i name="e_fr_energy">  -1101.70343781 </i>
    <i name="e_wo_entrp">  -1101.70343781 </i>
    <i name="e_0_energy">  -1101.70343781 </i>
   </energy>
  </scstep>
  <scstep>
   <time name="total">  154.30  156.03</time>
   <energy>
    <i name="e_fr_energy">  -1101.70963019 </i>
    <i name="e_wo_entrp">  -1101.70963019 </i>
    <i name="e_0_energy">  -1101.70963019 </i>
   </energy>
  </scstep>
  <scstep>
   <time name="total">  240.95  243.89</time>
   <energy>
    <i name="e_fr_energy">  -1262.83946069 </i>
    <i name="e_wo_entrp">  -1262.83946069 </i>
    <i name="e_0_energy">  -1262.83946069 </i>
   </energy>
  </scstep>
  <scstep>
   <time name="total">  162.63  164.83</time>
   <energy>
    <i name="e_fr_energy">  -1098.00927156 </i>
    <i name="e_wo_entrp">  -1098.00927156 </i>
    <i name="e_0_energy">  -1098.00927156 </i>
   </energy>
  </scstep>
  <scstep>
   <time name="total">  165.16  167.24</time>
   <energy>
    <i name="e_fr_energy">  -1099.71040571 </i>
    <i name="e_wo_entrp">  -1099.71040571 </i>
    <i name="e_0_energy">  -1099.71040571 </i>
   </energy>
  </scstep>
  <scstep>
   <time name="total">  116.58  118.03</time>
   <energy>
    <i name="e_fr_energy">  -1099.81159391 </i>
    <i name="e_wo_entrp">  -1099.81159391 </i>
    <i name="e_0_energy">  -1099.81159391 </i>
   </energy>
  </scstep>
  <scstep>
   <time name="total">  116.73  118.19</time>
   <energy>
    <i name="e_fr_energy">  -1099.78626791 </i>
    <i name="e_wo_entrp">  -1099.78626791 </i>
    <i name="e_0_energy">  -1099.78626791 </i>
   </energy>
  </scstep>
  <scstep>
   <time name="total">  125.26  126.70</time>
   <energy>
    <i name="e_fr_energy">  -1099.78073688 </i>
    <i name="e_wo_entrp">  -1099.78073688 </i>
    <i name="e_0_energy">  -1099.78073688 </i>
   </energy>
  </scstep>
  <scstep>
   <time name="total">  133.48  135.43</time>
   <energy>
    <i name="e_fr_energy">  -1099.77841029 </i>
    <i name="e_wo_entrp">  -1099.77841029 </i>
    <i name="e_0_energy">  -1099.77841029 </i>
   </energy>
  </scstep>
  <scstep>
   <time name="total">  143.43  145.19</time>
   <energy>
    <i name="e_fr_energy">  -1099.77811948 </i>
    <i name="e_wo_entrp">  -1099.77811948 </i>
    <i name="e_0_energy">  -1099.77811948 </i>
   </energy>
  </scstep>
  <scstep>
   <time name="total">  146.89  148.53</time>
   <energy>
    <i name="e_fr_energy">  -1099.77779828 </i>
    <i name="e_wo_entrp">  -1099.77779828 </i>
    <i name="e_0_energy">  -1099.77779828 </i>
   </energy>
  </scstep>
  <scstep>
   <time name="total">  150.39  152.38</time>
   <energy>
    <i name="e_fr_energy">  -1099.77791344 </i>
    <i name="e_wo_entrp">  -1099.77791344 </i>
    <i name="e_0_energy">  -1099.77791344 </i>
   </energy>
  </scstep>
  <scstep>
   <time name="total">  153.30  155.35</time>
   <energy>
    <i name="e_fr_energy">  -1099.77780011 </i>
    <i name="e_wo_entrp">  -1099.77780011 </i>
    <i name="e_0_energy">  -1099.77780011 </i>
   </energy>
  </scstep>
  <scstep>
   <time name="total">  243.74  246.97</time>
   <energy>
    <i name="e_fr_energy">  -1374.22797683 </i>
    <i name="e_wo_entrp">  -1374.22797683 </i>
    <i name="e_0_energy">  -1374.22797683 </i>
   </energy>
  </scstep>
  <scstep>
   <time name="total">  161.41  163.24</time>
   <energy>
    <i name="e_fr_energy">  -1103.41964285 </i>
    <i name="e_wo_entrp">  -1103.41964285 </i>
    <i name="e_0_energy">  -1103.41964285 </i>
   </energy>
  </scstep>
  <scstep>
   <time name="total">  165.62  167.47</time>
   <energy>
    <i name="e_fr_energy">  -1105.42345463 </i>
    <i name="e_wo_entrp">  -1105.42345463 </i>
    <i name="e_0_energy">  -1105.42345463 </i>
   </energy>
  </scstep>
  <scstep>
   <time name="total">  117.11  118.41</time>
   <energy>
    <i name="e_fr_energy">  -1105.54005029 </i>
    <i name="e_wo_entrp">  -1105.54005029 </i>
    <i name="e_0_energy">  -1105.54005029 </i>
   </energy>
  </scstep>
  <scstep>
   <time name="total">  116.51  117.83</time>
   <energy>
    <i name="e_fr_energy">  -1105.51460675 </i>
    <i name="e_wo_entrp">  -1105.51460675 </i>
    <i name="e_0_energy">  -1105.51460675 </i>
   </energy>
  </scstep>
  <scstep>
   <time name="total">  125.33  127.14</time>
   <energy>
    <i name="e_fr_energy">  -1105.50957722 </i>
    <i name="e_wo_entrp">  -1105.50957722 </i>
    <i name="e_0_energy">  -1105.50957722 </i>
   </energy>
  </scstep>
  <scstep>
   <time name="total">  134.02  135.63</time>
   <energy>
    <i name="e_fr_energy">  -1105.50729598 </i>
    <i name="e_wo_entrp">  -1105.50729598 </i>
    <i name="e_0_energy">  -1105.50729598 </i>
   </energy>
  </scstep>
  <scstep>
   <time name="total">  143.90  145.53</time>
   <energy>
    <i name="e_fr_energy">  -1105.50695081 </i>
    <i name="e_wo_entrp">  -1105.50695081 </i>
    <i name="e_0_energy">  -1105.50695081 </i>
   </energy>
  </scstep>
  <scstep>
   <time name="total">  136.42  138.28</time>
   <energy>
    <i name="e_fr_energy">  -1105.50667991 </i>
    <i name="e_wo_entrp">  -1105.50667991 </i>
    <i name="e_0_energy">  -1105.50667991 </i>
   </energy>
  </scstep>
  <scstep>
   <time name="total">  142.34  143.83</time>
   <energy>
    <i name="e_fr_energy">  -1105.50676320 </i>
    <i name="e_wo_entrp">  -1105.50676320 </i>
    <i name="e_0_energy">  -1105.50676320 </i>
   </energy>
  </scstep>
  <scstep>
   <time name="total">  146.61  148.38</time>
   <energy>
    <i name="e_fr_energy">  -1105.50671945 </i>
    <i name="e_wo_entrp">  -1105.50671945 </i>
    <i name="e_0_energy">  -1105.50671945 </i>
   </energy>
  </scstep>
  <kpoints>
   <generation param="Gamma">
    <v type="int" name="divisions">       5        5        5 </v>
    <v name="usershift">      0.00000000       0.00000000       0.00000000 </v>
    <v name="genvec1">      0.20000000       0.00000000       0.00000000 </v>
    <v name="genvec2">      0.00000000       0.20000000       0.00000000 </v>
    <v name="genvec3">      0.00000000       0.00000000       0.20000000 </v>
    <v name="shift">      0.00000000       0.00000000       0.00000000 </v>
   </generation>
   <varray name="kpointlist" >
    <v>       0.00000000       0.00000000       0.00000000 </v>
    <v>       0.20000000       0.00000000       0.00000000 </v>
    <v>       0.40000000       0.00000000       0.00000000 </v>
    <v>       0.00000000       0.20000000       0.00000000 </v>
    <v>       0.20000000       0.20000000       0.00000000 </v>
    <v>       0.40000000       0.20000000       0.00000000 </v>
    <v>       0.00000000       0.40000000       0.00000000 </v>
    <v>       0.20000000       0.40000000       0.00000000 </v>
    <v>       0.40000000       0.40000000       0.00000000 </v>
    <v>       0.00000000       0.20000000       0.20000000 </v>
    <v>       0.00000000      -0.20000000       0.20000000 </v>
    <v>       0.20000000       0.20000000       0.20000000 </v>
    <v>       0.20000000      -0.20000000       0.20000000 </v>
    <v>       0.40000000       0.20000000       0.20000000 </v>
    <v>       0.40000000      -0.20000000       0.20000000 </v>
    <v>       0.00000000       0.40000000       0.20000000 </v>
    <v>       0.00000000      -0.20000000       0.40000000 </v>
    <v>       0.20000000       0.40000000       0.20000000 </v>
    <v>       0.20000000      -0.20000000       0.40000000 </v>
    <v>       0.40000000       0.40000000       0.20000000 </v>
    <v>       0.40000000      -0.20000000       0.40000000 </v>
    <v>       0.00000000       0.40000000       0.40000000 </v>
    <v>       0.00000000      -0.40000000       0.40000000 </v>
    <v>       0.20000000       0.40000000       0.40000000 </v>
    <v>       0.20000000      -0.40000000       0.40000000 </v>
    <v>       0.40000000       0.40000000       0.40000000 </v>
    <v>       0.40000000      -0.40000000       0.40000000 </v>
   </varray>
   <varray name="weights" >
    <v>       0.00800000 </v>
    <v>       0.01600000 </v>
    <v>       0.01600000 </v>
    <v>       0.03200000 </v>
    <v>       0.06400000 </v>
    <v>       0.06400000 </v>
    <v>       0.03200000 </v>
    <v>       0.06400000 </v>
    <v>       0.06400000 </v>
    <v>       0.01600000 </v>
    <v>       0.01600000 </v>
    <v>       0.03200000 </v>
    <v>       0.03200000 </v>
    <v>       0.03200000 </v>
    <v>       0.03200000 </v>
    <v>       0.03200000 </v>
    <v>       0.03200000 </v>
    <v>       0.06400000 </v>
    <v>       0.06400000 </v>
    <v>       0.06400000 </v>
    <v>       0.06400000 </v>
    <v>       0.01600000 </v>
    <v>       0.01600000 </v>
    <v>       0.03200000 </v>
    <v>       0.03200000 </v>
    <v>       0.03200000 </v>
    <v>       0.03200000 </v>
   </varray>
   <varray name="tetrahedronlist"  type="int" >
    <v type="int" >        4       12       14       18       20 </v>
    <v type="int" >        4       12       18       18       20 </v>
    <v type="int" >        4       18       18       20       24 </v>
    <v type="int" >        4       14       18       20       20 </v>
    <v type="int" >        4       18       20       20       26 </v>
    <v type="int" >        4       18       20       24       26 </v>
    <v type="int" >        2       14       14       20       20 </v>
    <v type="int" >        4       14       20       20       20 </v>
    <v type="int" >        4       20       20       20       26 </v>
    <v type="int" >        2       20       20       26       26 </v>
    <v type="int" >        4       10       12       16       18 </v>
    <v type="int" >        4       12       16       18       18 </v>
    <v type="int" >        4       16       18       18       24 </v>
    <v type="int" >        4       10       16       16       18 </v>
    <v type="int" >        4       16       16       18       22 </v>
    <v type="int" >        4       16       18       22       24 </v>
    <v type="int" >        4       18       20       21       24 </v>
    <v type="int" >        4       18       19       21       24 </v>
    <v type="int" >        4       19       21       24       25 </v>
    <v type="int" >        4       20       21       24       26 </v>
    <v type="int" >        4       21       24       26       27 </v>
    <v type="int" >        4       21       24       25       27 </v>
    <v type="int" >        4       20       20       21       26 </v>
    <v type="int" >        4       20       21       21       26 </v>
    <v type="int" >        4       21       21       26       27 </v>
    <v type="int" >        4       20       21       26       26 </v>
    <v type="int" >        4       21       26       26       27 </v>
    <v type="int" >        4       21       26       27       27 </v>
    <v type="int" >        4       18       19       20       26 </v>
    <v type="int" >        4       19       20       21       26 </v>
    <v type="int" >        4       19       21       26       27 </v>
    <v type="int" >        4       18       19       24       26 </v>
    <v type="int" >        4       19       24       25       26 </v>
    <v type="int" >        4       19       25       26       27 </v>
    <v type="int" >        4       16       17       18       24 </v>
    <v type="int" >        4       17       18       19       24 </v>
    <v type="int" >        4       17       19       24       25 </v>
    <v type="int" >        4       16       17       22       24 </v>
    <v type="int" >        4       17       22       23       24 </v>
    <v type="int" >        4       17       23       24       25 </v>
    <v type="int" >        4       16       18       19       22 </v>
    <v type="int" >        4       16       17       19       22 </v>
    <v type="int" >        4       17       19       22       23 </v>
    <v type="int" >        4       18       19       22       24 </v>
    <v type="int" >        4       19       22       24       25 </v>
    <v type="int" >        4       19       22       23       25 </v>
    <v type="int" >        4       15       19       21       25 </v>
    <v type="int" >        4       13       15       19       25 </v>
    <v type="int" >        4       15       21       25       27 </v>
    <v type="int" >        4       15       21       21       27 </v>
    <v type="int" >        4       15       15       21       27 </v>
    <v type="int" >        4       15       21       27       27 </v>
    <v type="int" >        4       13       19       21       27 </v>
    <v type="int" >        4       13       15       21       27 </v>
    <v type="int" >        4       13       19       25       27 </v>
    <v type="int" >        4       11       17       19       25 </v>
    <v type="int" >        4       11       13       19       25 </v>
    <v type="int" >        4       11       17       23       25 </v>
    <v type="int" >        4       13       17       19       23 </v>
    <v type="int" >        4       11       13       17       23 </v>
    <v type="int" >        4       13       19       23       25 </v>
    <v type="int" >        4        6       13       15       19 </v>
    <v type="int" >        4        5        6       13       19 </v>
    <v type="int" >        4        5        6        8       19 </v>
    <v type="int" >        4        6       15       19       21 </v>
    <v type="int" >        4        6        9       19       21 </v>
    <v type="int" >        4        6        8        9       19 </v>
    <v type="int" >        4        6       15       15       21 </v>
    <v type="int" >        4        6        6       15       21 </v>
    <v type="int" >        4        6        6        9       21 </v>
    <v type="int" >        4        6       15       21       21 </v>
    <v type="int" >        4        6        9       21       21 </v>
    <v type="int" >        4        6        9        9       21 </v>
    <v type="int" >        4        5       13       15       21 </v>
    <v type="int" >        4        5        6       15       21 </v>
    <v type="int" >        4        5        6        9       21 </v>
    <v type="int" >        4        5       13       19       21 </v>
    <v type="int" >        4        5        8       19       21 </v>
    <v type="int" >        4        5        8        9       21 </v>
    <v type="int" >        4        4       11       13       19 </v>
    <v type="int" >        4        4        5       13       19 </v>
    <v type="int" >        4        4        5        8       19 </v>
    <v type="int" >        4        4       11       17       19 </v>
    <v type="int" >        4        4        7       17       19 </v>
    <v type="int" >        4        4        7        8       19 </v>
    <v type="int" >        4        5       11       13       17 </v>
    <v type="int" >        4        4        5       11       17 </v>
    <v type="int" >        4        4        5        7       17 </v>
    <v type="int" >        4        5       13       17       19 </v>
    <v type="int" >        4        5        8       17       19 </v>
    <v type="int" >        4        5        7        8       17 </v>
    <v type="int" >        4        5        6        8       14 </v>
    <v type="int" >        4        5        8       12       14 </v>
    <v type="int" >        4        8       12       14       18 </v>
    <v type="int" >        4        6        8        9       14 </v>
    <v type="int" >        4        8        9       14       20 </v>
    <v type="int" >        4        8       14       18       20 </v>
    <v type="int" >        4        6        6        9       14 </v>
    <v type="int" >        4        6        9       14       14 </v>
    <v type="int" >        4        9       14       14       20 </v>
    <v type="int" >        4        6        9        9       14 </v>
    <v type="int" >        4        9        9       14       20 </v>
    <v type="int" >        4        9       14       20       20 </v>
    <v type="int" >        4        5        6        9       12 </v>
    <v type="int" >        4        6        9       12       14 </v>
    <v type="int" >        4        9       12       14       20 </v>
    <v type="int" >        4        5        8        9       12 </v>
    <v type="int" >        4        8        9       12       18 </v>
    <v type="int" >        4        9       12       18       20 </v>
    <v type="int" >        4        4        5        8       10 </v>
    <v type="int" >        4        5        8       10       12 </v>
    <v type="int" >        4        8       10       12       18 </v>
    <v type="int" >        4        4        7        8       10 </v>
    <v type="int" >        4        7        8       10       16 </v>
    <v type="int" >        4        8       10       16       18 </v>
    <v type="int" >        4        4        5        7       12 </v>
    <v type="int" >        4        4        7       10       12 </v>
    <v type="int" >        4        7       10       12       16 </v>
    <v type="int" >        4        5        7        8       12 </v>
    <v type="int" >        4        7        8       12       18 </v>
    <v type="int" >        4        7       12       16       18 </v>
    <v type="int" >        4       24       25       26       27 </v>
    <v type="int" >        4       24       25       25       27 </v>
    <v type="int" >        4       25       26       27       27 </v>
    <v type="int" >        2       26       26       27       27 </v>
    <v type="int" >        4       26       27       27       27 </v>
    <v type="int" >        4       22       23       24       25 </v>
    <v type="int" >        4       23       24       25       25 </v>
    <v type="int" >        4       22       23       23       25 </v>
    <v type="int" >        4        9       18       19       21 </v>
    <v type="int" >        4        8        9       18       19 </v>
    <v type="int" >        4        8        8        9       18 </v>
    <v type="int" >        4        9       18       20       21 </v>
    <v type="int" >        4        9        9       18       20 </v>
    <v type="int" >        4        8        9        9       18 </v>
    <v type="int" >        4        9       20       21       21 </v>
    <v type="int" >        4        9        9       20       21 </v>
    <v type="int" >        8        9        9        9       20 </v>
    <v type="int" >        4        9       20       20       21 </v>
    <v type="int" >        4        9        9       20       20 </v>
    <v type="int" >        4        8       19       20       21 </v>
    <v type="int" >        4        8        9       20       21 </v>
    <v type="int" >        4        8        9        9       20 </v>
    <v type="int" >        4        8       18       19       20 </v>
    <v type="int" >        4        8        8       18       20 </v>
    <v type="int" >        4        8        8        9       20 </v>
    <v type="int" >        4        7       17       18       19 </v>
    <v type="int" >        4        7        8       18       19 </v>
    <v type="int" >        4        7        8        8       18 </v>
    <v type="int" >        4        7       16       17       18 </v>
    <v type="int" >        4        7        7       16       18 </v>
    <v type="int" >        4        7        7        8       18 </v>
    <v type="int" >        4        8       16       17       19 </v>
    <v type="int" >        4        7        8       16       17 </v>
    <v type="int" >        4        7        7        8       16 </v>
    <v type="int" >        4        8       16       18       19 </v>
    <v type="int" >        4        8        8       16       18 </v>
    <v type="int" >        4        7        8        8       16 </v>
    <v type="int" >        4        5        6       12       14 </v>
    <v type="int" >        4        5        5        6       12 </v>
    <v type="int" >        4        2        5        5        6 </v>
    <v type="int" >        4        5        6        6       14 </v>
    <v type="int" >        4        3        5        6        6 </v>
    <v type="int" >        4        2        3        5        6 </v>
    <v type="int" >        2        6        6       14       14 </v>
    <v type="int" >        4        6        6        6       14 </v>
    <v type="int" >        4        3        6        6        6 </v>
    <v type="int" >        2        3        3        6        6 </v>
    <v type="int" >        4        4        5       10       12 </v>
    <v type="int" >        4        4        5        5       12 </v>
    <v type="int" >        4        2        4        5        5 </v>
    <v type="int" >        4        4        4        5       10 </v>
    <v type="int" >        4        1        4        4        5 </v>
    <v type="int" >        4        1        2        4        5 </v>
    <v type="int" >        4        2        5        6       15 </v>
    <v type="int" >        4        2        5       13       15 </v>
    <v type="int" >        4        2        3        6       15 </v>
    <v type="int" >        4        3        6        6       15 </v>
    <v type="int" >        4        3        6       15       15 </v>
    <v type="int" >        4        3        3        6       15 </v>
    <v type="int" >        4        3        5        6       13 </v>
    <v type="int" >        4        3        6       13       15 </v>
    <v type="int" >        4        2        3        5       13 </v>
    <v type="int" >        4        2        4        5       11 </v>
    <v type="int" >        4        2        5       11       13 </v>
    <v type="int" >        4        1        2        4       11 </v>
    <v type="int" >        4        1        4        5       13 </v>
    <v type="int" >        4        1        4       11       13 </v>
    <v type="int" >        4        1        2        5       13 </v>
   </varray>
   <i name="volumeweight">      0.00133333 </i>
  </kpoints>
  <scstep>
   <time name="total">  182.24  184.69</time>
   <energy>
    <i name="e_fr_energy">   -116.87729826 </i>
    <i name="e_wo_entrp">   -116.87729826 </i>
    <i name="e_0_energy">   -116.87729826 </i>
   </energy>
  </scstep>
  <scstep>
   <time name="total">  163.40  165.66</time>
   <energy>
    <i name="e_fr_energy">   -332.66571202 </i>
    <i name="e_wo_entrp">   -332.66571202 </i>
    <i name="e_0_energy">   -332.66571202 </i>
   </energy>
  </scstep>
  <scstep>
   <time name="total">  165.96  168.40</time>
   <energy>
    <i name="e_fr_energy">   -329.68280776 </i>
    <i name="e_wo_entrp">   -329.68280776 </i>
    <i name="e_0_energy">   -329.68280776 </i>
   </energy>
  </scstep>
  <scstep>
   <time name="total">  164.06  166.37</time>
   <energy>
    <i name="e_fr_energy">   -321.17154037 </i>
    <i name="e_wo_entrp">   -321.17154037 </i>
    <i name="e_0_energy">   -321.17154037 </i>
   </energy>
  </scstep>
  <scstep>
   <time name="total">  168.91  171.63</time>
   <energy>
    <i name="e_fr_energy">   -320.48525262 </i>
    <i name="e_wo_entrp">   -320.48525262 </i>
    <i name="e_0_energy">   -320.48525262 </i>
   </energy>
  </scstep>
  <scstep>
   <time name="total">  170.98  173.40</time>
   <energy>
    <i name="e_fr_energy">   -320.40898109 </i>
    <i name="e_wo_entrp">   -320.40898109 </i>
    <i name="e_0_energy">   -320.40898109 </i>
   </energy>
  </scstep>
  <scstep>
   <time name="total">  170.69  172.89</time>
   <energy>
    <i name="e_fr_energy">   -320.35774844 </i>
    <i name="e_wo_entrp">   -320.35774844 </i>
    <i name="e_0_energy">   -320.35774844 </i>
   </energy>
  </scstep>
  <scstep>
   <time name="total">  176.31  178.96</time>
   <energy>
    <i name="e_fr_energy">   -320.34392367 </i>
    <i name="e_wo_entrp">   -320.34392367 </i>
    <i name="e_0_energy">   -320.34392367 </i>
   </energy>
  </scstep>
  <scstep>
   <time name="total">  176.15  178.57</time>
   <energy>
    <i name="e_fr_energy">   -320.34955566 </i>
    <i name="e_wo_entrp">   -320.34955566 </i>
    <i name="e_0_energy">   -320.34955566 </i>
   </energy>
  </scstep>
  <scstep>
   <time name="total">  186.83  189.35</time>
   <energy>
    <i name="e_fr_energy">   -320.34924013 </i>
    <i name="e_wo_entrp">   -320.34924013 </i>
    <i name="e_0_energy">   -320.34924013 </i>
   </energy>
  </scstep>
  <scstep>
   <time name="total">  189.50  192.11</time>
   <energy>
    <i name="e_fr_energy">   -320.34900367 </i>
    <i name="e_wo_entrp">   -320.34900367 </i>
    <i name="e_0_energy">   -320.34900367 </i>
   </energy>
  </scstep>
  <scstep>
   <time name="total">  178.07  180.48</time>
   <energy>
    <i name="e_fr_energy">   -320.34903886 </i>
    <i name="e_wo_entrp">   -320.34903886 </i>
    <i name="e_0_energy">   -320.34903886 </i>
   </energy>
  </scstep>
  <scstep>
   <time name="total">  184.25  186.94</time>
   <energy>
    <i name="e_fr_energy">   -320.34902362 </i>
    <i name="e_wo_entrp">   -320.34902362 </i>
    <i name="e_0_energy">   -320.34902362 </i>
   </energy>
  </scstep>
  <kpoints>
[...]
     <r>     7.3060     0.0000     0.0000     0.0000     0.0000     0.0000     0.0000 </r>
     <r>     7.3160     0.0000     0.0000     0.0000     0.0000     0.0000     0.0000 </r>
    </set>
   </array>
  </conductivity>
  <dos>
   <i name="efermi">      2.31329530 </i>
   <total>
    <array>
     <dimension dim="1">gridpoints</dimension>
     <dimension dim="2">spin</dimension>
     <field>energy</field>
     <field>total</field>
     <field>integrated</field>
     <set>
      <set comment="spin 1">
       <r>   -11.0218     0.0000     0.0000 </r>
       <r>   -10.9595     0.0000     0.0000 </r>
       <r>   -10.8972     0.0000     0.0000 </r>
       <r>   -10.8349     0.0000     0.0000 </r>
       <r>   -10.7726     0.0000     0.0000 </r>
       <r>   -10.7104     0.0000     0.0000 </r>
       <r>   -10.6481     0.0000     0.0000 </r>
       <r>   -10.5858     0.0000     0.0000 </r>
       <r>   -10.5235     0.0000     0.0000 </r>
       <r>   -10.4613     0.0000     0.0000 </r>
       <r>   -10.3990     0.0000     0.0000 </r>
       <r>   -10.3367     0.0000     0.0000 </r>
       <r>   -10.2744     0.0000     0.0000 </r>
       <r>   -10.2122     0.0000     0.0000 </r>
       <r>   -10.1499     0.0000     0.0000 </r>
       <r>   -10.0876     0.0000     0.0000 </r>
       <r>   -10.0253     0.0000     0.0000 </r>
       <r>    -9.9630     3.7246     0.0967 </r>
       <r>    -9.9008     5.3610     0.3659 </r>
       <r>    -9.8385    10.1832     0.9050 </r>
       <r>    -9.7762     7.3198     1.3975 </r>
       <r>    -9.7139     6.7566     1.8249 </r>
       <r>    -9.6517    11.3541     2.3978 </r>
       <r>    -9.5894    16.8116     3.1263 </r>
       <r>    -9.5271    11.5158     3.9565 </r>
       <r>    -9.4648    12.4314     4.7187 </r>
       <r>    -9.4026    19.4609     5.7606 </r>
       <r>    -9.3403     9.8720     6.6731 </r>
       <r>    -9.2780    15.7867     7.5144 </r>
       <r>    -9.2157    14.4224     8.4307 </r>
       <r>    -9.1534    28.4066     9.9159 </r>
       <r>    -9.0912    30.5772    11.7239 </r>
       <r>    -9.0289     9.4051    12.8007 </r>
       <r>    -8.9666    54.4988    13.8248 </r>
       <r>    -8.9043    22.7279    15.4259 </r>
       <r>    -8.8421    19.1371    16.5734 </r>
       <r>    -8.7798    40.4645    18.7574 </r>
       <r>    -8.7175    27.4692    20.7282 </r>
       <r>    -8.6552    32.2469    22.6315 </r>
       <r>    -8.5930    37.6619    24.8496 </r>
       <r>    -8.5307    54.5845    27.5731 </r>
       <r>    -8.4684    56.6102    31.2175 </r>
       <r>    -8.4061   135.8515    34.6168 </r>
       <r>    -8.3438    65.7832    37.9884 </r>
       <r>    -8.2816    40.6810    40.8349 </r>
       <r>    -8.2193    49.4478    43.1047 </r>
       <r>    -8.1570    63.3414    46.4274 </r>
       <r>    -8.0947    66.4840    50.3535 </r>
       <r>    -8.0325    53.9295    53.3954 </r>
       <r>    -7.9702    74.0349    56.8356 </r>
       <r>    -7.9079    76.8318    61.7452 </r>
       <r>    -7.8456     7.7075    64.0000 </r>
       <r>    -7.7834     0.0000    64.0000 </r>
       <r>    -7.7211     0.0000    64.0000 </r>
       <r>    -7.6588     0.0000    64.0000 </r>
       <r>    -7.5965     0.0000    64.0000 </r>
       <r>    -7.5342     0.0000    64.0000 </r>
       <r>    -7.4720     0.0000    64.0000 </r>
       <r>    -7.4097     0.0000    64.0000 </r>
       <r>    -7.3474     0.0000    64.0000 </r>
       <r>    -7.2851     0.0000    64.0000 </r>
       <r>    -7.2229     0.0000    64.0000 </r>
       <r>    -7.1606     0.0000    64.0000 </r>
       <r>    -7.0983     0.0000    64.0000 </r>
       <r>    -7.0360     0.0000    64.0000 </r>
       <r>    -6.9738     0.0000    64.0000 </r>
       <r>    -6.9115     0.0000    64.0000 </r>
       <r>    -6.8492     0.0000    64.0000 </r>
       <r>    -6.7869     0.0000    64.0000 </r>
       <r>    -6.7246     0.0000    64.0000 </r>
       <r>    -6.6624     0.0000    64.0000 </r>
       <r>    -6.6001     0.0000    64.0000 </r>
       <r>    -6.5378     0.0000    64.0000 </r>
       <r>    -6.4755     0.0000    64.0000 </r>
       <r>    -6.4133     0.0000    64.0000 </r>
       <r>    -6.3510     0.0000    64.0000 </r>
       <r>    -6.2887     0.0000    64.0000 </r>
       <r>    -6.2264     0.0000    64.0000 </r>
       <r>    -6.1642     0.0000    64.0000 </r>
       <r>    -6.1019     0.0000    64.0000 </r>
       <r>    -6.0396     0.0000    64.0000 </r>
       <r>    -5.9773     0.0000    64.0000 </r>
       <r>    -5.9150     0.0000    64.0000 </r>
       <r>    -5.8528     0.0000    64.0000 </r>
       <r>    -5.7905     0.0000    64.0000 </r>
       <r>    -5.7282     0.0000    64.0000 </r>
       <r>    -5.6659     0.0000    64.0000 </r>
       <r>    -5.6037     0.0000    64.0000 </r>
       <r>    -5.5414     0.0000    64.0000 </r>
       <r>    -5.4791     0.0000    64.0000 </r>
       <r>    -5.4168     0.0000    64.0000 </r>
       <r>    -5.3546     0.0000    64.0000 </r>
       <r>    -5.2923     0.0000    64.0000 </r>
       <r>    -5.2300     0.0000    64.0000 </r>
       <r>    -5.1677     0.0000    64.0000 </r>
       <r>    -5.1054     0.0000    64.0000 </r>
       <r>    -5.0432     0.0000    64.0000 </r>
       <r>    -4.9809     0.0000    64.0000 </r>
       <r>    -4.9186     0.0000    64.0000 </r>
       <r>    -4.8563     0.0000    64.0000 </r>
       <r>    -4.7941     0.0000    64.0000 </r>
       <r>    -4.7318     0.0000    64.0000 </r>
       <r>    -4.6695     0.0000    64.0000 </r>
       <r>    -4.6072     0.0000    64.0000 </r>
       <r>    -4.5450     0.0000    64.0000 </r>
       <r>    -4.4827     0.0000    64.0000 </r>
       <r>    -4.4204     0.0000    64.0000 </r>
       <r>    -4.3581     0.0000    64.0000 </r>
       <r>    -4.2958     0.0000    64.0000 </r>
       <r>    -4.2336     3.2159    64.0278 </r>
       <r>    -4.1713    14.0002    64.5186 </r>
       <r>    -4.1090    29.6960    65.6876 </r>
       <r>    -4.0467    69.5447    69.1250 </r>
       <r>    -3.9845    78.3390    73.0302 </r>
       <r>    -3.9222   129.7383    78.3331 </r>
       <r>    -3.8599   107.3745    84.7664 </r>
       <r>    -3.7976    56.9841    87.9964 </r>
       <r>    -3.7354   104.5264    92.9950 </r>
       <r>    -3.6731    19.2886    94.5386 </r>
       <r>    -3.6108    19.8478    95.6027 </r>
       <r>    -3.5485    55.4502    97.7592 </r>
       <r>    -3.4862    29.5351    99.9805 </r>
       <r>    -3.4240    19.5749   101.4434 </r>
       <r>    -3.3617    14.7656   102.4108 </r>
       <r>    -3.2994    32.9291   103.6495 </r>
       <r>    -3.2371    28.5980   106.4391 </r>
       <r>    -3.1749    15.4583   107.3573 </r>
       <r>    -3.1126    11.1465   108.1874 </r>
       <r>    -3.0503     7.5519   108.7408 </r>
       <r>    -2.9880    12.1053   109.3359 </r>
       <r>    -2.9258    12.3713   110.1246 </r>
       <r>    -2.8635    17.6408   111.1055 </r>
       <r>    -2.8012    14.0294   112.0266 </r>
       <r>    -2.7389    13.3500   112.8843 </r>
       <r>    -2.6766    12.9025   113.6925 </r>
       <r>    -2.6144    13.1392   114.4989 </r>
       <r>    -2.5521    12.5260   115.2829 </r>
       <r>    -2.4898     6.1960   115.8494 </r>
       <r>    -2.4275     6.3955   116.2170 </r>
       <r>    -2.3653     7.1636   116.6345 </r>
       <r>    -2.3030     8.2000   117.1117 </r>
       <r>    -2.2407    11.6723   117.7127 </r>
       <r>    -2.1784    10.7602   118.4126 </r>
       <r>    -2.1162     6.9027   119.0170 </r>
       <r>    -2.0539     8.0709   119.4964 </r>
       <r>    -1.9916     6.2447   119.9630 </r>
       <r>    -1.9293     4.8098   120.2373 </r>
       <r>    -1.8670     4.1776   120.5206 </r>
       <r>    -1.8048     3.6862   120.7621 </r>
       <r>    -1.7425     3.7837   120.9926 </r>
       <r>    -1.6802     4.0307   121.2357 </r>
       <r>    -1.6179     7.8713   121.6080 </r>
       <r>    -1.5557     9.7255   122.2001 </r>
       <r>    -1.4934     8.4665   122.8034 </r>
       <r>    -1.4311     6.9867   123.2601 </r>
       <r>    -1.3688     6.8694   123.6673 </r>
       <r>    -1.3066    16.0389   124.2738 </r>
       <r>    -1.2443    28.5714   125.7326 </r>
       <r>    -1.1820    49.1902   127.9925 </r>
       <r>    -1.1197    44.6432   130.9236 </r>
       <r>    -1.0574    45.6304   133.6440 </r>
       <r>    -0.9952    47.9638   136.9247 </r>
       <r>    -0.9329    37.0668   139.5209 </r>
       <r>    -0.8706    42.4708   142.0301 </r>
       <r>    -0.8083    35.8998   144.1249 </r>
       <r>    -0.7461    26.2343   146.2381 </r>
       <r>    -0.6838    33.6294   148.0066 </r>
       <r>    -0.6215    35.3086   149.9588 </r>
       <r>    -0.5592    43.8615   152.5260 </r>
       <r>    -0.4970    43.9087   154.9802 </r>
       <r>    -0.4347    46.3537   157.5549 </r>
       <r>    -0.3724    50.5214   160.5935 </r>
       <r>    -0.3101    49.6169   163.7181 </r>
       <r>    -0.2478    48.1601   166.8181 </r>
       <r>    -0.1856    46.1128   169.6831 </r>
       <r>    -0.1233    46.7294   172.6362 </r>
       <r>    -0.0610    60.8159   176.3456 </r>
       <r>     0.0013    46.2125   179.6618 </r>
       <r>     0.0635    55.0849   183.1640 </r>
       <r>     0.1258    51.7704   186.0746 </r>
       <r>     0.1881    54.3836   189.4753 </r>
       <r>     0.2504    50.5377   192.7424 </r>
       <r>     0.3126    44.4434   195.0201 </r>
       <r>     0.3749    39.6977   197.8819 </r>
       <r>     0.4372    62.2508   201.4244 </r>
       <r>     0.4995    69.5041   204.8384 </r>
       <r>     0.5618    75.0919   208.5378 </r>
       <r>     0.6240    36.9378   211.4943 </r>
       <r>     0.6863    53.8605   214.1935 </r>
       <r>     0.7486    49.6308   217.3164 </r>
       <r>     0.8109    43.0394   220.1615 </r>
       <r>     0.8731    61.6896   222.8238 </r>
       <r>     0.9354    40.8324   225.8279 </r>
       <r>     0.9977    35.5273   228.1256 </r>
       <r>     1.0600    44.0972   230.5269 </r>
       <r>     1.1222    46.1270   233.3561 </r>
       <r>     1.1845    44.2404   236.1412 </r>
       <r>     1.2468    63.1142   239.2615 </r>
       <r>     1.3091    39.3379   242.1527 </r>
       <r>     1.3714    24.3003   244.0414 </r>
       <r>     1.4336    19.8228   245.3356 </r>
       <r>     1.4959    22.8359   246.8182 </r>
       <r>     1.5582    22.5682   248.1569 </r>
       <r>     1.6205    18.7738   249.5511 </r>
       <r>     1.6827    11.3302   250.3870 </r>
       <r>     1.7450    13.1529   251.1118 </r>
       <r>     1.8073    12.3095   251.9683 </r>
       <r>     1.8696    20.2847   253.2357 </r>
       <r>     1.9318     5.9580   253.6849 </r>
       <r>     1.9941    12.2660   254.1818 </r>
       <r>     2.0564    11.3941   255.0420 </r>
       <r>     2.1187     5.3470   255.5936 </r>
       <r>     2.1810     3.5357   255.8280 </r>
       <r>     2.2432     0.6130   255.9923 </r>
       <r>     2.3055     0.0000   256.0000 </r>
       <r>     2.3678     0.0000   256.0000 </r>
       <r>     2.4301     0.0000   256.0000 </r>
       <r>     2.4923     0.0017   256.0000 </r>
       <r>     2.5546     0.0057   256.0003 </r>
       <r>     2.6169     0.0120   256.0008 </r>
       <r>     2.6792     0.0208   256.0018 </r>
       <r>     2.7414     0.0319   256.0034 </r>
       <r>     2.8037     0.0454   256.0058 </r>
       <r>     2.8660     0.0612   256.0091 </r>
       <r>     2.9283     0.0795   256.0135 </r>
       <r>     2.9906     0.1001   256.0191 </r>
       <r>     3.0528     0.1230   256.0260 </r>
       <r>     3.1151     0.1484   256.0345 </r>
       <r>     3.1774     0.1861   256.0446 </r>
       <r>     3.2397     0.5951   256.0641 </r>
       <r>     3.3019     1.3944   256.1262 </r>
       <r>     3.3642     2.1567   256.2370 </r>
       <r>     3.4265     3.7372   256.3953 </r>
       <r>     3.4888     5.4062   256.7441 </r>
       <r>     3.5510     7.0961   257.1161 </r>
       <r>     3.6133     8.5074   257.6188 </r>
       <r>     3.6756     6.8960   258.0559 </r>
       <r>     3.7379     8.4940   258.5505 </r>
       <r>     3.8002    11.3105   259.1782 </r>
       <r>     3.8624    13.8733   259.9380 </r>
       <r>     3.9247    23.6318   261.3350 </r>
       <r>     3.9870    30.9129   262.6007 </r>
       <r>     4.0493    35.9169   264.6534 </r>
       <r>     4.1115    24.8293   266.6808 </r>
       <r>     4.1738    20.1064   267.9371 </r>
       <r>     4.2361    26.6033   269.3116 </r>
       <r>     4.2984    32.4456   271.0972 </r>
       <r>     4.3606    54.5662   273.9923 </r>
       <r>     4.4229    37.8749   276.7262 </r>
       <r>     4.4852    57.0753   279.1825 </r>
       <r>     4.5475    62.8720   282.4887 </r>
       <r>     4.6098    52.9906   286.0880 </r>
       <r>     4.6720    72.8306   290.0298 </r>
       <r>     4.7343    73.4227   294.2343 </r>
       <r>     4.7966    68.6844   298.4213 </r>
       <r>     4.8589    41.7356   301.8553 </r>
       <r>     4.9211    37.9230   304.3318 </r>
       <r>     4.9834    37.4653   306.8819 </r>
       <r>     5.0457    41.9514   309.1314 </r>
       <r>     5.1080    36.0966   311.7375 </r>
       <r>     5.1702    31.0627   313.6918 </r>
       <r>     5.2325    34.4297   315.6965 </r>
       <r>     5.2948    25.4997   317.8834 </r>
       <r>     5.3571    17.8053   319.0024 </r>
       <r>     5.4194    38.1319   320.7356 </r>
       <r>     5.4816    32.1757   322.8217 </r>
       <r>     5.5439    22.4321   324.5532 </r>
       <r>     5.6062    39.2925   326.5983 </r>
       <r>     5.6685    18.7280   327.9185 </r>
       <r>     5.7307    19.8017   329.1153 </r>
       <r>     5.7930    21.4546   330.4314 </r>
       <r>     5.8553    20.3459   331.7436 </r>
       <r>     5.9176    14.8421   332.7520 </r>
       <r>     5.9798    12.1871   333.5931 </r>
       <r>     6.0421    10.1797   334.2836 </r>
       <r>     6.1044     8.3775   334.8522 </r>
       <r>     6.1667     6.3832   335.3384 </r>
       <r>     6.2290     3.3086   335.6300 </r>
       <r>     6.2912     1.8751   335.7730 </r>
       <r>     6.3535     1.2297   335.8614 </r>
       <r>     6.4158     0.8893   335.9272 </r>
       <r>     6.4781     0.5855   335.9958 </r>
       <r>     6.5403     0.0296   335.9989 </r>
       <r>     6.6026     0.0059   335.9999 </r>
       <r>     6.6649     0.0000   336.0000 </r>
       <r>     6.7272     0.0000   336.0000 </r>
       <r>     6.7894     0.0000   336.0000 </r>
       <r>     6.8517     0.0000   336.0000 </r>
       <r>     6.9140     0.0000   336.0000 </r>
       <r>     6.9763     0.0000   336.0000 </r>
       <r>     7.0386     0.0000   336.0000 </r>
       <r>     7.1008     0.0000   336.0000 </r>
       <r>     7.1631     0.0000   336.0000 </r>
       <r>     7.2254     0.0000   336.0000 </r>
       <r>     7.2877     0.0000   336.0000 </r>
       <r>     7.3499     0.0000   336.0000 </r>
       <r>     7.4122     0.0000   336.0000 </r>
       <r>     7.4745     0.0000   336.0000 </r>
       <r>     7.5368     0.0000   336.0000 </r>
       <r>     7.5990     0.0000   336.0000 </r>
       <r>     7.6613     0.0000   336.0000 </r>
      </set>
     </set>
    </array>
   </total>
  </dos>
 </calculation>
 <structure name="finalpos" >
  <crystal>
   <varray name="basis" >
    <v>      11.55561683       0.00000000       0.00000000 </v>
    <v>       0.00000000      11.51786656       0.00000000 </v>
    <v>       0.00000000       0.00000000      11.51786656 </v>
   </varray>
   <i name="volume">   1532.98257568 </i>
   <varray name="rec_basis" >
    <v>       0.08653800       0.00000000       0.00000000 </v>
    <v>       0.00000000       0.08682163       0.00000000 </v>
    <v>       0.00000000       0.00000000       0.08682163 </v>
   </varray>
  </crystal>
  <varray name="positions" >
   <v>       0.00000000       0.00000000       0.00000000 </v>
   <v>       0.00000000       0.00000000       0.50000000 </v>
   <v>       0.00000000       0.50000000       0.00000000 </v>
   <v>       0.00000000       0.50000000       0.50000000 </v>
   <v>       0.50000000       0.00000000       0.00000000 </v>
   <v>       0.50000000       0.00000000       0.50000000 </v>
   <v>       0.50000000       0.50000000       0.00000000 </v>
   <v>       0.50000000       0.50000000       0.50000000 </v>
   <v>       0.25000000       0.25000000       0.00000000 </v>
   <v>       0.25000000       0.25000000       0.50000000 </v>
   <v>       0.25000000       0.75000000       0.00000000 </v>
   <v>       0.25000000       0.75000000       0.50000000 </v>
   <v>       0.75000000       0.25000000       0.00000000 </v>
   <v>       0.75000000       0.25000000       0.50000000 </v>
   <v>       0.75000000       0.75000000       0.00000000 </v>
   <v>       0.75000000       0.75000000       0.50000000 </v>
   <v>       0.25000000       0.00000000       0.25000000 </v>
   <v>       0.25000000       0.00000000       0.75000000 </v>
   <v>       0.25000000       0.50000000       0.25000000 </v>
   <v>       0.25000000       0.50000000       0.75000000 </v>
   <v>       0.75000000       0.00000000       0.25000000 </v>
   <v>       0.75000000       0.00000000       0.75000000 </v>
   <v>       0.75000000       0.50000000       0.25000000 </v>
   <v>       0.75000000       0.50000000       0.75000000 </v>
   <v>       0.00000000       0.25000000       0.25000000 </v>
   <v>       0.00000000       0.25000000       0.75000000 </v>
   <v>       0.00000000       0.75000000       0.25000000 </v>
   <v>       0.00000000       0.75000000       0.75000000 </v>
   <v>       0.50000000       0.25000000       0.25000000 </v>
   <v>       0.50000000       0.25000000       0.75000000 </v>
   <v>       0.50000000       0.75000000       0.25000000 </v>
   <v>       0.50000000       0.75000000       0.75000000 </v>
   <v>       0.12500000       0.12500000       0.12500000 </v>
   <v>       0.12500000       0.12500000       0.62500000 </v>
   <v>       0.12500000       0.62500000       0.12500000 </v>
   <v>       0.12500000       0.62500000       0.62500000 </v>
   <v>       0.62500000       0.12500000       0.12500000 </v>
   <v>       0.62500000       0.12500000       0.62500000 </v>
   <v>       0.62500000       0.62500000       0.12500000 </v>
   <v>       0.62500000       0.62500000       0.62500000 </v>
   <v>       0.37500000       0.12500000       0.37500000 </v>
   <v>       0.37500000       0.12500000       0.87500000 </v>
   <v>       0.37500000       0.62500000       0.37500000 </v>
   <v>       0.37500000       0.62500000       0.87500000 </v>
   <v>       0.87500000       0.12500000       0.37500000 </v>
   <v>       0.87500000       0.12500000       0.87500000 </v>
   <v>       0.87500000       0.62500000       0.37500000 </v>
   <v>       0.87500000       0.62500000       0.87500000 </v>
   <v>       0.37500000       0.37500000       0.12500000 </v>
   <v>       0.37500000       0.37500000       0.62500000 </v>
   <v>       0.37500000       0.87500000       0.12500000 </v>
   <v>       0.37500000       0.87500000       0.62500000 </v>
   <v>       0.87500000       0.37500000       0.12500000 </v>
   <v>       0.87500000       0.37500000       0.62500000 </v>
   <v>       0.87500000       0.87500000       0.12500000 </v>
   <v>       0.87500000       0.87500000       0.62500000 </v>
   <v>       0.12500000       0.37500000       0.37500000 </v>
   <v>       0.12500000       0.37500000       0.87500000 </v>
   <v>       0.12500000       0.87500000       0.37500000 </v>
   <v>       0.12500000       0.87500000       0.87500000 </v>
   <v>       0.62500000       0.37500000       0.37500000 </v>
   <v>       0.62500000       0.37500000       0.87500000 </v>
   <v>       0.62500000       0.87500000       0.37500000 </v>
   <v>       0.62500000       0.87500000       0.87500000 </v>
  </varray>
 </structure>
</modeling>
