GaAs                                    
   4.50000000000000     
     1.225749   -0.000000    0.000000
     0.000000    1.225749    0.000000
     0.000000   -0.000000    1.225749
   As   Ga
     4     4
Direct
  0.000000  0.000000  0.000000
  0.500000  0.500000  0.000000
  0.500000  0.000000  0.500000
  0.000000  0.500000  0.500000
  0.250000  0.250000  0.250000
  0.750000  0.250000  0.750000
  0.750000  0.750000  0.250000
  0.250000  0.750000  0.750000
 
   56   56   56
 -63.071     -54.186     -29.803      4.0779      39.772      70.238      90.785      99.701      97.959      88.388    
  74.704      60.619      48.457      38.369      30.172      23.646      18.548      14.620      11.614      9.3147    
  7.5567      6.2178      5.2085      4.4599      3.9167      3.5348      3.2815      3.1362      3.0886      3.1362    
  3.2815      3.5348      3.9167      4.4599      5.2085      6.2178      7.5567      9.3147      11.614      14.620    
  18.548      23.646      30.172      38.369      48.457      60.619      74.704      88.388      97.959      99.701    
  90.785      70.238      39.772      4.0779     -29.803     -54.186     -54.186     -45.679     -22.345      10.034    
  44.056      72.941      92.175      100.13      97.794      87.936      74.206      60.229      48.188      38.194    
  30.068      23.594      18.533      14.630      11.640      9.3512      7.5990      6.2634      5.2558      4.5079    
  3.9648      3.5828      3.3293      3.1838      3.1362      3.1838      3.3293      3.5828      3.9648      4.5079    
  5.2558      6.2634      7.5990      9.3512      11.640      14.630      18.533      23.594      30.068      38.194    
  48.188      60.229      74.206      87.936      97.794      100.13      92.175      72.941      44.056      10.034    
 -22.345     -45.679     -29.803     -22.345     -1.9285      26.279      55.656      80.148      95.748      101.07    
  97.103      86.501      72.700      59.073      47.391      37.675      29.758      23.439      18.489      14.661    
  11.720      9.4616      7.7275      6.4021      5.3999      4.6545      4.1121      3.7296      3.4754      3.3293    
  3.2815      3.3293      3.4754      3.7296      4.1121      4.6545      5.3999      6.4021      7.7275      9.4616    
  11.720      14.661      18.489      23.439      29.758      37.675      47.391      59.073      72.700      86.501    
  97.103      101.07      95.748      80.148      55.656      26.279     -1.9285     -22.345      4.0779      10.034    
  26.279      48.518      71.259      89.489      99.935      101.57      95.397      83.892      70.175      57.192    
  46.092      36.825      29.251      23.187      18.419      14.717      11.857      9.6499      7.9470      6.6401    
  5.6483      4.9081      4.3674      3.9847      3.7296      3.5828      3.5348      3.5828      3.7296      3.9847    
  4.3674      4.9081      5.6483      6.6401      7.9470      9.6499      11.857      14.717      18.419      23.187    
  29.251      36.825      46.092      57.192      70.175      83.892      95.397      101.57      99.935      89.489    
  71.259      48.518      26.279      10.034      39.772      44.056      55.656      71.259      86.633      97.949    
  102.77      100.48      92.125      79.951      66.700      54.661      44.336      35.675      28.565      22.848    
  18.331      14.801      12.057      9.9234      8.2673      6.9896      6.0155      5.2851      4.7489      4.3674    
  4.1121      3.9648      3.9167      3.9648      4.1121      4.3674      4.7489      5.2851      6.0155      6.9896    
  8.2673      9.9234      12.057      14.801      18.331      22.848      28.565      35.675      44.336      54.661    
  66.700      79.951      92.125      100.48      102.77      97.949      86.633      71.259      55.656      44.056    
  70.238      72.941      80.148      89.489      97.949      102.84      102.56      96.900      86.952      74.708    
  62.473      51.589      42.194      34.268      27.727      22.440      18.235      14.925      12.329      10.295    
  8.7050      7.4708      6.5249      5.8118      5.2851      4.9081      4.6545      4.5079      4.4599      4.5079    
  4.6545      4.9081      5.2851      5.8118      6.5249      7.4708      8.7050      10.295      12.329      14.925    
  18.235      22.440      27.727      34.268      42.194      51.589      62.473      74.708      86.952      96.900    
  102.56      102.84      97.949      89.489      80.148      72.941      90.785      92.175      95.748      99.935    
  102.77      102.56      98.429      90.529      79.972      68.491      57.716      48.109      39.757      32.665    
  26.778      21.989      18.152      15.104      12.692      10.786      9.2846      8.1129      7.2099      6.5249    
  6.0155      5.6483      5.3999      5.2558      5.2085      5.2558      5.3999      5.6483      6.0155      6.5249    
  7.2099      8.1129      9.2846      10.786      12.692      15.104      18.152      21.989      26.778      32.665    
  39.757      48.109      57.716      68.491      79.972      90.529      98.429      102.56      102.77      99.935    
  95.748      92.175      99.701      100.13      101.07      101.57      100.48      96.900      90.529      81.795    
  71.779      61.843      52.646      44.376      37.131      30.938      25.765      21.528      18.105      15.361    
  13.169      11.423      10.039      8.9538      8.1129      7.4708      6.9896      6.6401      6.4021      6.2634    
  6.2178      6.2634      6.4021      6.6401      6.9896      7.4708      8.1129      8.9538      10.039      11.423    
  13.169      15.361      18.105      21.528      25.765      30.938      37.131      44.376      52.646      61.843    
  71.779      81.795      90.529      96.900      100.48      101.57      101.07      100.13      97.959      97.794    
  97.103      95.397      92.125      86.952      79.972      71.779      63.302      55.118      47.476      40.545    
  34.429      29.167      24.746      21.098      18.127      15.725      13.791      12.242      11.009      10.039    
  9.2846      8.7050      8.2673      7.9470      7.7275      7.5990      7.5567      7.5990      7.7275      7.9470    
  8.2673      8.7050      9.2846      10.039      11.009      12.242      13.791      15.725      18.127      21.098    
  24.746      29.167      34.429      40.545      47.476      55.118      63.302      71.779      79.972      86.952    
  92.125      95.397      97.103      97.794      88.388      87.936      86.501      83.892      79.951      74.708    
  68.491      61.843      55.118      48.569      42.401      36.765      31.760      27.432      23.775      20.740    
  18.253      16.230      14.595      13.284      12.242      11.423      10.786      10.295      9.9234      9.6499    
  9.4616      9.3512      9.3147      9.3512      9.4616      9.6499      9.9234      10.295      10.786      11.423    
  12.242      13.284      14.595      16.230      18.253      20.740      23.775      27.432      31.760      36.765    
  42.401      48.569      55.118      61.843      68.491      74.708      79.951      83.892      86.501      87.936    
  74.704      74.206      72.700      70.175      66.700      62.473      57.716      52.646      47.476      42.401    
  37.588      33.166      29.225      25.805      22.908      20.497      18.519      16.912      15.621      14.595    
  13.791      13.169      12.692      12.329      12.057      11.857      11.720      11.640      11.614      11.640    
  11.720      11.857      12.057      12.329      12.692      13.169      13.791      14.595      15.621      16.912    
  18.519      20.497      22.908      25.805      29.225      33.166      37.588      42.401      47.476      52.646    
  57.716      62.473      66.700      70.175      72.700      74.206      60.619      60.229      59.073      57.192    
  54.661      51.589      48.109      44.376      40.545      36.765      33.166      29.855      26.903      24.347    
  22.188      20.406      18.960      17.809      16.912      16.230      15.725      15.361      15.104      14.925    
  14.801      14.717      14.661      14.630      14.620      14.630      14.661      14.717      14.801      14.925    
  15.104      15.361      15.725      16.230      16.912      17.809      18.960      20.406      22.188      24.347    
  26.903      29.855      33.166      36.765      40.545      44.376      48.109      51.589      54.661      57.192    
  59.073      60.229      48.457      48.188      47.391      46.092      44.336      42.194      39.757      37.131    
  34.429      31.760      29.225      26.903      24.851      23.100      21.652      20.497      19.609      18.960    
  18.519      18.253      18.127      18.105      18.152      18.235      18.331      18.419      18.489      18.533    
  18.548      18.533      18.489      18.419      18.331      18.235      18.152      18.105      18.127      18.253    
  18.519      18.960      19.609      20.497      21.652      23.100      24.851      26.903      29.225      31.760    
  34.429      37.131      39.757      42.194      44.336      46.092      47.391      48.188      38.369      38.194    
  37.675      36.825      35.675      34.268      32.665      30.938      29.167      27.432      25.805      24.347    
  23.100      22.089      21.322      20.796      20.497      20.406      20.497      20.740      21.098      21.528    
  21.989      22.440      22.848      23.187      23.439      23.594      23.646      23.594      23.439      23.187    
  22.848      22.440      21.989      21.528      21.098      20.740      20.497      20.406      20.497      20.796    
  21.322      22.089      23.100      24.347      25.805      27.432      29.167      30.938      32.665      34.268    
  35.675      36.825      37.675      38.194      30.172      30.068      29.758      29.251      28.565      27.727    
  26.778      25.765      24.746      23.775      22.908      22.188      21.652      21.322      21.211      21.322    
  21.652      22.188      22.908      23.775      24.746      25.765      26.778      27.727      28.565      29.251    
  29.758      30.068      30.172      30.068      29.758      29.251      28.565      27.727      26.778      25.765    
  24.746      23.775      22.908      22.188      21.652      21.322      21.211      21.322      21.652      22.188    
  22.908      23.775      24.746      25.765      26.778      27.727      28.565      29.251      29.758      30.068    
  23.646      23.594      23.439      23.187      22.848      22.440      21.989      21.528      21.098      20.740    
  20.497      20.406      20.497      20.796      21.322      22.089      23.100      24.347      25.805      27.432    
  29.167      30.938      32.665      34.268      35.675      36.825      37.675      38.194      38.369      38.194    
  37.675      36.825      35.675      34.268      32.665      30.938      29.167      27.432      25.805      24.347    
  23.100      22.089      21.322      20.796      20.497      20.406      20.497      20.740      21.098      21.528    
  21.989      22.440      22.848      23.187      23.439      23.594      18.548      18.533      18.489      18.419    
  18.331      18.235      18.152      18.105      18.127      18.253      18.519      18.960      19.609      20.497    
  21.652      23.100      24.851      26.903      29.225      31.760      34.429      37.131      39.757      42.194    
  44.336      46.092      47.391      48.188      48.457      48.188      47.391      46.092      44.336      42.194    
  39.757      37.131      34.429      31.760      29.225      26.903      24.851      23.100      21.652      20.497    
  19.609      18.960      18.519      18.253      18.127      18.105      18.152      18.235      18.331      18.419    
  18.489      18.533      14.620      14.630      14.661      14.717      14.801      14.925      15.104      15.361    
  15.725      16.230      16.912      17.809      18.960      20.406      22.188      24.347      26.903      29.855    
  33.166      36.765      40.545      44.376      48.109      51.589      54.661      57.192      59.073      60.229    
  60.619      60.229      59.073      57.192      54.661      51.589      48.109      44.376      40.545      36.765    
  33.166      29.855      26.903      24.347      22.188      20.406      18.960      17.809      16.912      16.230    
  15.725      15.361      15.104      14.925      14.801      14.717      14.661      14.630      11.614      11.640    
  11.720      11.857      12.057      12.329      12.692      13.169      13.791      14.595      15.621      16.912    
  18.519      20.497      22.908      25.805      29.225      33.166      37.588      42.401      47.476      52.646    
  57.716      62.473      66.700      70.175      72.700      74.206      74.704      74.206      72.700      70.175    
  66.700      62.473      57.716      52.646      47.476      42.401      37.588      33.166      29.225      25.805    
  22.908      20.497      18.519      16.912      15.621      14.595      13.791      13.169      12.692      12.329    
  12.057      11.857      11.720      11.640      9.3147      9.3512      9.4616      9.6499      9.9234      10.295    
  10.786      11.423      12.242      13.284      14.595      16.230      18.253      20.740      23.775      27.432    
  31.760      36.765      42.401      48.569      55.118      61.843      68.491      74.708      79.951      83.892    
  86.501      87.936      88.388      87.936      86.501      83.892      79.951      74.708      68.491      61.843    
  55.118      48.569      42.401      36.765      31.760      27.432      23.775      20.740      18.253      16.230    
  14.595      13.284      12.242      11.423      10.786      10.295      9.9234      9.6499      9.4616      9.3512    
  7.5567      7.5990      7.7275      7.9470      8.2673      8.7050      9.2846      10.039      11.009      12.242    
  13.791      15.725      18.127      21.098      24.746      29.167      34.429      40.545      47.476      55.118    
  63.302      71.779      79.972      86.952      92.125      95.397      97.103      97.794      97.959      97.794    
  97.103      95.397      92.125      86.952      79.972      71.779      63.302      55.118      47.476      40.545    
  34.429      29.167      24.746      21.098      18.127      15.725      13.791      12.242      11.009      10.039    
  9.2846      8.7050      8.2673      7.9470      7.7275      7.5990      6.2178      6.2634      6.4021      6.6401    
  6.9896      7.4708      8.1129      8.9538      10.039      11.423      13.169      15.361      18.105      21.528    
  25.765      30.938      37.131      44.376      52.646      61.843      71.779      81.795      90.529      96.900    
  100.48      101.57      101.07      100.13      99.701      100.13      101.07      101.57      100.48      96.900    
  90.529      81.795      71.779      61.843      52.646      44.376      37.131      30.938      25.765      21.528    
  18.105      15.361      13.169      11.423      10.039      8.9538      8.1129      7.4708      6.9896      6.6401    
  6.4021      6.2634      5.2085      5.2558      5.3999      5.6483      6.0155      6.5249      7.2099      8.1129    
  9.2846      10.786      12.692      15.104      18.152      21.989      26.778      32.665      39.757      48.109    
  57.716      68.491      79.972      90.529      98.429      102.56      102.77      99.935      95.748      92.175    
  90.785      92.175      95.748      99.935      102.77      102.56      98.429      90.529      79.972      68.491    
  57.716      48.109      39.757      32.665      26.778      21.989      18.152      15.104      12.692      10.786    
  9.2846      8.1129      7.2099      6.5249      6.0155      5.6483      5.3999      5.2558      4.4599      4.5079    
  4.6545      4.9081      5.2851      5.8118      6.5249      7.4708      8.7050      10.295      12.329      14.925    
  18.235      22.440      27.727      34.268      42.194      51.589      62.473      74.708      86.952      96.900    
  102.56      102.84      97.949      89.489      80.148      72.941      70.238      72.941      80.148      89.489    
  97.949      102.84      102.56      96.900      86.952      74.708      62.473      51.589      42.194      34.268    
  27.727      22.440      18.235      14.925      12.329      10.295      8.7050      7.4708      6.5249      5.8118    
  5.2851      4.9081      4.6545      4.5079      3.9167      3.9648      4.1121      4.3674      4.7489      5.2851    
  6.0155      6.9896      8.2673      9.9234      12.057      14.801      18.331      22.848      28.565      35.675    
  44.336      54.661      66.700      79.951      92.125      100.48      102.77      97.949      86.633      71.259    
  55.656      44.056      39.772      44.056      55.656      71.259      86.633      97.949      102.77      100.48    
  92.125      79.951      66.700      54.661      44.336      35.675      28.565      22.848      18.331      14.801    
  12.057      9.9234      8.2673      6.9896      6.0155      5.2851      4.7489      4.3674      4.1121      3.9648    
  3.5348      3.5828      3.7296      3.9847      4.3674      4.9081      5.6483      6.6401      7.9470      9.6499    
  11.857      14.717      18.419      23.187      29.251      36.825      46.092      57.192      70.175      83.892    
  95.397      101.57      99.935      89.489      71.259      48.518      26.279      10.034      4.0779      10.034    
  26.279      48.518      71.259      89.489      99.935      101.57      95.397      83.892      70.175      57.192    
  46.092      36.825      29.251      23.187      18.419      14.717      11.857      9.6499      7.9470      6.6401    
  5.6483      4.9081      4.3674      3.9847      3.7296      3.5828      3.2815      3.3293      3.4754      3.7296    
  4.1121      4.6545      5.3999      6.4021      7.7275      9.4616      11.720      14.661      18.489      23.439    
  29.758      37.675      47.391      59.073      72.700      86.501      97.103      101.07      95.748      80.148    
  55.656      26.279     -1.9285     -22.345     -29.803     -22.345     -1.9285      26.279      55.656      80.148    
  95.748      101.07      97.103      86.501      72.700      59.073      47.391      37.675      29.758      23.439    
  18.489      14.661      11.720      9.4616      7.7275      6.4021      5.3999      4.6545      4.1121      3.7296    
  3.4754      3.3293      3.1362      3.1838      3.3293      3.5828      3.9648      4.5079      5.2558      6.2634    
  7.5990      9.3512      11.640      14.630      18.533      23.594      30.068      38.194      48.188      60.229    
  74.206      87.936      97.794      100.13      92.175      72.941      44.056      10.034     -22.345     -45.679    
 -54.186     -45.679     -22.345      10.034      44.056      72.941      92.175      100.13      97.794      87.936    
  74.206      60.229      48.188      38.194      30.068      23.594      18.533      14.630      11.640      9.3512    
  7.5990      6.2634      5.2558      4.5079      3.9648      3.5828      3.3293      3.1838      3.0886      3.1362    
  3.2815      3.5348      3.9167      4.4599      5.2085      6.2178      7.5567      9.3147      11.614      14.620    
  18.548      23.646      30.172      38.369      48.457      60.619      74.704      88.388      97.959      99.701    
  90.785      70.238      39.772      4.0779     -29.803     -54.186     -63.071     -54.186     -29.803      4.0779    
  39.772      70.238      90.785      99.701      97.959      88.388      74.704      60.619      48.457      38.369    
  30.172      23.646      18.548      14.620      11.614      9.3147      7.5567      6.2178      5.2085      4.4599    
  3.9167      3.5348      3.2815      3.1362      3.1362      3.1838      3.3293      3.5828      3.9648      4.5079    
  5.2558      6.2634      7.5990      9.3512      11.640      14.630      18.533      23.594      30.068      38.194    
  48.188      60.229      74.206      87.936      97.794      100.13      92.175      72.941      44.056      10.034    
 -22.345     -45.679     -54.186     -45.679     -22.345      10.034      44.056      72.941      92.175      100.13    
  97.794      87.936      74.206      60.229      48.188      38.194      30.068      23.594      18.533      14.630    
  11.640      9.3512      7.5990      6.2634      5.2558      4.5079      3.9648      3.5828      3.3293      3.1838    
  3.2815      3.3293      3.4754      3.7296      4.1121      4.6545      5.3999      6.4021      7.7275      9.4616    
  11.720      14.661      18.489      23.439      29.758      37.675      47.391      59.073      72.700      86.501    
  97.103      101.07      95.748      80.148      55.656      26.279     -1.9285     -22.345     -29.803     -22.345    
 -1.9285      26.279      55.656      80.148      95.748      101.07      97.103      86.501      72.700      59.073    
  47.391      37.675      29.758      23.439      18.489      14.661      11.720      9.4616      7.7275      6.4021    
  5.3999      4.6545      4.1121      3.7296      3.4754      3.3293      3.5348      3.5828      3.7296      3.9847    
  4.3674      4.9081      5.6483      6.6401      7.9470      9.6499      11.857      14.717      18.419      23.187    
  29.251      36.825      46.092      57.192      70.175      83.892      95.397      101.57      99.935      89.489    
  71.259      48.518      26.279      10.034      4.0779      10.034      26.279      48.518      71.259      89.489    
  99.935      101.57      95.397      83.892      70.175      57.192      46.092      36.825      29.251      23.187    
  18.419      14.717      11.857      9.6499      7.9470      6.6401      5.6483      4.9081      4.3674      3.9847    
  3.7296      3.5828      3.9167      3.9648      4.1121      4.3674      4.7489      5.2851      6.0155      6.9896    
  8.2673      9.9234      12.057      14.801      18.331      22.848      28.565      35.675      44.336      54.661    
  66.700      79.951      92.125      100.48      102.77      97.949      86.633      71.259      55.656      44.056    
  39.772      44.056      55.656      71.259      86.633      97.949      102.77      100.48      92.125      79.951    
  66.700      54.661      44.336      35.675      28.565      22.848      18.331      14.801      12.057      9.9234    
  8.2673      6.9896      6.0155      5.2851      4.7489      4.3674      4.1121      3.9648      4.4599      4.5079    
  4.6545      4.9081      5.2851      5.8118      6.5249      7.4708      8.7050      10.295      12.329      14.925    
  18.235      22.440      27.727      34.268      42.194      51.589      62.473      74.708      86.952      96.900    
  102.56      102.84      97.949      89.489      80.148      72.941      70.238      72.941      80.148      89.489    
  97.949      102.84      102.56      96.900      86.952      74.708      62.473      51.589      42.194      34.268    
  27.727      22.440      18.235      14.925      12.329      10.295      8.7050      7.4708      6.5249      5.8118    
  5.2851      4.9081      4.6545      4.5079      5.2085      5.2558      5.3999      5.6483      6.0155      6.5249    
  7.2099      8.1129      9.2846      10.786      12.692      15.104      18.152      21.989      26.778      32.665    
  39.757      48.109      57.716      68.491      79.972      90.529      98.429      102.56      102.77      99.935    
  95.748      92.175      90.785      92.175      95.748      99.935      102.77      102.56      98.429      90.529    
  79.972      68.491      57.716      48.109      39.757      32.665      26.778      21.989      18.152      15.104    
  12.692      10.786      9.2846      8.1129      7.2099      6.5249      6.0155      5.6483      5.3999      5.2558    
  6.2178      6.2634      6.4021      6.6401      6.9896      7.4708      8.1129      8.9538      10.039      11.423    
  13.169      15.361      18.105      21.528      25.765      30.938      37.131      44.376      52.646      61.843    
  71.779      81.795      90.529      96.900      100.48      101.57      101.07      100.13      99.701      100.13    
  101.07      101.57      100.48      96.900      90.529      81.795      71.779      61.843      52.646      44.376    
  37.131      30.938      25.765      21.528      18.105      15.361      13.169      11.423      10.039      8.9538    
  8.1129      7.4708      6.9896      6.6401      6.4021      6.2634      7.5567      7.5990      7.7275      7.9470    
  8.2673      8.7050      9.2846      10.039      11.009      12.242      13.791      15.725      18.127      21.098    
  24.746      29.167      34.429      40.545      47.476      55.118      63.302      71.779      79.972      86.952    
  92.125      95.397      97.103      97.794      97.959      97.794      97.103      95.397      92.125      86.952    
  79.972      71.779      63.302      55.118      47.476      40.545      34.429      29.167      24.746      21.098    
  18.127      15.725      13.791      12.242      11.009      10.039      9.2846      8.7050      8.2673      7.9470    
  7.7275      7.5990      9.3147      9.3512      9.4616      9.6499      9.9234      10.295      10.786      11.423    
  12.242      13.284      14.595      16.230      18.253      20.740      23.775      27.432      31.760      36.765    
  42.401      48.569      55.118      61.843      68.491      74.708      79.951      83.892      86.501      87.936    
  88.388      87.936      86.501      83.892      79.951      74.708      68.491      61.843      55.118      48.569    
  42.401      36.765      31.760      27.432      23.775      20.740      18.253      16.230      14.595      13.284    
  12.242      11.423      10.786      10.295      9.9234      9.6499      9.4616      9.3512      11.614      11.640    
  11.720      11.857      12.057      12.329      12.692      13.169      13.791      14.595      15.621      16.912    
  18.519      20.497      22.908      25.805      29.225      33.166      37.588      42.401      47.476      52.646    
  57.716      62.473      66.700      70.175      72.700      74.206      74.704      74.206      72.700      70.175    
  66.700      62.473      57.716      52.646      47.476      42.401      37.588      33.166      29.225      25.805    
  22.908      20.497      18.519      16.912      15.621      14.595      13.791      13.169      12.692      12.329    
  12.057      11.857      11.720      11.640      14.620      14.630      14.661      14.717      14.801      14.925    
  15.104      15.361      15.725      16.230      16.912      17.809      18.960      20.406      22.188      24.347    
  26.903      29.855      33.166      36.765      40.545      44.376      48.109      51.589      54.661      57.192    
  59.073      60.229      60.619      60.229      59.073      57.192      54.661      51.589      48.109      44.376    
  40.545      36.765      33.166      29.855      26.903      24.347      22.188      20.406      18.960      17.809    
  16.912      16.230      15.725      15.361      15.104      14.925      14.801      14.717      14.661      14.630    
  18.548      18.533      18.489      18.419      18.331      18.235      18.152      18.105      18.127      18.253    
  18.519      18.960      19.609      20.497      21.652      23.100      24.851      26.903      29.225      31.760    
  34.429      37.131      39.757      42.194      44.336      46.092      47.391      48.188      48.457      48.188    
  47.391      46.092      44.336      42.194      39.757      37.131      34.429      31.760      29.225      26.903    
  24.851      23.100      21.652      20.497      19.609      18.960      18.519      18.253      18.127      18.105    
  18.152      18.235      18.331      18.419      18.489      18.533      23.646      23.594      23.439      23.187    
  22.848      22.440      21.989      21.528      21.098      20.740      20.497      20.406      20.497      20.796    
  21.322      22.089      23.100      24.347      25.805      27.432      29.167      30.938      32.665      34.268    
  35.675      36.825      37.675      38.194      38.369      38.194      37.675      36.825      35.675      34.268    
  32.665      30.938      29.167      27.432      25.805      24.347      23.100      22.089      21.322      20.796    
  20.497      20.406      20.497      20.740      21.098      21.528      21.989      22.440      22.848      23.187    
  23.439      23.594      30.172      30.068      29.758      29.251      28.565      27.727      26.778      25.765    
  24.746      23.775      22.908      22.188      21.652      21.322      21.211      21.322      21.652      22.188    
  22.908      23.775      24.746      25.765      26.778      27.727      28.565      29.251      29.758      30.068    
  30.172      30.068      29.758      29.251      28.565      27.727      26.778      25.765      24.746      23.775    
  22.908      22.188      21.652      21.322      21.211      21.322      21.652      22.188      22.908      23.775    
  24.746      25.765      26.778      27.727      28.565      29.251      29.758      30.068      38.369      38.194    
  37.675      36.825      35.675      34.268      32.665      30.938      29.167      27.432      25.805      24.347    
  23.100      22.089      21.322      20.796      20.497      20.406      20.497      20.740      21.098      21.528    