GaAs                                    
   4.50000000000000     
     1.229868   -0.000000    0.000000
     0.000000    1.229868    0.000000
     0.000000   -0.000000    1.229868
   As   Ga
     4     4
Direct
  0.000000  0.000000  0.000000
  0.500000  0.500000  0.000000
  0.500000  0.000000  0.500000
  0.000000  0.500000  0.500000
  0.250000  0.250000  0.250000
  0.750000  0.250000  0.750000
  0.750000  0.750000  0.250000
  0.250000  0.750000  0.750000
 
   56   56   56
 -.63545796407E+02 -.54452865922E+02 -.29525999068E+02 0.50326699173E+01 0.41306797697E+02
 0.72086554329E+02 0.92614640426E+02 0.10122074830E+03 0.98988763725E+02 0.88891422914E+02
 0.74786318586E+02 0.60480729254E+02 0.48216608489E+02 0.38082721582E+02 0.29879312985E+02
 0.23371962591E+02 0.18304184691E+02 0.14409370927E+02 0.11433857510E+02 0.91615378827E+01
 0.74258178154E+01 0.61052625510E+01 0.51107730944E+01 0.43737575658E+01 0.38392581845E+01
 0.34635349213E+01 0.32143157636E+01 0.30712821687E+01 0.30245152230E+01 0.30712821687E+01
 0.32143157636E+01 0.34635349213E+01 0.38392581845E+01 0.43737575658E+01 0.51107730944E+01
 0.61052625510E+01 0.74258178154E+01 0.91615378827E+01 0.11433857510E+02 0.14409370927E+02
 0.18304184691E+02 0.23371962591E+02 0.29879312985E+02 0.38082721582E+02 0.48216608489E+02
 0.60480729254E+02 0.74786318586E+02 0.88891422914E+02 0.98988763725E+02 0.10122074830E+03
 0.92614640426E+02 0.72086554329E+02 0.41306797697E+02 0.50326699173E+01 -.29525999068E+02
 -.54452865922E+02 -.54452865922E+02 -.45751179768E+02 -.21910619656E+02 0.11096938933E+02
 0.45648819788E+02 0.74804361840E+02 0.93991486117E+02 0.10162504489E+03 0.98791532583E+02
 0.88413740416E+02 0.74272739628E+02 0.60085073441E+02 0.47945512754E+02 0.37907043755E+02
 0.29775188283E+02 0.23320266813E+02 0.18289571127E+02 0.14419776664E+02 0.11460301394E+02
 0.91977775361E+01 0.74677691189E+01 0.61503717104E+01 0.51574906508E+01 0.44211426139E+01
 0.38867346478E+01 0.35108026286E+01 0.32613158688E+01 0.31181050328E+01 0.30712821687E+01
 0.31181050328E+01 0.32613158688E+01 0.35108026286E+01 0.38867346478E+01 0.44211426139E+01
 0.51574906508E+01 0.61503717104E+01 0.74677691189E+01 0.91977775361E+01 0.11460301394E+02
 0.14419776664E+02 0.18289571127E+02 0.23320266813E+02 0.29775188283E+02 0.37907043755E+02
 0.47945512754E+02 0.60085073441E+02 0.74272739628E+02 0.88413740416E+02 0.98791532583E+02
 0.10162504489E+03 0.93991486117E+02 0.74804361840E+02 0.45648819788E+02 0.11096938933E+02
 -.21910619656E+02 -.45751179768E+02 -.29525999068E+02 -.21910619656E+02 -.10862420949E+01
 0.27614805782E+02 0.57386224903E+02 0.82037137620E+02 0.97513631389E+02 0.10247128459E+03
 0.98006470042E+02 0.86902418657E+02 0.72722715425E+02 0.58912521516E+02 0.47140901778E+02
 0.37384983333E+02 0.29465656927E+02 0.23166864857E+02 0.18246837718E+02 0.14451900448E+02
 0.11540600698E+02 0.93077022549E+01 0.75951723896E+01 0.62876236183E+01 0.52999003396E+01
 0.45657992674E+01 0.40318183103E+01 0.36553380552E+01 0.34050695275E+01 0.32613158688E+01
 0.32143157636E+01 0.32613158688E+01 0.34050695275E+01 0.36553380552E+01 0.40318183103E+01
 0.45657992674E+01 0.52999003396E+01 0.62876236183E+01 0.75951723896E+01 0.93077022549E+01
 0.11540600698E+02 0.14451900448E+02 0.18246837718E+02 0.23166864857E+02 0.29465656927E+02
 0.37384983333E+02 0.47140901778E+02 0.58912521516E+02 0.72722715425E+02 0.86902418657E+02
 0.98006470042E+02 0.10247128459E+03 0.97513631389E+02 0.82037137620E+02 0.57386224903E+02
 0.27614805782E+02 -.10862420949E+01 -.21910619656E+02 0.50326699173E+01 0.11096938933E+02
 0.27614805782E+02 0.50168431538E+02 0.73121249588E+02 0.91361351720E+02 0.10158698071E+03
 0.10280987488E+03 0.96147011401E+02 0.84177674566E+02 0.70137809238E+02 0.57008043385E+02
 0.45830278306E+02 0.36532715725E+02 0.28960175822E+02 0.22917398490E+02 0.18179635977E+02
 0.14508665810E+02 0.11677857486E+02 0.94952054405E+01 0.78130655046E+01 0.65233075889E+01
 0.55454332852E+01 0.48160696331E+01 0.42835230597E+01 0.39066213865E+01 0.36553380552E+01
 0.35108026286E+01 0.34635349213E+01 0.35108026286E+01 0.36553380552E+01 0.39066213865E+01
 0.42835230597E+01 0.48160696331E+01 0.55454332852E+01 0.65233075889E+01 0.78130655046E+01
 0.94952054405E+01 0.11677857486E+02 0.14508665810E+02 0.18179635977E+02 0.22917398490E+02
 0.28960175822E+02 0.36532715725E+02 0.45830278306E+02 0.57008043385E+02 0.70137809238E+02
 0.84177674566E+02 0.96147011401E+02 0.10280987488E+03 0.10158698071E+03 0.91361351720E+02
 0.73121249588E+02 0.50168431538E+02 0.27614805782E+02 0.11096938933E+02 0.41306797697E+02
 0.45648819788E+02 0.57386224903E+02 0.73121249588E+02 0.88526847251E+02 0.99707522685E+02
 0.10422025643E+03 0.10149304985E+03 0.92672845321E+02 0.80097711615E+02 0.66602695962E+02
 0.54450176457E+02 0.44062943135E+02 0.35380358821E+02 0.28276944150E+02 0.22582904200E+02
 0.18095098296E+02 0.14595732699E+02 0.11878065125E+02 0.97678228225E+01 0.81311849127E+01
 0.68695440948E+01 0.59084214100E+01 0.51881500127E+01 0.46595489952E+01 0.42835230597E+01
 0.40318183103E+01 0.38867346478E+01 0.38392581845E+01 0.38867346478E+01 0.40318183103E+01
 0.42835230597E+01 0.46595489952E+01 0.51881500127E+01 0.59084214100E+01 0.68695440948E+01
 0.81311849127E+01 0.97678228225E+01 0.11878065125E+02 0.14595732699E+02 0.18095098296E+02
 0.22582904200E+02 0.28276944150E+02 0.35380358821E+02 0.44062943135E+02 0.54450176457E+02
 0.66602695962E+02 0.80097711615E+02 0.92672845321E+02 0.10149304985E+03 0.10422025643E+03
 0.99707522685E+02 0.88526847251E+02 0.73121249588E+02 0.57386224903E+02 0.45648819788E+02
 0.72086554329E+02 0.74804361840E+02 0.82037137620E+02 0.91361351720E+02 0.99707522685E+02
 0.10435954598E+03 0.10371931925E+03 0.97632142234E+02 0.87272910548E+02 0.74718189282E+02
 0.62323686882E+02 0.51350841027E+02 0.41911347168E+02 0.33973929092E+02 0.27444749750E+02
 0.22181347863E+02 0.18005177551E+02 0.14722835526E+02 0.12151585632E+02 0.10138397546E+02
 0.85657857380E+01 0.73461929362E+01 0.64120368235E+01 0.57080180515E+01 0.51881500127E+01
 0.48160696331E+01 0.45657992674E+01 0.44211426139E+01 0.43737575658E+01 0.44211426139E+01
 0.45657992674E+01 0.48160696331E+01 0.51881500127E+01 0.57080180515E+01 0.64120368235E+01
 0.73461929362E+01 0.85657857380E+01 0.10138397546E+02 0.12151585632E+02 0.14722835526E+02
 0.18005177551E+02 0.22181347863E+02 0.27444749750E+02 0.33973929092E+02 0.41911347168E+02
 0.51350841027E+02 0.62323686882E+02 0.74718189282E+02 0.87272910548E+02 0.97632142234E+02
 0.10371931925E+03 0.10435954598E+03 0.99707522685E+02 0.91361351720E+02 0.82037137620E+02
 0.74804361840E+02 0.92614640426E+02 0.93991486117E+02 0.97513631389E+02 0.10158698071E+03
 0.10422025643E+03 0.10371931925E+03 0.99226894366E+02 0.90953146805E+02 0.80077609231E+02
 0.68397904873E+02 0.57518748129E+02 0.47849113172E+02 0.39468548914E+02 0.32374690995E+02
 0.26503247959E+02 0.21738474613E+02 0.17927947652E+02 0.14905419745E+02 0.12514952855E+02
 0.10626854860E+02 0.91412174526E+01 0.79821245639E+01 0.70892257168E+01 0.64120368235E+01
 0.59084214100E+01 0.55454332852E+01 0.52999003396E+01 0.51574906508E+01 0.51107730944E+01
 0.51574906508E+01 0.52999003396E+01 0.55454332852E+01 0.59084214100E+01 0.64120368235E+01
 0.70892257168E+01 0.79821245639E+01 0.91412174526E+01 0.10626854860E+02 0.12514952855E+02
 0.14905419745E+02 0.17927947652E+02 0.21738474613E+02 0.26503247959E+02 0.32374690995E+02
 0.39468548914E+02 0.47849113172E+02 0.57518748129E+02 0.68397904873E+02 0.80077609231E+02
 0.90953146805E+02 0.99226894366E+02 0.10371931925E+03 0.10422025643E+03 0.10158698071E+03
 0.97513631389E+02 0.93991486117E+02 0.10122074830E+03 0.10162504489E+03 0.10247128459E+03
 0.10280987488E+03 0.10149304985E+03 0.97632142234E+02 0.90953146805E+02 0.81937276730E+02
 0.71720641226E+02 0.61676888986E+02 0.52408897943E+02 0.44099909973E+02 0.36841812880E+02
 0.30655577538E+02 0.25501243294E+02 0.21287458900E+02 0.17888204232E+02 0.15165732890E+02
 0.12991997982E+02 0.11261006119E+02 0.98902214276E+01 0.88150095059E+01 0.79821245639E+01
 0.73461929362E+01 0.68695440948E+01 0.65233075889E+01 0.62876236183E+01 0.61503717104E+01
 0.61052625510E+01 0.61503717104E+01 0.62876236183E+01 0.65233075889E+01 0.68695440948E+01
 0.73461929362E+01 0.79821245639E+01 0.88150095059E+01 0.98902214276E+01 0.11261006119E+02
 0.12991997982E+02 0.15165732890E+02 0.17888204232E+02 0.21287458900E+02 0.25501243294E+02
 0.30655577538E+02 0.36841812880E+02 0.44099909973E+02 0.52408897943E+02 0.61676888986E+02
 0.71720641226E+02 0.81937276730E+02 0.90953146805E+02 0.97632142234E+02 0.10149304985E+03
 0.10280987488E+03 0.10247128459E+03 0.10162504489E+03 0.98988763725E+02 0.98791532583E+02
 0.98006470042E+02 0.96147011401E+02 0.92672845321E+02 0.87272910548E+02 0.80077609231E+02
 0.71720641226E+02 0.63147912480E+02 0.54895595859E+02 0.47210886912E+02 0.40260997072E+02
 0.34144069369E+02 0.28895578921E+02 0.24493300940E+02 0.20867168639E+02 0.17916749328E+02
 0.15532502158E+02 0.13613434280E+02 0.12075803450E+02 0.10852891459E+02 0.98902214276E+01
 0.91412174526E+01 0.85657857380E+01 0.81311849127E+01 0.78130655046E+01 0.75951723896E+01
 0.74677691189E+01 0.74258178154E+01 0.74677691189E+01 0.75951723896E+01 0.78130655046E+01
 0.81311849127E+01 0.85657857380E+01 0.91412174526E+01 0.98902214276E+01 0.10852891459E+02
 0.12075803450E+02 0.13613434280E+02 0.15532502158E+02 0.17916749328E+02 0.20867168639E+02
 0.24493300940E+02 0.28895578921E+02 0.34144069369E+02 0.40260997072E+02 0.47210886912E+02
 0.54895595859E+02 0.63147912480E+02 0.71720641226E+02 0.80077609231E+02 0.87272910548E+02
 0.92672845321E+02 0.96147011401E+02 0.98006470042E+02 0.98791532583E+02 0.88891422914E+02
 0.88413740416E+02 0.86902418657E+02 0.84177674566E+02 0.80097711615E+02 0.74718189282E+02
 0.68397904873E+02 0.61676888986E+02 0.54895595859E+02 0.48309121271E+02 0.42121056992E+02
 0.36481195092E+02 0.31484988311E+02 0.27173243635E+02 0.23535304120E+02 0.20519200609E+02
 0.18048249110E+02 0.16039107649E+02 0.14415140222E+02 0.13111860910E+02 0.12075803450E+02
 0.11261006119E+02 0.10626854860E+02 0.10138397546E+02 0.97678228225E+01 0.94952054405E+01
 0.93077022549E+01 0.91977775361E+01 0.91615378827E+01 0.91977775361E+01 0.93077022549E+01
 0.94952054405E+01 0.97678228225E+01 0.10138397546E+02 0.10626854860E+02 0.11261006119E+02
 0.12075803450E+02 0.13111860910E+02 0.14415140222E+02 0.16039107649E+02 0.18048249110E+02
 0.20519200609E+02 0.23535304120E+02 0.27173243635E+02 0.31484988311E+02 0.36481195092E+02
 0.42121056992E+02 0.48309121271E+02 0.54895595859E+02 0.61676888986E+02 0.68397904873E+02
 0.74718189282E+02 0.80097711615E+02 0.84177674566E+02 0.86902418657E+02 0.88413740416E+02
 0.74786318586E+02 0.74272739628E+02 0.72722715425E+02 0.70137809238E+02 0.66602695962E+02
 0.62323686882E+02 0.57518748129E+02 0.52408897943E+02 0.47210886912E+02 0.42121056992E+02
 0.37304992416E+02 0.32890557835E+02 0.28962558822E+02 0.25560134609E+02 0.22679636645E+02
 0.20284280402E+02 0.18318376137E+02 0.16721292352E+02 0.15436629214E+02 0.14415140222E+02
 0.13613434280E+02 0.12991997982E+02 0.12514952855E+02 0.12151585632E+02 0.11878065125E+02
 0.11677857486E+02 0.11540600698E+02 0.11460301394E+02 0.11433857510E+02 0.11460301394E+02
 0.11540600698E+02 0.11677857486E+02 0.11878065125E+02 0.12151585632E+02 0.12514952855E+02
 0.12991997982E+02 0.13613434280E+02 0.14415140222E+02 0.15436629214E+02 0.16721292352E+02
 0.18318376137E+02 0.20284280402E+02 0.22679636645E+02 0.25560134609E+02 0.28962558822E+02
 0.32890557835E+02 0.37304992416E+02 0.42121056992E+02 0.47210886912E+02 0.52408897943E+02
 0.57518748129E+02 0.62323686882E+02 0.66602695962E+02 0.70137809238E+02 0.72722715425E+02
 0.74272739628E+02 0.60480729254E+02 0.60085073441E+02 0.58912521516E+02 0.57008043385E+02
 0.54450176457E+02 0.51350841027E+02 0.47849113172E+02 0.44099909973E+02 0.40260997072E+02
 0.36481195092E+02 0.32890557835E+02 0.29592135629E+02 0.26655678261E+02 0.24115005108E+02
 0.21970840481E+02 0.20199035852E+02 0.18761508812E+02 0.17615933051E+02 0.16721292352E+02
 0.16039107649E+02 0.15532502158E+02 0.15165732890E+02 0.14905419745E+02 0.14722835526E+02
 0.14595732699E+02 0.14508665810E+02 0.14451900448E+02 0.14419776664E+02 0.14409370927E+02
 0.14419776664E+02 0.14451900448E+02 0.14508665810E+02 0.14595732699E+02 0.14722835526E+02
 0.14905419745E+02 0.15165732890E+02 0.15532502158E+02 0.16039107649E+02 0.16721292352E+02
 0.17615933051E+02 0.18761508812E+02 0.20199035852E+02 0.21970840481E+02 0.24115005108E+02
 0.26655678261E+02 0.29592135629E+02 0.32890557835E+02 0.36481195092E+02 0.40260997072E+02
 0.44099909973E+02 0.47849113172E+02 0.51350841027E+02 0.54450176457E+02 0.57008043385E+02
 0.58912521516E+02 0.60085073441E+02 0.48216608489E+02 0.47945512754E+02 0.47140901778E+02
 0.45830278306E+02 0.44062943135E+02 0.41911347168E+02 0.39468548914E+02 0.36841812880E+02
 0.34144069369E+02 0.31484988311E+02 0.28962558822E+02 0.26655678261E+02 0.24618743911E+02
 0.22879740462E+02 0.21442753171E+02 0.20294143436E+02 0.19409923563E+02 0.18761508812E+02
 0.18318376137E+02 0.18048249110E+02 0.17916749328E+02 0.17888204232E+02 0.17927947652E+02
 0.18005177551E+02 0.18095098296E+02 0.18179635977E+02 0.18246837718E+02 0.18289571127E+02
 0.18304184691E+02 0.18289571127E+02 0.18246837718E+02 0.18179635977E+02 0.18095098296E+02
 0.18005177551E+02 0.17927947652E+02 0.17888204232E+02 0.17916749328E+02 0.18048249110E+02
 0.18318376137E+02 0.18761508812E+02 0.19409923563E+02 0.20294143436E+02 0.21442753171E+02
 0.22879740462E+02 0.24618743911E+02 0.26655678261E+02 0.28962558822E+02 0.31484988311E+02
 0.34144069369E+02 0.36841812880E+02 0.39468548914E+02 0.41911347168E+02 0.44062943135E+02
 0.45830278306E+02 0.47140901778E+02 0.47945512754E+02 0.38082721582E+02 0.37907043755E+02
 0.37384983333E+02 0.36532715725E+02 0.35380358821E+02 0.33973929092E+02 0.32374690995E+02
 0.30655577538E+02 0.28895578921E+02 0.27173243635E+02 0.25560134609E+02 0.24115005108E+02
 0.22879740462E+02 0.21878138381E+02 0.21117807758E+02 0.20594111371E+02 0.20294143436E+02
 0.20199035852E+02 0.20284280402E+02 0.20519200609E+02 0.20867168639E+02 0.21287458900E+02
 0.21738474613E+02 0.22181347863E+02 0.22582904200E+02 0.22917398490E+02 0.23166864857E+02
 0.23320266813E+02 0.23371962591E+02 0.23320266813E+02 0.23166864857E+02 0.22917398490E+02
 0.22582904200E+02 0.22181347863E+02 0.21738474613E+02 0.21287458900E+02 0.20867168639E+02
 0.20519200609E+02 0.20284280402E+02 0.20199035852E+02 0.20294143436E+02 0.20594111371E+02
 0.21117807758E+02 0.21878138381E+02 0.22879740462E+02 0.24115005108E+02 0.25560134609E+02
 0.27173243635E+02 0.28895578921E+02 0.30655577538E+02 0.32374690995E+02 0.33973929092E+02
 0.35380358821E+02 0.36532715725E+02 0.37384983333E+02 0.37907043755E+02 0.29879312985E+02
 0.29775188283E+02 0.29465656927E+02 0.28960175822E+02 0.28276944150E+02 0.27444749750E+02
 0.26503247959E+02 0.25501243294E+02 0.24493300940E+02 0.23535304120E+02 0.22679636645E+02
 0.21970840481E+02 0.21442753171E+02 0.21117807758E+02 0.21008226444E+02 0.21117807758E+02
 0.21442753171E+02 0.21970840481E+02 0.22679636645E+02 0.23535304120E+02 0.24493300940E+02
 0.25501243294E+02 0.26503247959E+02 0.27444749750E+02 0.28276944150E+02 0.28960175822E+02
 0.29465656927E+02 0.29775188283E+02 0.29879312985E+02 0.29775188283E+02 0.29465656927E+02
 0.28960175822E+02 0.28276944150E+02 0.27444749750E+02 0.26503247959E+02 0.25501243294E+02
 0.24493300940E+02 0.23535304120E+02 0.22679636645E+02 0.21970840481E+02 0.21442753171E+02
 0.21117807758E+02 0.21008226444E+02 0.21117807758E+02 0.21442753171E+02 0.21970840481E+02
 0.22679636645E+02 0.23535304120E+02 0.24493300940E+02 0.25501243294E+02 0.26503247959E+02
 0.27444749750E+02 0.28276944150E+02 0.28960175822E+02 0.29465656927E+02 0.29775188283E+02
 0.23371962591E+02 0.23320266813E+02 0.23166864857E+02 0.22917398490E+02 0.22582904200E+02
 0.22181347863E+02 0.21738474613E+02 0.21287458900E+02 0.20867168639E+02 0.20519200609E+02
 0.20284280402E+02 0.20199035852E+02 0.20294143436E+02 0.20594111371E+02 0.21117807758E+02
 0.21878138381E+02 0.22879740462E+02 0.24115005108E+02 0.25560134609E+02 0.27173243635E+02
 0.28895578921E+02 0.30655577538E+02 0.32374690995E+02 0.33973929092E+02 0.35380358821E+02
 0.36532715725E+02 0.37384983333E+02 0.37907043755E+02 0.38082721582E+02 0.37907043755E+02
 0.37384983333E+02 0.36532715725E+02 0.35380358821E+02 0.33973929092E+02 0.32374690995E+02
 0.30655577538E+02 0.28895578921E+02 0.27173243635E+02 0.25560134609E+02 0.24115005108E+02
 0.22879740462E+02 0.21878138381E+02 0.21117807758E+02 0.20594111371E+02 0.20294143436E+02
 0.20199035852E+02 0.20284280402E+02 0.20519200609E+02 0.20867168639E+02 0.21287458900E+02
 0.21738474613E+02 0.22181347863E+02 0.22582904200E+02 0.22917398490E+02 0.23166864857E+02
 0.23320266813E+02 0.18304184691E+02 0.18289571127E+02 0.18246837718E+02 0.18179635977E+02
 0.18095098296E+02 0.18005177551E+02 0.17927947652E+02 0.17888204232E+02 0.17916749328E+02
 0.18048249110E+02 0.18318376137E+02 0.18761508812E+02 0.19409923563E+02 0.20294143436E+02
 0.21442753171E+02 0.22879740462E+02 0.24618743911E+02 0.26655678261E+02 0.28962558822E+02
 0.31484988311E+02 0.34144069369E+02 0.36841812880E+02 0.39468548914E+02 0.41911347168E+02
 0.44062943135E+02 0.45830278306E+02 0.47140901778E+02 0.47945512754E+02 0.48216608489E+02
 0.47945512754E+02 0.47140901778E+02 0.45830278306E+02 0.44062943135E+02 0.41911347168E+02
 0.39468548914E+02 0.36841812880E+02 0.34144069369E+02 0.31484988311E+02 0.28962558822E+02
 0.26655678261E+02 0.24618743911E+02 0.22879740462E+02 0.21442753171E+02 0.20294143436E+02
 0.19409923563E+02 0.18761508812E+02 0.18318376137E+02 0.18048249110E+02 0.17916749328E+02
 0.17888204232E+02 0.17927947652E+02 0.18005177551E+02 0.18095098296E+02 0.18179635977E+02
 0.18246837718E+02 0.18289571127E+02 0.14409370927E+02 0.14419776664E+02 0.14451900448E+02
 0.14508665810E+02 0.14595732699E+02 0.14722835526E+02 0.14905419745E+02 0.15165732890E+02
 0.15532502158E+02 0.16039107649E+02 0.16721292352E+02 0.17615933051E+02 0.18761508812E+02
 0.20199035852E+02 0.21970840481E+02 0.24115005108E+02 0.26655678261E+02 0.29592135629E+02
 0.32890557835E+02 0.36481195092E+02 0.40260997072E+02 0.44099909973E+02 0.47849113172E+02
 0.51350841027E+02 0.54450176457E+02 0.57008043385E+02 0.58912521516E+02 0.60085073441E+02
 0.60480729254E+02 0.60085073441E+02 0.58912521516E+02 0.57008043385E+02 0.54450176457E+02
 0.51350841027E+02 0.47849113172E+02 0.44099909973E+02 0.40260997072E+02 0.36481195092E+02
 0.32890557835E+02 0.29592135629E+02 0.26655678261E+02 0.24115005108E+02 0.21970840481E+02
 0.20199035852E+02 0.18761508812E+02 0.17615933051E+02 0.16721292352E+02 0.16039107649E+02
 0.15532502158E+02 0.15165732890E+02 0.14905419745E+02 0.14722835526E+02 0.14595732699E+02
 0.14508665810E+02 0.14451900448E+02 0.14419776664E+02 0.11433857510E+02 0.11460301394E+02
 0.11540600698E+02 0.11677857486E+02 0.11878065125E+02 0.12151585632E+02 0.12514952855E+02
 0.12991997982E+02 0.13613434280E+02 0.14415140222E+02 0.15436629214E+02 0.16721292352E+02
 0.18318376137E+02 0.20284280402E+02 0.22679636645E+02 0.25560134609E+02 0.28962558822E+02
 0.32890557835E+02 0.37304992416E+02 0.42121056992E+02 0.47210886912E+02 0.52408897943E+02
 0.57518748129E+02 0.62323686882E+02 0.66602695962E+02 0.70137809238E+02 0.72722715425E+02
 0.74272739628E+02 0.74786318586E+02 0.74272739628E+02 0.72722715425E+02 0.70137809238E+02
 0.66602695962E+02 0.62323686882E+02 0.57518748129E+02 0.52408897943E+02 0.47210886912E+02
 0.42121056992E+02 0.37304992416E+02 0.32890557835E+02 0.28962558822E+02 0.25560134609E+02
 0.22679636645E+02 0.20284280402E+02 0.18318376137E+02 0.16721292352E+02 0.15436629214E+02
 0.14415140222E+02 0.13613434280E+02 0.12991997982E+02 0.12514952855E+02 0.12151585632E+02
 0.11878065125E+02 0.11677857486E+02 0.11540600698E+02 0.11460301394E+02 0.91615378827E+01
 0.91977775361E+01 0.93077022549E+01 0.94952054405E+01 0.97678228225E+01 0.10138397546E+02
 0.10626854860E+02 0.11261006119E+02 0.12075803450E+02 0.13111860910E+02 0.14415140222E+02
 0.16039107649E+02 0.18048249110E+02 0.20519200609E+02 0.23535304120E+02 0.27173243635E+02
 0.31484988311E+02 0.36481195092E+02 0.42121056992E+02 0.48309121271E+02 0.54895595859E+02
 0.61676888986E+02 0.68397904873E+02 0.74718189282E+02 0.80097711615E+02 0.84177674566E+02
 0.86902418657E+02 0.88413740416E+02 0.88891422914E+02 0.88413740416E+02 0.86902418657E+02
 0.84177674566E+02 0.80097711615E+02 0.74718189282E+02 0.68397904873E+02 0.61676888986E+02
 0.54895595859E+02 0.48309121271E+02 0.42121056992E+02 0.36481195092E+02 0.31484988311E+02
 0.27173243635E+02 0.23535304120E+02 0.20519200609E+02 0.18048249110E+02 0.16039107649E+02
 0.14415140222E+02 0.13111860910E+02 0.12075803450E+02 0.11261006119E+02 0.10626854860E+02
 0.10138397546E+02 0.97678228225E+01 0.94952054405E+01 0.93077022549E+01 0.91977775361E+01
 0.74258178154E+01 0.74677691189E+01 0.75951723896E+01 0.78130655046E+01 0.81311849127E+01
 0.85657857380E+01 0.91412174526E+01 0.98902214276E+01 0.10852891459E+02 0.12075803450E+02
 0.13613434280E+02 0.15532502158E+02 0.17916749328E+02 0.20867168639E+02 0.24493300940E+02
 0.28895578921E+02 0.34144069369E+02 0.40260997072E+02 0.47210886912E+02 0.54895595859E+02
 0.63147912480E+02 0.71720641226E+02 0.80077609231E+02 0.87272910548E+02 0.92672845321E+02
 0.96147011401E+02 0.98006470042E+02 0.98791532583E+02 0.98988763725E+02 0.98791532583E+02
 0.98006470042E+02 0.96147011401E+02 0.92672845321E+02 0.87272910548E+02 0.80077609231E+02
 0.71720641226E+02 0.63147912480E+02 0.54895595859E+02 0.47210886912E+02 0.40260997072E+02
 0.34144069369E+02 0.28895578921E+02 0.24493300940E+02 0.20867168639E+02 0.17916749328E+02
 0.15532502158E+02 0.13613434280E+02 0.12075803450E+02 0.10852891459E+02 0.98902214276E+01
 0.91412174526E+01 0.85657857380E+01 0.81311849127E+01 0.78130655046E+01 0.75951723896E+01
 0.74677691189E+01 0.61052625510E+01 0.61503717104E+01 0.62876236183E+01 0.65233075889E+01
 0.68695440948E+01 0.73461929362E+01 0.79821245639E+01 0.88150095059E+01 0.98902214276E+01
 0.11261006119E+02 0.12991997982E+02 0.15165732890E+02 0.17888204232E+02 0.21287458900E+02
 0.25501243294E+02 0.30655577538E+02 0.36841812880E+02 0.44099909973E+02 0.52408897943E+02
 0.61676888986E+02 0.71720641226E+02 0.81937276730E+02 0.90953146805E+02 0.97632142234E+02
 0.10149304985E+03 0.10280987488E+03 0.10247128459E+03 0.10162504489E+03 0.10122074830E+03
 0.10162504489E+03 0.10247128459E+03 0.10280987488E+03 0.10149304985E+03 0.97632142234E+02
 0.90953146805E+02 0.81937276730E+02 0.71720641226E+02 0.61676888986E+02 0.52408897943E+02
 0.44099909973E+02 0.36841812880E+02 0.30655577538E+02 0.25501243294E+02 0.21287458900E+02
 0.17888204232E+02 0.15165732890E+02 0.12991997982E+02 0.11261006119E+02 0.98902214276E+01
 0.88150095059E+01 0.79821245639E+01 0.73461929362E+01 0.68695440948E+01 0.65233075889E+01
 0.62876236183E+01 0.61503717104E+01 0.51107730944E+01 0.51574906508E+01 0.52999003396E+01
 0.55454332852E+01 0.59084214100E+01 0.64120368235E+01 0.70892257168E+01 0.79821245639E+01
 0.91412174526E+01 0.10626854860E+02 0.12514952855E+02 0.14905419745E+02 0.17927947652E+02
 0.21738474613E+02 0.26503247959E+02 0.32374690995E+02 0.39468548914E+02 0.47849113172E+02
 0.57518748129E+02 0.68397904873E+02 0.80077609231E+02 0.90953146805E+02 0.99226894366E+02
 0.10371931925E+03 0.10422025643E+03 0.10158698071E+03 0.97513631389E+02 0.93991486117E+02
 0.92614640426E+02 0.93991486117E+02 0.97513631389E+02 0.10158698071E+03 0.10422025643E+03
 0.10371931925E+03 0.99226894366E+02 0.90953146805E+02 0.80077609231E+02 0.68397904873E+02
 0.57518748129E+02 0.47849113172E+02 0.39468548914E+02 0.32374690995E+02 0.26503247959E+02
 0.21738474613E+02 0.17927947652E+02 0.14905419745E+02 0.12514952855E+02 0.10626854860E+02
 0.91412174526E+01 0.79821245639E+01 0.70892257168E+01 0.64120368235E+01 0.59084214100E+01
 0.55454332852E+01 0.52999003396E+01 0.51574906508E+01 0.43737575658E+01 0.44211426139E+01
 0.45657992674E+01 0.48160696331E+01 0.51881500127E+01 0.57080180515E+01 0.64120368235E+01
 0.73461929362E+01 0.85657857380E+01 0.10138397546E+02 0.12151585632E+02 0.14722835526E+02
 0.18005177551E+02 0.22181347863E+02 0.27444749750E+02 0.33973929092E+02 0.41911347168E+02
 0.51350841027E+02 0.62323686882E+02 0.74718189282E+02 0.87272910548E+02 0.97632142234E+02
 0.10371931925E+03 0.10435954598E+03 0.99707522685E+02 0.91361351720E+02 0.82037137620E+02
 0.74804361840E+02 0.72086554329E+02 0.74804361840E+02 0.82037137620E+02 0.91361351720E+02
 0.99707522685E+02 0.10435954598E+03 0.10371931925E+03 0.97632142234E+02 0.87272910548E+02
 0.74718189282E+02 0.62323686882E+02 0.51350841027E+02 0.41911347168E+02 0.33973929092E+02
 0.27444749750E+02 0.22181347863E+02 0.18005177551E+02 0.14722835526E+02 0.12151585632E+02
 0.10138397546E+02 0.85657857380E+01 0.73461929362E+01 0.64120368235E+01 0.57080180515E+01
 0.51881500127E+01 0.48160696331E+01 0.45657992674E+01 0.44211426139E+01 0.38392581845E+01
 0.38867346478E+01 0.40318183103E+01 0.42835230597E+01 0.46595489952E+01 0.51881500127E+01
 0.59084214100E+01 0.68695440948E+01 0.81311849127E+01 0.97678228225E+01 0.11878065125E+02
 0.14595732699E+02 0.18095098296E+02 0.22582904200E+02 0.28276944150E+02 0.35380358821E+02
 0.44062943135E+02 0.54450176457E+02 0.66602695962E+02 0.80097711615E+02 0.92672845321E+02
 0.10149304985E+03 0.10422025643E+03 0.99707522685E+02 0.88526847251E+02 0.73121249588E+02
 0.57386224903E+02 0.45648819788E+02 0.41306797697E+02 0.45648819788E+02 0.57386224903E+02
 0.73121249588E+02 0.88526847251E+02 0.99707522685E+02 0.10422025643E+03 0.10149304985E+03
 0.92672845321E+02 0.80097711615E+02 0.66602695962E+02 0.54450176457E+02 0.44062943135E+02
 0.35380358821E+02 0.28276944150E+02 0.22582904200E+02 0.18095098296E+02 0.14595732699E+02
 0.11878065125E+02 0.97678228225E+01 0.81311849127E+01 0.68695440948E+01 0.59084214100E+01
 0.51881500127E+01 0.46595489952E+01 0.42835230597E+01 0.40318183103E+01 0.38867346478E+01
 0.34635349213E+01 0.35108026286E+01 0.36553380552E+01 0.39066213865E+01 0.42835230597E+01
 0.48160696331E+01 0.55454332852E+01 0.65233075889E+01 0.78130655046E+01 0.94952054405E+01
 0.11677857486E+02 0.14508665810E+02 0.18179635977E+02 0.22917398490E+02 0.28960175822E+02
 0.36532715725E+02 0.45830278306E+02 0.57008043385E+02 0.70137809238E+02 0.84177674566E+02
 0.96147011401E+02 0.10280987488E+03 0.10158698071E+03 0.91361351720E+02 0.73121249588E+02
 0.50168431538E+02 0.27614805782E+02 0.11096938933E+02 0.50326699173E+01 0.11096938933E+02
 0.27614805782E+02 0.50168431538E+02 0.73121249588E+02 0.91361351720E+02 0.10158698071E+03
 0.10280987488E+03 0.96147011401E+02 0.84177674566E+02 0.70137809238E+02 0.57008043385E+02
 0.45830278306E+02 0.36532715725E+02 0.28960175822E+02 0.22917398490E+02 0.18179635977E+02
 0.14508665810E+02 0.11677857486E+02 0.94952054405E+01 0.78130655046E+01 0.65233075889E+01
 0.55454332852E+01 0.48160696331E+01 0.42835230597E+01 0.39066213865E+01 0.36553380552E+01
 0.35108026286E+01 0.32143157636E+01 0.32613158688E+01 0.34050695275E+01 0.36553380552E+01
 0.40318183103E+01 0.45657992674E+01 0.52999003396E+01 0.62876236183E+01 0.75951723896E+01
 0.93077022549E+01 0.11540600698E+02 0.14451900448E+02 0.18246837718E+02 0.23166864857E+02
 0.29465656927E+02 0.37384983333E+02 0.47140901778E+02 0.58912521516E+02 0.72722715425E+02
 0.86902418657E+02 0.98006470042E+02 0.10247128459E+03 0.97513631389E+02 0.82037137620E+02
 0.57386224903E+02 0.27614805782E+02 -.10862420949E+01 -.21910619656E+02 -.29525999068E+02
 -.21910619656E+02 -.10862420949E+01 0.27614805782E+02 0.57386224903E+02 0.82037137620E+02
 0.97513631389E+02 0.10247128459E+03 0.98006470042E+02 0.86902418657E+02 0.72722715425E+02
 0.58912521516E+02 0.47140901778E+02 0.37384983333E+02 0.29465656927E+02 0.23166864857E+02
 0.18246837718E+02 0.14451900448E+02 0.11540600698E+02 0.93077022549E+01 0.75951723896E+01
 0.62876236183E+01 0.52999003396E+01 0.45657992674E+01 0.40318183103E+01 0.36553380552E+01
 0.34050695275E+01 0.32613158688E+01 0.30712821687E+01 0.31181050328E+01 0.32613158688E+01
 0.35108026286E+01 0.38867346478E+01 0.44211426139E+01 0.51574906508E+01 0.61503717104E+01
 0.74677691189E+01 0.91977775361E+01 0.11460301394E+02 0.14419776664E+02 0.18289571127E+02
 0.23320266813E+02 0.29775188283E+02 0.37907043755E+02 0.47945512754E+02 0.60085073441E+02
 0.74272739628E+02 0.88413740416E+02 0.98791532583E+02 0.10162504489E+03 0.93991486117E+02
 0.74804361840E+02 0.45648819788E+02 0.11096938933E+02 -.21910619656E+02 -.45751179768E+02
 -.54452865922E+02 -.45751179768E+02 -.21910619656E+02 0.11096938933E+02 0.45648819788E+02
 0.74804361840E+02 0.93991486117E+02 0.10162504489E+03 0.98791532583E+02 0.88413740416E+02
 0.74272739628E+02 0.60085073441E+02 0.47945512754E+02 0.37907043755E+02 0.29775188283E+02
 0.23320266813E+02 0.18289571127E+02 0.14419776664E+02 0.11460301394E+02 0.91977775361E+01
 0.74677691189E+01 0.61503717104E+01 0.51574906508E+01 0.44211426139E+01 0.38867346478E+01
 0.35108026286E+01 0.32613158688E+01 0.31181050328E+01 0.30245152230E+01 0.30712821687E+01
 0.32143157636E+01 0.34635349213E+01 0.38392581845E+01 0.43737575658E+01 0.51107730944E+01
 0.61052625510E+01 0.74258178154E+01 0.91615378827E+01 0.11433857510E+02 0.14409370927E+02
 0.18304184691E+02 0.23371962591E+02 0.29879312985E+02 0.38082721582E+02 0.48216608489E+02
 0.60480729254E+02 0.74786318586E+02 0.88891422914E+02 0.98988763725E+02 0.10122074830E+03
 0.92614640426E+02 0.72086554329E+02 0.41306797697E+02 0.50326699173E+01 -.29525999068E+02
 -.54452865922E+02 -.63545796407E+02 -.54452865922E+02 -.29525999068E+02 0.50326699173E+01
 0.41306797697E+02 0.72086554329E+02 0.92614640426E+02 0.10122074830E+03 0.98988763725E+02
 0.88891422914E+02 0.74786318586E+02 0.60480729254E+02 0.48216608489E+02 0.38082721582E+02
 0.29879312985E+02 0.23371962591E+02 0.18304184691E+02 0.14409370927E+02 0.11433857510E+02
 0.91615378827E+01 0.74258178154E+01 0.61052625510E+01 0.51107730944E+01 0.43737575658E+01