   8   8   0   0
  0.2082684E+02  0.5502640E-09  0.5502640E-09  0.5502640E-09  0.1000000E-15
  1.000000000000000E-004
  CAR 
 GaAs                                    
      9.51058099    -10.88781964  301      3.32519097      1.00000000
    -10.888  0.0000E+00  0.0000E+00
    -10.820  0.0000E+00  0.0000E+00
    -10.752  0.0000E+00  0.0000E+00
    -10.684  0.0000E+00  0.0000E+00
    -10.616  0.0000E+00  0.0000E+00
    -10.548  0.0000E+00  0.0000E+00
    -10.480  0.0000E+00  0.0000E+00
    -10.412  0.0000E+00  0.0000E+00
    -10.344  0.0000E+00  0.0000E+00
    -10.276  0.0000E+00  0.0000E+00
    -10.208  0.0000E+00  0.0000E+00
    -10.140  0.0000E+00  0.0000E+00
    -10.072  0.0000E+00  0.0000E+00
    -10.004  0.0000E+00  0.0000E+00
     -9.936  0.0000E+00  0.0000E+00
     -9.868  0.6813E-04  0.4524E-06
     -9.800  0.1327E-02  0.3889E-04
     -9.732  0.4174E-02  0.2169E-03
     -9.664  0.7136E-02  0.6106E-03
     -9.596  0.8478E-02  0.1151E-02
     -9.528  0.8763E-02  0.1736E-02
     -9.460  0.9598E-02  0.2356E-02
     -9.392  0.1098E-01  0.3054E-02
     -9.324  0.1250E-01  0.3852E-02
     -9.256  0.1591E-01  0.4774E-02
     -9.188  0.2274E-01  0.6099E-02
     -9.120  0.2607E-01  0.7812E-02
     -9.052  0.2195E-01  0.9440E-02
     -8.984  0.1948E-01  0.1082E-01
     -8.916  0.1933E-01  0.1214E-01
     -8.848  0.1894E-01  0.1345E-01
     -8.780  0.1832E-01  0.1471E-01
     -8.712  0.2469E-01  0.1610E-01
     -8.644  0.1798E-01  0.1755E-01
     -8.576  0.9897E-02  0.1839E-01
     -8.508  0.1640E-01  0.1921E-01
     -8.440  0.2775E-01  0.2069E-01
     -8.372  0.3016E-01  0.2267E-01
     -8.304  0.3252E-01  0.2481E-01
     -8.236  0.3406E-01  0.2700E-01
     -8.168  0.3719E-01  0.2942E-01
     -8.100  0.7900E-01  0.3354E-01
     -8.032  0.5933E-01  0.3844E-01
     -7.964  0.4148E-01  0.4148E-01
     -7.896  0.3710E-01  0.4391E-01
     -7.828  0.4033E-01  0.4654E-01
     -7.760  0.5824E-01  0.4976E-01
     -7.692  0.6821E-01  0.5415E-01
     -7.624  0.7124E-01  0.5875E-01
     -7.556  0.7557E-01  0.6393E-01
     -7.488  0.5404E-01  0.6839E-01
     -7.420  0.4961E-01  0.7192E-01
     -7.352  0.4748E-01  0.7515E-01
     -7.284  0.3879E-01  0.7807E-01
     -7.216  0.9791E-02  0.8000E-01
     -7.148  0.0000E+00  0.8000E-01
     -7.080  0.0000E+00  0.8000E-01
     -7.012  0.0000E+00  0.8000E-01
     -6.944  0.0000E+00  0.8000E-01
     -6.876  0.0000E+00  0.8000E-01
     -6.808  0.0000E+00  0.8000E-01
     -6.740  0.0000E+00  0.8000E-01
     -6.672  0.0000E+00  0.8000E-01
     -6.604  0.0000E+00  0.8000E-01
     -6.536  0.0000E+00  0.8000E-01
     -6.468  0.0000E+00  0.8000E-01
     -6.400  0.0000E+00  0.8000E-01
     -6.332  0.0000E+00  0.8000E-01
     -6.264  0.0000E+00  0.8000E-01
     -6.196  0.0000E+00  0.8000E-01
     -6.128  0.0000E+00  0.8000E-01
     -6.060  0.0000E+00  0.8000E-01
     -5.992  0.0000E+00  0.8000E-01
     -5.924  0.0000E+00  0.8000E-01
     -5.856  0.0000E+00  0.8000E-01
     -5.788  0.0000E+00  0.8000E-01
     -5.720  0.0000E+00  0.8000E-01
     -5.652  0.0000E+00  0.8000E-01
     -5.584  0.0000E+00  0.8000E-01
     -5.516  0.0000E+00  0.8000E-01
     -5.448  0.0000E+00  0.8000E-01
     -5.380  0.0000E+00  0.8000E-01
     -5.312  0.0000E+00  0.8000E-01
     -5.244  0.0000E+00  0.8000E-01
     -5.176  0.0000E+00  0.8000E-01
     -5.108  0.0000E+00  0.8000E-01
     -5.040  0.0000E+00  0.8000E-01
     -4.972  0.0000E+00  0.8000E-01
     -4.904  0.0000E+00  0.8000E-01
     -4.836  0.0000E+00  0.8000E-01
     -4.768  0.0000E+00  0.8000E-01
     -4.700  0.0000E+00  0.8000E-01
     -4.632  0.0000E+00  0.8000E-01
     -4.564  0.0000E+00  0.8000E-01
     -4.496  0.0000E+00  0.8000E-01
     -4.428  0.0000E+00  0.8000E-01
     -4.360  0.0000E+00  0.8000E-01
     -4.292  0.0000E+00  0.8000E-01
     -4.224  0.0000E+00  0.8000E-01
     -4.156  0.0000E+00  0.8000E-01
     -4.088  0.0000E+00  0.8000E-01
     -4.020  0.0000E+00  0.8000E-01
     -3.952  0.0000E+00  0.8000E-01
     -3.884  0.0000E+00  0.8000E-01
     -3.816  0.0000E+00  0.8000E-01
     -3.748  0.4416E-02  0.8007E-01
     -3.680  0.1550E-01  0.8082E-01
     -3.612  0.2146E-01  0.8200E-01
     -3.544  0.6218E-01  0.8466E-01
     -3.476  0.9752E-01  0.8974E-01
     -3.408  0.9677E-01  0.9839E-01
     -3.340  0.8853E-01  0.1043E+00
     -3.272  0.7429E-01  0.1101E+00
     -3.204  0.5571E-01  0.1145E+00
     -3.136  0.4607E-01  0.1180E+00
     -3.068  0.3445E-01  0.1205E+00
     -3.000  0.2649E-01  0.1225E+00
     -2.932  0.2582E-01  0.1243E+00
     -2.864  0.2520E-01  0.1260E+00
     -2.796  0.2462E-01  0.1277E+00
     -2.728  0.2408E-01  0.1294E+00
     -2.660  0.2359E-01  0.1310E+00
     -2.592  0.2314E-01  0.1326E+00
     -2.524  0.1859E-01  0.1339E+00
     -2.456  0.1824E-01  0.1351E+00
     -2.388  0.1782E-01  0.1364E+00
     -2.320  0.1713E-01  0.1376E+00
     -2.252  0.1654E-01  0.1387E+00
     -2.185  0.1577E-01  0.1398E+00
     -2.117  0.1493E-01  0.1408E+00
     -2.049  0.1402E-01  0.1418E+00
     -1.981  0.1304E-01  0.1427E+00
     -1.913  0.1253E-01  0.1436E+00
     -1.845  0.1125E-01  0.1444E+00
     -1.777  0.1014E-01  0.1452E+00
     -1.709  0.9213E-02  0.1458E+00
     -1.641  0.7625E-02  0.1464E+00
     -1.573  0.7939E-02  0.1470E+00
     -1.505  0.8263E-02  0.1475E+00
     -1.437  0.8595E-02  0.1481E+00
     -1.369  0.8936E-02  0.1487E+00
     -1.301  0.9287E-02  0.1493E+00
     -1.233  0.9762E-02  0.1500E+00
     -1.165  0.1039E-01  0.1506E+00
     -1.097  0.1116E-01  0.1514E+00
     -1.029  0.1207E-01  0.1522E+00
     -0.961  0.1314E-01  0.1530E+00
     -0.893  0.1225E-01  0.1539E+00
     -0.825  0.1518E-01  0.1548E+00
     -0.757  0.1821E-01  0.1559E+00
     -0.689  0.2214E-01  0.1573E+00
     -0.621  0.2581E-01  0.1589E+00
     -0.553  0.6962E-01  0.1626E+00
     -0.485  0.6749E-01  0.1678E+00
     -0.417  0.6163E-01  0.1722E+00
     -0.349  0.5435E-01  0.1762E+00
     -0.281  0.4935E-01  0.1796E+00
     -0.213  0.4599E-01  0.1829E+00
     -0.145  0.4031E-01  0.1859E+00
     -0.077  0.3932E-01  0.1886E+00
     -0.009  0.3893E-01  0.1912E+00
      0.059  0.4526E-01  0.1940E+00
      0.127  0.4315E-01  0.1972E+00
      0.195  0.4022E-01  0.1999E+00
      0.263  0.4206E-01  0.2027E+00
      0.331  0.4398E-01  0.2056E+00
      0.399  0.5648E-01  0.2089E+00
      0.467  0.6695E-01  0.2130E+00
      0.535  0.7290E-01  0.2179E+00
      0.603  0.6221E-01  0.2224E+00
      0.671  0.7439E-01  0.2271E+00
      0.739  0.6607E-01  0.2319E+00
      0.807  0.5733E-01  0.2361E+00
      0.875  0.5103E-01  0.2399E+00
      0.943  0.4704E-01  0.2432E+00
      1.011  0.4412E-01  0.2463E+00
      1.079  0.4228E-01  0.2492E+00
      1.147  0.4774E-01  0.2523E+00
      1.215  0.5235E-01  0.2557E+00
      1.283  0.5893E-01  0.2599E+00
      1.351  0.5047E-01  0.2632E+00
      1.419  0.5341E-01  0.2668E+00
      1.487  0.6548E-01  0.2706E+00
      1.555  0.8746E-01  0.2753E+00
      1.623  0.5510E-01  0.2805E+00
      1.691  0.4862E-01  0.2840E+00
      1.759  0.4225E-01  0.2871E+00
      1.827  0.3602E-01  0.2897E+00
      1.895  0.3110E-01  0.2920E+00
      1.963  0.2218E-01  0.2936E+00
      2.031  0.2436E-01  0.2951E+00
      2.099  0.3188E-01  0.2970E+00
      2.167  0.4644E-01  0.2998E+00
      2.235  0.4754E-01  0.3028E+00
      2.303  0.5230E-01  0.3062E+00
      2.371  0.5393E-01  0.3097E+00
      2.439  0.3365E-01  0.3128E+00
      2.507  0.1608E-01  0.3141E+00
      2.575  0.1410E-01  0.3151E+00
      2.643  0.1216E-01  0.3160E+00
      2.711  0.1027E-01  0.3168E+00
      2.779  0.8667E-02  0.3174E+00
      2.847  0.9409E-02  0.3180E+00
      2.915  0.9228E-02  0.3187E+00
      2.983  0.7794E-02  0.3192E+00
      3.051  0.5104E-02  0.3197E+00
      3.119  0.1457E-02  0.3199E+00
      3.187  0.5540E-03  0.3200E+00
      3.255  0.7935E-04  0.3200E+00
      3.323  0.0000E+00  0.3200E+00
      3.391  0.0000E+00  0.3200E+00
      3.459  0.0000E+00  0.3200E+00
      3.527  0.0000E+00  0.3200E+00
      3.595  0.0000E+00  0.3200E+00
      3.663  0.0000E+00  0.3200E+00
      3.731  0.0000E+00  0.3200E+00
      3.799  0.0000E+00  0.3200E+00
      3.867  0.0000E+00  0.3200E+00
      3.935  0.0000E+00  0.3200E+00
      4.003  0.0000E+00  0.3200E+00
      4.071  0.0000E+00  0.3200E+00
      4.139  0.0000E+00  0.3200E+00
      4.207  0.0000E+00  0.3200E+00
      4.275  0.0000E+00  0.3200E+00
      4.343  0.0000E+00  0.3200E+00
      4.411  0.3758E-04  0.3200E+00
      4.479  0.2979E-03  0.3200E+00
      4.547  0.8059E-03  0.3200E+00
      4.615  0.4973E-02  0.3203E+00
      4.683  0.3528E-02  0.3205E+00
      4.751  0.4568E-02  0.3208E+00
      4.819  0.5878E-02  0.3211E+00
      4.887  0.7458E-02  0.3216E+00
      4.955  0.9309E-02  0.3221E+00
      5.023  0.1129E-01  0.3229E+00
      5.091  0.1246E-01  0.3237E+00
      5.159  0.1408E-01  0.3246E+00
      5.227  0.1667E-01  0.3256E+00
      5.295  0.2022E-01  0.3268E+00
      5.363  0.4041E-01  0.3290E+00
      5.431  0.5298E-01  0.3319E+00
      5.499  0.4813E-01  0.3355E+00
      5.567  0.6257E-01  0.3393E+00
      5.635  0.7242E-01  0.3439E+00
      5.703  0.8109E-01  0.3491E+00
      5.771  0.9527E-01  0.3549E+00
      5.839  0.6357E-01  0.3618E+00
      5.907  0.5382E-01  0.3657E+00
      5.975  0.5338E-01  0.3693E+00
      6.043  0.5251E-01  0.3729E+00
      6.111  0.5162E-01  0.3765E+00
      6.179  0.4429E-01  0.3797E+00
      6.247  0.9298E-01  0.3838E+00
      6.315  0.7012E-01  0.3887E+00
      6.383  0.4016E-01  0.3930E+00
      6.451  0.3823E-01  0.3957E+00
      6.519  0.3647E-01  0.3982E+00
      6.587  0.3490E-01  0.4006E+00
      6.655  0.3410E-01  0.4030E+00
      6.723  0.3341E-01  0.4053E+00
      6.791  0.3285E-01  0.4075E+00
      6.859  0.2646E-01  0.4097E+00
      6.927  0.2112E-01  0.4112E+00
      6.995  0.2260E-01  0.4127E+00
      7.063  0.2413E-01  0.4143E+00
      7.131  0.2572E-01  0.4160E+00
      7.199  0.2791E-01  0.4178E+00
      7.267  0.3480E-01  0.4198E+00
      7.335  0.3894E-01  0.4227E+00
      7.403  0.4764E-01  0.4256E+00
      7.471  0.5842E-01  0.4292E+00
      7.539  0.9896E-01  0.4336E+00
      7.607  0.9474E-01  0.4403E+00
      7.675  0.6404E-01  0.4458E+00
      7.743  0.4505E-01  0.4494E+00
      7.811  0.3401E-01  0.4519E+00
      7.879  0.2730E-01  0.4540E+00
      7.947  0.3069E-01  0.4559E+00
      8.015  0.3454E-01  0.4581E+00
      8.083  0.5884E-01  0.4615E+00
      8.151  0.6658E-01  0.4660E+00
      8.219  0.5948E-01  0.4704E+00
      8.287  0.4494E-01  0.4739E+00
      8.355  0.3561E-01  0.4766E+00
      8.423  0.2426E-01  0.4787E+00
      8.491  0.9778E-02  0.4799E+00
      8.559  0.0000E+00  0.4800E+00
      8.627  0.0000E+00  0.4800E+00
      8.695  0.0000E+00  0.4800E+00
      8.763  0.0000E+00  0.4800E+00
      8.831  0.0000E+00  0.4800E+00
      8.899  0.0000E+00  0.4800E+00
      8.967  0.0000E+00  0.4800E+00
      9.035  0.0000E+00  0.4800E+00
      9.103  0.0000E+00  0.4800E+00
      9.171  0.0000E+00  0.4800E+00
      9.239  0.0000E+00  0.4800E+00
      9.307  0.0000E+00  0.4800E+00
      9.375  0.0000E+00  0.4800E+00
      9.443  0.0000E+00  0.4800E+00
      9.511  0.0000E+00  0.4800E+00
