       N       E                     dE             d eps       ncg     rms          rms(c)
DAV:   1     0.101537403587E+03    0.10154E+03   -0.10373E+04   480   0.897E+02
DAV:   2    -0.255799994265E+02   -0.12712E+03   -0.11983E+03   632   0.150E+02
DAV:   3    -0.330796307889E+02   -0.74996E+01   -0.74422E+01   592   0.383E+01
DAV:   4    -0.331743304677E+02   -0.94700E-01   -0.94541E-01   592   0.465E+00
DAV:   5    -0.331756520873E+02   -0.13216E-02   -0.13211E-02   600   0.509E-01    0.866E+00
DAV:   6    -0.325168677163E+02    0.65878E+00   -0.67719E-01   536   0.323E+00    0.512E+00
DAV:   7    -0.323373101560E+02    0.17956E+00   -0.54498E-01   600   0.296E+00    0.104E+00
DAV:   8    -0.323342239387E+02    0.30862E-02   -0.45370E-02   536   0.918E-01    0.205E-01
DAV:   9    -0.323351454042E+02   -0.92147E-03   -0.23277E-03   600   0.257E-01    0.767E-02
DAV:  10    -0.323353316208E+02   -0.18622E-03   -0.19942E-04   504   0.734E-02    0.169E-02
DAV:  11    -0.323353644172E+02   -0.32796E-04   -0.64247E-05   368   0.410E-02
   1 F= -.21936097E+02 E0= -.21936097E+02  d E =-.219361E+02
       N       E                     dE             d eps       ncg     rms          rms(c)
DAV:   1    -0.324242075871E+02   -0.88876E-01   -0.50293E-02   544   0.970E-01    0.244E-01
DAV:   2    -0.324224337598E+02    0.17738E-02   -0.30376E-03   528   0.246E-01    0.127E-01
DAV:   3    -0.324218150924E+02    0.61867E-03   -0.21213E-03   544   0.169E-01    0.393E-02
DAV:   4    -0.324217923313E+02    0.22761E-04   -0.76058E-05   272   0.433E-02
   2 F= -.21947326E+02 E0= -.21947326E+02  d E =-.112286E-01
       N       E                     dE             d eps       ncg     rms          rms(c)
DAV:   1    -0.325380606633E+02   -0.11625E+00   -0.98208E-02   544   0.135E+00    0.329E-01
DAV:   2    -0.325346964402E+02    0.33642E-02   -0.58473E-03   504   0.342E-01    0.171E-01
DAV:   3    -0.325335200061E+02    0.11764E-02   -0.40612E-03   528   0.234E-01    0.547E-02
DAV:   4    -0.325334777215E+02    0.42285E-04   -0.15085E-04   360   0.597E-02
   3 F= -.21953057E+02 E0= -.21953057E+02  d E =-.169599E-01
