<?xml version="1.0" encoding="ISO-8859-1"?>
<modeling>
 <generator>
  <i name="program" type="string">vasp </i>
  <i name="version" type="string">6.4.3  </i>
  <i name="subversion" type="string">19Mar24 (build Aug 29 2024 15:27:20) complex                          parallel </i>
  <i name="platform" type="string">LinuxIFC </i>
  <i name="date" type="string">2025 03 13 </i>
  <i name="time" type="string">14:21:42 </i>
 </generator>
 <incar>
  <i type="string" name="SYSTEM">GaAs</i>
  <i type="string" name="PREC">Normal</i>
  <i type="int" name="IBRION">     2</i>
  <i type="int" name="NFREE">     2</i>
  <i type="int" name="NSW">   100</i>
  <i type="int" name="ISIF">     3</i>
  <i name="ENCUT">    400.00000000</i>
  <i name="POTIM">      0.10000000</i>
  <i type="int" name="ISMEAR">    -5</i>
  <i name="SIGMA">      0.10000000</i>
  <i name="PSTRESS">    100.00000000</i>
 </incar>
 <primitive_cell>
  <structure name="primitive_cell" >
   <crystal>
    <varray name="basis" >
     <v>       2.75132003      -2.75132003       0.00000000 </v>
     <v>       2.75132003       0.00000000       2.75132003 </v>
     <v>       0.00000000      -2.75132003       2.75132003 </v>
    </varray>
    <i name="volume">     41.65367512 </i>
    <varray name="rec_basis" >
     <v>       0.18173095      -0.18173095      -0.18173095 </v>
     <v>       0.18173095       0.18173095       0.18173095 </v>
     <v>      -0.18173095      -0.18173095       0.18173095 </v>
    </varray>
   </crystal>
   <varray name="positions" >
    <v>       0.00000000       0.00000000       0.00000000 </v>
    <v>       0.75000000       0.75000000       0.75000000 </v>
   </varray>
  </structure>
  <varray name="primitive_index" >
   <v type="int" >        1 </v>
   <v type="int" >        5 </v>
  </varray>
 </primitive_cell>
 <kpoints>
  <generation param="Gamma">
   <v type="int" name="divisions">       5        5        5 </v>
   <v name="usershift">      0.00000000       0.00000000       0.00000000 </v>
   <v name="genvec1">      0.20000000       0.00000000       0.00000000 </v>
   <v name="genvec2">      0.00000000       0.20000000       0.00000000 </v>
   <v name="genvec3">      0.00000000       0.00000000       0.20000000 </v>
   <v name="shift">      0.00000000       0.00000000       0.00000000 </v>
  </generation>
  <varray name="kpointlist" >
   <v>       0.00000000       0.00000000       0.00000000 </v>
   <v>       0.20000000       0.00000000       0.00000000 </v>
   <v>       0.40000000       0.00000000       0.00000000 </v>
   <v>       0.20000000       0.20000000       0.00000000 </v>
   <v>       0.40000000       0.20000000       0.00000000 </v>
   <v>       0.40000000       0.40000000       0.00000000 </v>
   <v>       0.20000000       0.20000000       0.20000000 </v>
   <v>       0.40000000       0.20000000       0.20000000 </v>
   <v>       0.40000000       0.40000000       0.20000000 </v>
   <v>       0.40000000       0.40000000       0.40000000 </v>
  </varray>
  <varray name="weights" >
   <v>       0.00800000 </v>
   <v>       0.04800000 </v>
   <v>       0.04800000 </v>
   <v>       0.09600000 </v>
   <v>       0.19200000 </v>
   <v>       0.09600000 </v>
   <v>       0.06400000 </v>
   <v>       0.19200000 </v>
   <v>       0.19200000 </v>
   <v>       0.06400000 </v>
  </varray>
  <varray name="tetrahedronlist"  type="int" >
   <v type="int" >       12        7        8        8        9 </v>
   <v type="int" >       18        8        8        9        9 </v>
   <v type="int" >       24        8        9        9       10 </v>
   <v type="int" >       12        8        9        9        9 </v>
   <v type="int" >       24        9        9        9       10 </v>
   <v type="int" >       18        9        9       10       10 </v>
   <v type="int" >       24        4        5        7        8 </v>
   <v type="int" >       12        5        7        8        8 </v>
   <v type="int" >       24        5        8        8        9 </v>
   <v type="int" >       24        4        5        5        8 </v>
   <v type="int" >       24        5        5        6        8 </v>
   <v type="int" >       12        5        6        8        9 </v>
   <v type="int" >       12        9       10       10       10 </v>
   <v type="int" >       12        8        8        9       10 </v>
   <v type="int" >       12        8        9       10       10 </v>
   <v type="int" >       12        5        5        8        9 </v>
   <v type="int" >       12        5        8        9        9 </v>
   <v type="int" >       12        5        5        6        9 </v>
   <v type="int" >       12        5        6        6        9 </v>
   <v type="int" >       12        5        6        9        9 </v>
   <v type="int" >       12        5        6        8        8 </v>
   <v type="int" >       12        5        6        6        8 </v>
   <v type="int" >       12        6        8        8        9 </v>
   <v type="int" >       12        6        8        9        9 </v>
   <v type="int" >       12        6        6        8        9 </v>
   <v type="int" >       12        7        8        9       10 </v>
   <v type="int" >       12        4        5        8        9 </v>
   <v type="int" >       12        4        7        8        9 </v>
   <v type="int" >       12        4        5        6        9 </v>
   <v type="int" >       12        5        6        7        8 </v>
   <v type="int" >       12        4        5        6        7 </v>
   <v type="int" >       12        6        7        8        9 </v>
   <v type="int" >       12        2        4        7        8 </v>
   <v type="int" >       12        2        4        5        8 </v>
   <v type="int" >       12        2        3        5        8 </v>
   <v type="int" >       12        4        4        5        7 </v>
   <v type="int" >       12        2        4        4        5 </v>
   <v type="int" >       12        2        3        4        5 </v>
   <v type="int" >       12        3        4        5        5 </v>
   <v type="int" >       12        2        3        4        7 </v>
   <v type="int" >       12        3        4        5        7 </v>
   <v type="int" >       12        3        5        7        8 </v>
   <v type="int" >        6       10       10       10       10 </v>
   <v type="int" >       12        6        6        9        9 </v>
   <v type="int" >       12        6        9        9        9 </v>
   <v type="int" >       12        6        6        6        9 </v>
   <v type="int" >       12        3        5        8        8 </v>
   <v type="int" >       12        3        5        5        8 </v>
   <v type="int" >       12        3        3        5        8 </v>
   <v type="int" >       12        5        5        5        8 </v>
   <v type="int" >       12        3        5        5        5 </v>
   <v type="int" >        6        3        3        5        5 </v>
   <v type="int" >        6        5        5        8        8 </v>
   <v type="int" >       12        2        4        4        7 </v>
   <v type="int" >       12        2        2        4        4 </v>
   <v type="int" >       12        1        2        2        4 </v>
   <v type="int" >       12        1        2        4        7 </v>
  </varray>
  <i name="volumeweight">      0.00133333 </i>
 </kpoints>
 <parameters>
  <separator name="general" >
   <i type="string" name="SYSTEM">GaAs</i>
   <i type="logical" name="LCOMPAT"> F  </i>
  </separator>
  <separator name="electronic" >
   <i type="string" name="PREC">normal</i>
   <i name="ENMAX">    400.00000000</i>
   <i name="ENAUG">    462.75800000</i>
   <i name="EDIFF">      0.00010000</i>
   <i type="int" name="IALGO">    38</i>
   <i type="int" name="IWAVPR">    11</i>
   <i type="int" name="NBANDS">    24</i>
   <i type="int" name="NBANDSLOW">    -1</i>
   <i type="int" name="NBANDSHIGH">    -1</i>
   <i name="NELECT">     32.00000000</i>
   <i type="int" name="TURBO">     0</i>
   <i type="int" name="IRESTART">     0</i>
   <i type="int" name="NREBOOT">     0</i>
   <i type="int" name="NMIN">     0</i>
   <i name="EREF">      0.00000000</i>
   <separator name="electronic smearing" >
    <i type="int" name="ISMEAR">    -5</i>
    <i name="SIGMA">      0.10000000</i>
    <i name="KSPACING">      0.50000000</i>
    <i type="logical" name="KGAMMA"> T  </i>
    <i type="logical" name="KBLOWUP"> T  </i>
   </separator>
   <separator name="electronic projectors" >
    <i type="logical" name="LREAL"> F  </i>
    <v name="ROPT">      0.00000000      0.00000000</v>
    <i type="int" name="LMAXPAW">  -100</i>
    <i type="int" name="LMAXMIX">     2</i>
    <i type="logical" name="NLSPLINE"> F  </i>
   </separator>
   <separator name="electronic startup" >
    <i type="int" name="ISTART">     0</i>
    <i type="int" name="ICHARG">     2</i>
    <i type="int" name="INIWAV">     1</i>
   </separator>
   <separator name="electronic spin" >
    <i type="int" name="ISPIN">     1</i>
    <i type="logical" name="LNONCOLLINEAR"> F  </i>
    <v name="MAGMOM">      1.00000000      1.00000000      1.00000000      1.00000000      1.00000000      1.00000000      1.00000000      1.00000000</v>
    <i name="NUPDOWN">     -1.00000000</i>
    <i type="logical" name="LSORBIT"> F  </i>
    <v name="SAXIS">      0.00000000      0.00000000      1.00000000</v>
    <i type="logical" name="LSPIRAL"> F  </i>
    <v name="QSPIRAL">      0.00000000      0.00000000      0.00000000</v>
    <i type="logical" name="LZEROZ"> F  </i>
   </separator>
   <separator name="electronic exchange-correlation" >
    <i type="logical" name="LASPH"> F  </i>
   </separator>
   <separator name="electronic convergence" >
    <i type="int" name="NELM">    60</i>
    <i type="int" name="NELMDL">    -5</i>
    <i type="int" name="NELMIN">     2</i>
    <i name="ENINI">    400.00000000</i>
    <separator name="electronic convergence detail" >
     <i type="logical" name="LDIAG"> T  </i>
     <i type="logical" name="LSUBROT"> F  </i>
     <i name="WEIMIN">      0.00100000</i>
     <i name="EBREAK">      0.00000104</i>
     <i name="DEPER">      0.30000000</i>
     <i type="int" name="NRMM">     4</i>
     <i name="TIME">      0.40000000</i>
    </separator>
   </separator>
   <separator name="electronic mixer" >
    <i name="AMIX">      0.40000000</i>
    <i name="BMIX">      1.00000000</i>
    <i name="AMIN">      0.10000000</i>
    <i name="AMIX_MAG">      1.60000000</i>
    <i name="BMIX_MAG">      1.00000000</i>
    <separator name="electronic mixer details" >
     <i type="int" name="IMIX">     4</i>
     <i type="logical" name="MIXFIRST"> F  </i>
     <i type="int" name="MAXMIX">   -45</i>
     <i name="WC">    100.00000000</i>
     <i type="int" name="INIMIX">     1</i>
     <i type="int" name="MIXPRE">     1</i>
     <i type="int" name="MREMOVE">     5</i>
    </separator>
   </separator>
   <separator name="electronic dipolcorrection" >
    <i type="logical" name="LDIPOL"> F  </i>
    <i type="logical" name="LMONO"> F  </i>
    <i type="int" name="IDIPOL">     0</i>
    <i name="EPSILON">      1.00000000</i>
    <v name="DIPOL">   -100.00000000   -100.00000000   -100.00000000</v>
    <i name="EFIELD">      0.00000000</i>
    <i type="logical" name="LVACPOTAV"> F  </i>
   </separator>
  </separator>
  <separator name="grids" >
   <i type="int" name="NGX">    28</i>
   <i type="int" name="NGY">    28</i>
   <i type="int" name="NGZ">    28</i>
   <i type="int" name="NGXF">    56</i>
   <i type="int" name="NGYF">    56</i>
   <i type="int" name="NGZF">    56</i>
   <i type="logical" name="ADDGRID"> F  </i>
  </separator>
  <separator name="ionic" >
   <i type="int" name="NSW">   100</i>
   <i type="int" name="IBRION">     2</i>
   <i type="int" name="MDALGO">     0</i>
   <i type="int" name="ISIF">     3</i>
   <i name="PSTRESS">    100.00000000</i>
   <i name="EDIFFG">      0.00100000</i>
   <i type="int" name="NFREE">     2</i>
   <i name="POTIM">      0.10000000</i>
   <i name="SMASS">     -3.00000000</i>
   <i name="SCALEE">      1.00000000</i>
  </separator>
  <separator name="ionic md" >
   <i name="TEBEG">      0.00010000</i>
   <i name="TEEND">      0.00010000</i>
   <i type="int" name="NBLOCK">     1</i>
   <i type="int" name="KBLOCK">   100</i>
   <i type="int" name="NPACO">   256</i>
   <i name="APACO">     10.00000000</i>
  </separator>
  <separator name="symmetry" >
   <i type="int" name="ISYM">     2</i>
   <i name="SYMPREC">      0.00001000</i>
  </separator>
  <separator name="dos" >
   <i type="int" name="LORBIT">     0</i>
   <v name="RWIGS">     -1.00000000     -1.00000000</v>
   <i type="int" name="NEDOS">   301</i>
   <i name="EMIN">     10.00000000</i>
   <i name="EMAX">    -10.00000000</i>
   <i name="EFERMI">      0.00000000</i>
  </separator>
  <separator name="writing" >
   <i type="int" name="NWRITE">     2</i>
   <i type="logical" name="LWAVE"> T  </i>
   <i type="logical" name="LDOWNSAMPLE"> F  </i>
   <i type="logical" name="LCHARG"> T  </i>
   <i type="logical" name="LPARD"> F  </i>
   <i type="logical" name="LVTOT"> F  </i>
   <i type="logical" name="LVHAR"> F  </i>
   <i type="logical" name="LELF"> F  </i>
   <i type="logical" name="LOPTICS"> F  </i>
   <v name="STM">      0.00000000      0.00000000      0.00000000      0.00000000      0.00000000      0.00000000      0.00000000</v>
  </separator>
  <separator name="performance" >
   <i type="int" name="NPAR">     8</i>
   <i type="int" name="NSIM">     4</i>
   <i type="int" name="NBLK">    -1</i>
   <i type="logical" name="LPLANE"> T  </i>
   <i type="logical" name="LSCALAPACK"> T  </i>
   <i type="logical" name="LSCAAWARE"> F  </i>
   <i type="logical" name="LSCALU"> F  </i>
   <i type="logical" name="LASYNC"> F  </i>
   <i type="logical" name="LORBITALREAL"> F  </i>
  </separator>
  <separator name="miscellaneous" >
   <i type="int" name="IDIOT">     3</i>
   <i type="int" name="PHON_NSTRUCT">    -1</i>
   <i type="logical" name="LMUSIC"> F  </i>
   <v name="POMASS">     74.92200000     69.72300000</v>
   <v name="DARWINR">      0.00000000      0.00000000</v>
   <v name="DARWINV">      1.00000000      1.00000000</v>
   <i type="logical" name="LCORR"> T  </i>
  </separator>
  <i type="logical" name="GGA_COMPAT"> T  </i>
  <i type="logical" name="LBERRY"> F  </i>
  <i type="int" name="ICORELEVEL">     0</i>
  <i type="logical" name="LDAU"> F  </i>
  <i type="int" name="I_CONSTRAINED_M">     0</i>
  <separator name="electronic exchange-correlation" >
   <i type="string" name="GGA    ">PE</i>
   <i type="string" name="XC_C">1</i>
   <i type="int" name="VOSKOWN">     0</i>
   <i type="logical" name="LHFCALC"> F  </i>
   <i type="string" name="PRECFOCK"></i>
   <i type="logical" name="LSYMGRAD"> F  </i>
   <i type="logical" name="LHFONE"> F  </i>
   <i type="logical" name="LRHFCALC"> F  </i>
   <i type="logical" name="LTHOMAS"> F  </i>
   <i type="logical" name="LMODELHF"> F  </i>
   <i type="logical" name="LFOCKACE"> F  </i>
   <i name="ENCUT4O">     -1.00000000</i>
   <i type="int" name="EXXOEP">     0</i>
   <i type="int" name="FOURORBIT">     0</i>
   <i name="AEXX">      0.00000000</i>
   <i name="HFALPHA">      0.00000000</i>
   <i name="MCALPHA">      0.00000000</i>
   <i name="ALDAX">      1.00000000</i>
   <i name="AGGAX">      1.00000000</i>
   <i name="AMGGAX">      1.00000000</i>
   <i name="ALDAC">      1.00000000</i>
   <i name="AGGAC">      1.00000000</i>
   <i name="AMGGAC">      1.00000000</i>
   <i type="int" name="NKREDX">     1</i>
   <i type="int" name="NKREDY">     1</i>
   <i type="int" name="NKREDZ">     1</i>
   <i type="logical" name="SHIFTRED"> F  </i>
   <i type="logical" name="ODDONLY"> F  </i>
   <i type="logical" name="EVENONLY"> F  </i>
   <i type="int" name="LMAXFOCK">     0</i>
   <i type="int" name="NMAXFOCKAE">     0</i>
   <i type="logical" name="LFOCKAEDFT"> F  </i>
   <i name="HFSCREEN">      0.00000000</i>
   <i name="HFSCREENC">      0.00000000</i>
   <i type="int" name="NBANDSGWLOW">     0</i>
  </separator>
  <separator name="vdW DFT" >
   <i type="logical" name="LUSE_VDW"> F  </i>
   <i type="int" name="IVDW_NL">    -1</i>
   <i type="logical" name="LSPIN_VDW"> F  </i>
   <i name="ZAB_VDW">     -0.84910000</i>
   <i name="GAMMA_VDW">      1.39626340</i>
   <i name="ALPHA_VDW">      0.00000000</i>
   <i name="PARAM1">      0.12340000</i>
   <i name="PARAM2">      1.00000000</i>
   <i name="BPARAM">      6.30000000</i>
   <i name="CPARAM">      0.00930000</i>
  </separator>
  <separator name="model GW" >
   <i type="int" name="MODEL_GW">     0</i>
   <i name="MODEL_EPS0">     12.49610254</i>
   <i name="MODEL_ALPHA">      1.00000000</i>
  </separator>
  <separator name="linear response parameters" >
   <i type="logical" name="LEPSILON"> F  </i>
   <i type="logical" name="LRPA"> F  </i>
   <i type="logical" name="LNABLA"> F  </i>
   <i type="logical" name="LVEL"> F  </i>
   <i name="CSHIFT">      0.10000000</i>
   <i name="OMEGAMAX">     -1.00000000</i>
   <i name="DEG_THRESHOLD">      0.00200000</i>
   <i name="RTIME">     -0.10000000</i>
   <i name="WPLASMAI">      0.00000000</i>
   <v name="DFIELD">      0.00000000      0.00000000      0.00000000</v>
   <v name="WPLASMA">      0.00000000      0.00000000      0.00000000      0.00000000      0.00000000      0.00000000      0.00000000      0.00000000      0.00000000</v>
  </separator>
  <separator name="orbital magnetization" >
   <i type="logical" name="NUCIND"> F  </i>
   <v name="MAGPOS">      0.00000000      0.00000000      0.00000000</v>
   <i type="logical" name="LNICSALL"> T  </i>
   <i type="logical" name="ORBITALMAG"> F  </i>
   <i type="logical" name="LMAGBLOCH"> F  </i>
   <i type="logical" name="LCHIMAG"> F  </i>
   <i type="logical" name="LGAUGE"> T  </i>
   <i type="int" name="MAGATOM">     0</i>
   <v name="MAGDIPOL">      0.00000000      0.00000000      0.00000000</v>
   <v name="AVECCONST">      0.00000000      0.00000000      0.00000000</v>
  </separator>
  <separator name="response functions" >
   <i type="logical" name="LALL_IN_ONE"> F  </i>
   <i type="int" name="IALL_IN_ONE">    -1</i>
   <i type="int" name="NBANDS_WAVE">    -1</i>
   <i type="logical" name="LFINITE_TEMPERATURE"> F  </i>
   <i type="logical" name="LADDER"> F  </i>
   <i type="logical" name="LRPAFORCE"> F  </i>
   <i type="logical" name="LFXC"> F  </i>
   <i type="logical" name="LHARTREE"> T  </i>
   <i type="int" name="IBSE">     0</i>
   <v type="int" name="KPOINT">    -1     0     0     0</v>
   <i type="logical" name="LTCTC"> F  </i>
   <i type="logical" name="LTCTE"> F  </i>
   <i type="logical" name="LTETE"> F  </i>
   <i type="logical" name="LTRIPLET"> F  </i>
   <i type="logical" name="LFXCEPS"> F  </i>
   <i type="logical" name="LFXHEG"> F  </i>
   <i type="int" name="NATURALO">     2</i>
   <i type="logical" name="LHOLEGF"> F  </i>
   <i type="logical" name="L2ORDER"> F  </i>
   <i type="logical" name="LDMP1"> F  </i>
   <i type="logical" name="LMP2LT"> F  </i>
   <i type="logical" name="LSMP2LT"> F  </i>
   <i type="logical" name="LGWLF"> F  </i>
   <i name="ENCUTGW">     -1.60000002</i>
   <i name="ENCUTGWSOFT">     -1.60000002</i>
   <i name="ENCUTLF">     -1.00000000</i>
   <i type="logical" name="ESF_SPLINES"> F  </i>
   <i name="ESF_CONV">      0.01000000</i>
   <i type="int" name="ESF_NINTER">    15</i>
   <i type="int" name="LMAXMP2">    -1</i>
   <i name="SCISSOR">      0.00000000</i>
   <i type="int" name="NOMEGA">     0</i>
   <i type="int" name="NOMEGAR">     0</i>
   <i type="int" name="NBANDSGW">    -1</i>
   <i type="int" name="NBANDSO">    -1</i>
   <i type="int" name="NBANDSV">    -1</i>
   <i type="int" name="NELMGW">     1</i>
   <i type="int" name="NELMHF">     1</i>
   <i type="int" name="DIM">     3</i>
   <i type="int" name="IESPILON">     4</i>
   <i type="int" name="ANTIRES">     0</i>
   <i name="OMEGAMAX">    -30.00000000</i>
   <i name="OMEGAMIN">    -30.00000000</i>
   <i name="OMEGATL">   -200.00000000</i>
   <i type="int" name="OMEGAGRID">     0</i>
   <i name="CSHIFT">     -0.10000000</i>
   <i type="logical" name="LSELFENERGY"> F  </i>
   <i type="logical" name="LSPECTRAL"> F  </i>
   <i type="logical" name="LSPECTRALGW"> F  </i>
   <i type="logical" name="LSINGLES"> F  </i>
   <i type="logical" name="LFERMIGW"> F  </i>
   <i type="logical" name="ODDONLYGW"> F  </i>
   <i type="logical" name="EVENONLYGW"> F  </i>
   <i type="int" name="NKREDLFX">     1</i>
   <i type="int" name="NKREDLFY">     1</i>
   <i type="int" name="NKREDLFZ">     1</i>
   <i type="int" name="MAXMEM">  2800</i>
   <i type="int" name="TELESCOPE">     0</i>
   <i type="int" name="NTAUPAR">    -1</i>
   <i type="int" name="NOMEGAPAR">    -1</i>
   <i name="DAMP_NEWTON">      0.80000001</i>
   <i name="LAMBDA">      1.00000000</i>
  </separator>
  <separator name="External order field" >
   <i name="OFIELD_KAPPA">      0.00000000</i>
   <v name="OFIELD_K">      0.00000000      0.00000000      0.00000000</v>
   <i name="OFIELD_Q6_NEAR">      0.00000000</i>
   <i name="OFIELD_Q6_FAR">      0.00000000</i>
   <i name="OFIELD_A">      0.00000000</i>
  </separator>
  <separator name="optional k-points parameters" >
   <i type="int" name="KPOINTS_OPT_MODE">     1</i>
   <i type="logical" name="LKPOINTS_OPT"> F  </i>
  </separator>
 </parameters>
 <atominfo>
  <atoms>       8 </atoms>
  <types>       2 </types>
  <array name="atoms" >
   <dimension dim="1">ion</dimension>
   <field type="string">element</field>
   <field type="int">atomtype</field>
   <set>
    <rc><c>As</c><c>   1</c></rc>
    <rc><c>As</c><c>   1</c></rc>
    <rc><c>As</c><c>   1</c></rc>
    <rc><c>As</c><c>   1</c></rc>
    <rc><c>Ga</c><c>   2</c></rc>
    <rc><c>Ga</c><c>   2</c></rc>
    <rc><c>Ga</c><c>   2</c></rc>
    <rc><c>Ga</c><c>   2</c></rc>
   </set>
  </array>
  <array name="atomtypes" >
   <dimension dim="1">type</dimension>
   <field type="int">atomspertype</field>
   <field type="string">element</field>
   <field>mass</field>
   <field>valence</field>
   <field type="string">pseudopotential</field>
   <set>
    <rc><c>   4</c><c>As</c><c>     74.92200000</c><c>      5.00000000</c><c>  PAW_PBE As 22Sep2009                  </c></rc>
    <rc><c>   4</c><c>Ga</c><c>     69.72300000</c><c>      3.00000000</c><c>  PAW_PBE Ga 08Apr2002                  </c></rc>
   </set>
  </array>
 </atominfo>
 <structure name="initialpos" >
  <crystal>
   <varray name="basis" >
    <v>       5.50264006       0.00000000       0.00000000 </v>
    <v>       0.00000000       5.50264006       0.00000000 </v>
    <v>       0.00000000       0.00000000       5.50264006 </v>
   </varray>
   <i name="volume">    166.61470049 </i>
   <varray name="rec_basis" >
    <v>       0.18173095       0.00000000       0.00000000 </v>
    <v>       0.00000000       0.18173095       0.00000000 </v>
    <v>       0.00000000       0.00000000       0.18173095 </v>
   </varray>
  </crystal>
  <varray name="positions" >
   <v>       0.00000000       0.00000000       0.00000000 </v>
   <v>       0.50000000       0.50000000       0.00000000 </v>
   <v>       0.50000000       0.00000000       0.50000000 </v>
   <v>       0.00000000       0.50000000       0.50000000 </v>
   <v>       0.25000000       0.25000000       0.25000000 </v>
   <v>       0.75000000       0.25000000       0.75000000 </v>
   <v>       0.75000000       0.75000000       0.25000000 </v>
   <v>       0.25000000       0.75000000       0.75000000 </v>
  </varray>
 </structure>
 <calculation>
  <scstep>
   <time name="dav">    0.18    0.19</time>
   <time name="total">    0.19    0.21</time>
   <energy>
    <i name="alphaZ">     82.12872199 </i>
    <i name="ewald">   -941.78307081 </i>
    <i name="hartreedc">    -64.07113845 </i>
    <i name="XCdc">   -122.99443074 </i>
    <i name="pawpsdc">    836.52070738 </i>
    <i name="pawaedc">   -655.99241954 </i>
    <i name="eentropy">      0.00000000 </i>
    <i name="bandstr">     51.51240084 </i>
    <i name="atom">    916.21663293 </i>
    <i name="e_fr_energy">    101.53740359 </i>
    <i name="e_wo_entrp">    101.53740359 </i>
    <i name="e_0_energy">    101.53740359 </i>
   </energy>
  </scstep>
  <scstep>
   <time name="dav">    0.21    0.22</time>
   <time name="total">    0.21    0.22</time>
   <energy>
    <i name="e_fr_energy">    -25.57999943 </i>
    <i name="e_wo_entrp">    -25.57999943 </i>
    <i name="e_0_energy">    -25.57999943 </i>
   </energy>
  </scstep>
  <scstep>
   <time name="dav">    0.20    0.21</time>
   <time name="total">    0.20    0.21</time>
   <energy>
    <i name="e_fr_energy">    -33.07963079 </i>
    <i name="e_wo_entrp">    -33.07963079 </i>
    <i name="e_0_energy">    -33.07963079 </i>
   </energy>
  </scstep>
  <scstep>
   <time name="dav">    0.20    0.21</time>
   <time name="total">    0.20    0.21</time>
   <energy>
    <i name="e_fr_energy">    -33.17433047 </i>
    <i name="e_wo_entrp">    -33.17433047 </i>
    <i name="e_0_energy">    -33.17433047 </i>
   </energy>
  </scstep>
  <scstep>
   <time name="dav">    0.20    0.21</time>
   <time name="total">    0.21    0.23</time>
   <energy>
    <i name="e_fr_energy">    -33.17565209 </i>
    <i name="e_wo_entrp">    -33.17565209 </i>
    <i name="e_0_energy">    -33.17565209 </i>
   </energy>
  </scstep>
  <scstep>
   <time name="dav">    0.18    0.20</time>
   <time name="total">    0.21    0.22</time>
   <energy>
    <i name="e_fr_energy">    -32.51686772 </i>
    <i name="e_wo_entrp">    -32.51686772 </i>
    <i name="e_0_energy">    -32.51686772 </i>
   </energy>
  </scstep>
  <scstep>
   <time name="dav">    0.20    0.21</time>
   <time name="total">    0.22    0.23</time>
   <energy>
    <i name="e_fr_energy">    -32.33731016 </i>
    <i name="e_wo_entrp">    -32.33731016 </i>
    <i name="e_0_energy">    -32.33731016 </i>
   </energy>
  </scstep>
  <scstep>
   <time name="dav">    0.19    0.20</time>
   <time name="total">    0.21    0.22</time>
   <energy>
    <i name="e_fr_energy">    -32.33422394 </i>
    <i name="e_wo_entrp">    -32.33422394 </i>
    <i name="e_0_energy">    -32.33422394 </i>
   </energy>
  </scstep>
  <scstep>
   <time name="dav">    0.20    0.21</time>
   <time name="total">    0.22    0.24</time>
   <energy>
    <i name="e_fr_energy">    -32.33514540 </i>
    <i name="e_wo_entrp">    -32.33514540 </i>
    <i name="e_0_energy">    -32.33514540 </i>
   </energy>
  </scstep>
  <scstep>
   <time name="dav">    0.18    0.19</time>
   <time name="total">    0.20    0.21</time>
   <energy>
    <i name="e_fr_energy">    -32.33533162 </i>
    <i name="e_wo_entrp">    -32.33533162 </i>
    <i name="e_0_energy">    -32.33533162 </i>
   </energy>
  </scstep>
  <scstep>
   <time name="dav">    0.15    0.16</time>
   <time name="total">    0.16    0.18</time>
   <energy>
    <i name="alphaZ">     82.12872199 </i>
    <i name="ewald">   -941.78307081 </i>
    <i name="hartreedc">    -78.90055690 </i>
    <i name="XCdc">   -120.02886687 </i>
    <i name="pawpsdc">   2306.63669400 </i>
    <i name="pawaedc">  -2128.13334541 </i>
    <i name="eentropy">      0.00000000 </i>
    <i name="bandstr">    -68.47157335 </i>
    <i name="atom">    916.21663293 </i>
    <i name="e_fr_energy">    -32.33536442 </i>
    <i name="e_wo_entrp">    -32.33536442 </i>
    <i name="e_0_energy">    -32.33536442 </i>
   </energy>
  </scstep>
  <structure>
   <crystal>
    <varray name="basis" >
     <v>       5.50264006       0.00000000       0.00000000 </v>
     <v>       0.00000000       5.50264006       0.00000000 </v>
     <v>       0.00000000       0.00000000       5.50264006 </v>
    </varray>
    <i name="volume">    166.61470049 </i>
    <varray name="rec_basis" >
     <v>       0.18173095       0.00000000       0.00000000 </v>
     <v>       0.00000000       0.18173095       0.00000000 </v>
     <v>       0.00000000       0.00000000       0.18173095 </v>
    </varray>
   </crystal>
   <varray name="positions" >
    <v>       0.00000000       0.00000000       0.00000000 </v>
    <v>       0.50000000       0.50000000       0.00000000 </v>
    <v>       0.50000000       0.00000000       0.50000000 </v>
    <v>       0.00000000       0.50000000       0.50000000 </v>
    <v>       0.25000000       0.25000000       0.25000000 </v>
    <v>       0.75000000       0.25000000       0.75000000 </v>
    <v>       0.75000000       0.75000000       0.25000000 </v>
    <v>       0.25000000       0.75000000       0.75000000 </v>
   </varray>
  </structure>
  <varray name="forces" >
   <v>      -0.00000000       0.00000000       0.00000000 </v>
   <v>       0.00000000      -0.00000000      -0.00000000 </v>
   <v>       0.00000000      -0.00000000       0.00000000 </v>
   <v>       0.00000000       0.00000000       0.00000000 </v>
   <v>      -0.00000000      -0.00000000      -0.00000000 </v>
   <v>      -0.00000000      -0.00000000      -0.00000000 </v>
   <v>      -0.00000000      -0.00000000      -0.00000000 </v>
   <v>      -0.00000000      -0.00000000      -0.00000000 </v>
  </varray>
  <varray name="stress" >
   <v>     119.17220868      -0.00000000       0.00000000 </v>
   <v>       0.00000000     119.17220868       0.00000000 </v>
   <v>       0.00000000      -0.00000000     119.17220868 </v>
  </varray>
  <energy>
   <i name="e_fr_energy">    -21.93609728 </i>
   <i name="e_wo_entrp">    -21.93609728 </i>
   <i name="e_0_energy">    -21.93609728 </i>
  </energy>
  <time name="totalsc">    2.66    2.84</time>
 </calculation>
 <calculation>
  <scstep>
   <time name="dav">    0.19    0.20</time>
   <time name="total">    0.21    0.22</time>
   <energy>
    <i name="alphaZ">     81.53909532 </i>
    <i name="ewald">   -939.52387485 </i>
    <i name="hartreedc">    -78.71914267 </i>
    <i name="XCdc">   -120.08730605 </i>
    <i name="pawpsdc">   2306.84519818 </i>
    <i name="pawaedc">  -2128.34266631 </i>
    <i name="eentropy">      0.00000000 </i>
    <i name="bandstr">    -70.35214415 </i>
    <i name="atom">    916.21663293 </i>
    <i name="e_fr_energy">    -32.42420759 </i>
    <i name="e_wo_entrp">    -32.42420759 </i>
    <i name="e_0_energy">    -32.42420759 </i>
   </energy>
  </scstep>
  <scstep>
   <time name="dav">    0.18    0.20</time>
   <time name="total">    0.20    0.22</time>
   <energy>
    <i name="e_fr_energy">    -32.42243376 </i>
    <i name="e_wo_entrp">    -32.42243376 </i>
    <i name="e_0_energy">    -32.42243376 </i>
   </energy>
  </scstep>
  <scstep>
   <time name="dav">    0.19    0.20</time>
   <time name="total">    0.21    0.22</time>
   <energy>
    <i name="e_fr_energy">    -32.42181509 </i>
    <i name="e_wo_entrp">    -32.42181509 </i>
    <i name="e_0_energy">    -32.42181509 </i>
   </energy>
  </scstep>
  <scstep>
   <time name="dav">    0.13    0.14</time>
   <time name="total">    0.14    0.16</time>
   <energy>
    <i name="alphaZ">     81.53909532 </i>
    <i name="ewald">   -939.52387485 </i>
    <i name="hartreedc">    -79.39675718 </i>
    <i name="XCdc">   -120.11360632 </i>
    <i name="pawpsdc">   2278.03296668 </i>
    <i name="pawaedc">  -2099.50449091 </i>
    <i name="eentropy">      0.00000000 </i>
    <i name="bandstr">    -69.67175801 </i>
    <i name="atom">    916.21663293 </i>
    <i name="e_fr_energy">    -32.42179233 </i>
    <i name="e_wo_entrp">    -32.42179233 </i>
    <i name="e_0_energy">    -32.42179233 </i>
   </energy>
  </scstep>
  <structure>
   <crystal>
    <varray name="basis" >
     <v>       5.51587181      -0.00000000       0.00000000 </v>
     <v>       0.00000000       5.51587181       0.00000000 </v>
     <v>       0.00000000      -0.00000000       5.51587181 </v>
    </varray>
    <i name="volume">    167.81952709 </i>
    <varray name="rec_basis" >
     <v>       0.18129500      -0.00000000      -0.00000000 </v>
     <v>       0.00000000       0.18129500       0.00000000 </v>
     <v>      -0.00000000       0.00000000       0.18129500 </v>
    </varray>
   </crystal>
   <varray name="positions" >
    <v>       1.00000000       0.00000000       0.00000000 </v>
    <v>       0.50000000       0.50000000       1.00000000 </v>
    <v>       0.50000000       1.00000000       0.50000000 </v>
    <v>       0.00000000       0.50000000       0.50000000 </v>
    <v>       0.25000000       0.25000000       0.25000000 </v>
    <v>       0.75000000       0.25000000       0.75000000 </v>
    <v>       0.75000000       0.75000000       0.25000000 </v>
    <v>       0.25000000       0.75000000       0.75000000 </v>
   </varray>
  </structure>
  <varray name="forces" >
   <v>       0.00000000       0.00000000      -0.00000000 </v>
   <v>      -0.00000000      -0.00000000      -0.00000000 </v>
   <v>       0.00000000      -0.00000000      -0.00000000 </v>
   <v>      -0.00000000       0.00000000       0.00000000 </v>
   <v>       0.00000000       0.00000000       0.00000000 </v>
   <v>       0.00000000       0.00000000       0.00000000 </v>
   <v>      -0.00000000      -0.00000000      -0.00000000 </v>
   <v>       0.00000000       0.00000000       0.00000000 </v>
  </varray>
  <varray name="stress" >
   <v>     111.10642369       0.00000000      -0.00000000 </v>
   <v>       0.00000000     111.10642369       0.00000000 </v>
   <v>      -0.00000000      -0.00000000     111.10642369 </v>
  </varray>
  <energy>
   <i name="e_fr_energy">    -21.94732587 </i>
   <i name="e_wo_entrp">    -21.94732587 </i>
   <i name="e_0_energy">    -21.94732587 </i>
  </energy>
  <time name="totalsc">    1.07    1.15</time>
 </calculation>
 <calculation>
  <scstep>
   <time name="dav">    0.19    0.20</time>
   <time name="total">    0.21    0.22</time>
   <energy>
    <i name="alphaZ">     80.72254942 </i>
    <i name="ewald">   -936.37716530 </i>
    <i name="hartreedc">    -79.15180560 </i>
    <i name="XCdc">   -120.20043723 </i>
    <i name="pawpsdc">   2277.07329384 </i>
    <i name="pawaedc">  -2098.53846532 </i>
    <i name="eentropy">      0.00000000 </i>
    <i name="bandstr">    -72.28266340 </i>
    <i name="atom">    916.21663293 </i>
    <i name="e_fr_energy">    -32.53806066 </i>
    <i name="e_wo_entrp">    -32.53806066 </i>
    <i name="e_0_energy">    -32.53806066 </i>
   </energy>
  </scstep>
  <scstep>
   <time name="dav">    0.18    0.19</time>
   <time name="total">    0.20    0.21</time>
   <energy>
    <i name="e_fr_energy">    -32.53469644 </i>
    <i name="e_wo_entrp">    -32.53469644 </i>
    <i name="e_0_energy">    -32.53469644 </i>
   </energy>
  </scstep>
  <scstep>
   <time name="dav">    0.18    0.20</time>
   <time name="total">    0.21    0.22</time>
   <energy>
    <i name="e_fr_energy">    -32.53352001 </i>
    <i name="e_wo_entrp">    -32.53352001 </i>
    <i name="e_0_energy">    -32.53352001 </i>
   </energy>
  </scstep>
  <scstep>
   <time name="dav">    0.15    0.16</time>
   <time name="total">    0.16    0.17</time>
   <energy>
    <i name="alphaZ">     80.72254942 </i>
    <i name="ewald">   -936.37716530 </i>
    <i name="hartreedc">    -80.09297462 </i>
    <i name="XCdc">   -120.23718453 </i>
    <i name="pawpsdc">   2238.76972780 </i>
    <i name="pawaedc">  -2060.19863976 </i>
    <i name="eentropy">      0.00000000 </i>
    <i name="bandstr">    -71.33642367 </i>
    <i name="atom">    916.21663293 </i>
    <i name="e_fr_energy">    -32.53347772 </i>
    <i name="e_wo_entrp">    -32.53347772 </i>
    <i name="e_0_energy">    -32.53347772 </i>
   </energy>
  </scstep>
  <structure>
   <crystal>
    <varray name="basis" >
     <v>       5.53440798      -0.00000000       0.00000000 </v>
     <v>       0.00000000       5.53440798       0.00000000 </v>
     <v>       0.00000000      -0.00000000       5.53440798 </v>
    </varray>
    <i name="volume">    169.51709919 </i>
    <varray name="rec_basis" >
     <v>       0.18068780      -0.00000000      -0.00000000 </v>
     <v>       0.00000000       0.18068780       0.00000000 </v>
     <v>      -0.00000000       0.00000000       0.18068780 </v>
    </varray>
   </crystal>
   <varray name="positions" >
    <v>       0.00000000       0.00000000       0.00000000 </v>
    <v>       0.50000000       0.50000000       0.00000000 </v>
    <v>       0.50000000       0.00000000       0.50000000 </v>
    <v>       0.00000000       0.50000000       0.50000000 </v>
    <v>       0.25000000       0.25000000       0.25000000 </v>
    <v>       0.75000000       0.25000000       0.75000000 </v>
    <v>       0.75000000       0.75000000       0.25000000 </v>
    <v>       0.25000000       0.75000000       0.75000000 </v>
   </varray>
  </structure>
  <varray name="forces" >
   <v>      -0.00000000       0.00000000      -0.00000000 </v>
   <v>      -0.00000000       0.00000000      -0.00000000 </v>
   <v>      -0.00000000      -0.00000000      -0.00000000 </v>
   <v>      -0.00000000      -0.00000000      -0.00000000 </v>
   <v>       0.00000000       0.00000000       0.00000000 </v>
   <v>       0.00000000      -0.00000000       0.00000000 </v>
   <v>       0.00000000      -0.00000000       0.00000000 </v>
   <v>       0.00000000      -0.00000000       0.00000000 </v>
  </varray>
  <varray name="stress" >
   <v>     100.25707046      -0.00000000       0.00000000 </v>
   <v>       0.00000000     100.25707046       0.00000000 </v>
   <v>      -0.00000000      -0.00000000     100.25707046 </v>
  </varray>
  <energy>
   <i name="e_fr_energy">    -21.95305719 </i>
   <i name="e_wo_entrp">    -21.95305719 </i>
   <i name="e_0_energy">    -21.95305719 </i>
  </energy>
  <time name="totalsc">    1.09    1.17</time>
  <eigenvalues>
   <array>
    <dimension dim="1">band</dimension>
    <dimension dim="2">kpoint</dimension>
    <dimension dim="3">spin</dimension>
    <field>eigene</field>
    <field>occ</field>
    <set>
     <set comment="spin 1">
      <set comment="kpoint 1">
       <r>   -9.8878    1.0000 </r>
       <r>   -7.2639    1.0000 </r>
       <r>   -7.2639    1.0000 </r>
       <r>   -7.2639    1.0000 </r>
       <r>   -3.7983    1.0000 </r>
       <r>   -3.7983    1.0000 </r>
       <r>   -3.7983    1.0000 </r>
       <r>    0.3977    1.0000 </r>
       <r>    0.3977    1.0000 </r>
       <r>    0.3977    1.0000 </r>
       <r>    0.3977    1.0000 </r>
       <r>    0.3977    1.0000 </r>
       <r>    0.3977    1.0000 </r>
       <r>    3.2965    1.0000 </r>
       <r>    3.2965    1.0000 </r>
       <r>    3.2965    1.0000 </r>
       <r>    4.3735    0.0000 </r>
       <r>    4.6351    0.0000 </r>
       <r>    4.6351    0.0000 </r>
       <r>    4.6351    0.0000 </r>
       <r>    4.9336    0.0000 </r>
       <r>    4.9336    0.0000 </r>
       <r>    4.9336    0.0000 </r>
       <r>    7.0779    0.0000 </r>
      </set>
      <set comment="kpoint 2">
       <r>   -9.7318    1.0000 </r>
       <r>   -7.7299    1.0000 </r>
       <r>   -7.2448    1.0000 </r>
       <r>   -7.2448    1.0000 </r>
       <r>   -3.7257    1.0000 </r>
       <r>   -3.7257    1.0000 </r>
       <r>   -3.1219    1.0000 </r>
       <r>    0.0270    1.0000 </r>
       <r>    0.0270    1.0000 </r>
       <r>    0.1003    1.0000 </r>
       <r>    0.1003    1.0000 </r>
       <r>    0.5726    1.0000 </r>
       <r>    0.5726    1.0000 </r>
       <r>    1.8482    1.0000 </r>
       <r>    2.7891    1.0000 </r>
       <r>    2.7891    1.0000 </r>
       <r>    4.6360    0.0000 </r>
       <r>    5.3804    0.0000 </r>
       <r>    5.4247    0.0000 </r>
       <r>    5.4247    0.0000 </r>
       <r>    5.7348    0.0000 </r>
       <r>    5.7348    0.0000 </r>
       <r>    5.7388    0.0000 </r>
       <r>    6.5868    0.0000 </r>
      </set>
      <set comment="kpoint 3">
       <r>   -9.2747    1.0000 </r>
       <r>   -8.5606    1.0000 </r>
       <r>   -7.2133    1.0000 </r>
       <r>   -7.2133    1.0000 </r>
       <r>   -3.5919    1.0000 </r>
       <r>   -3.5919    1.0000 </r>
       <r>   -1.6733    1.0000 </r>
       <r>   -0.4842    1.0000 </r>
       <r>   -0.4842    1.0000 </r>
       <r>   -0.2854    1.0000 </r>
       <r>   -0.2854    1.0000 </r>
       <r>    0.0394    1.0000 </r>
       <r>    1.0833    1.0000 </r>
       <r>    1.0833    1.0000 </r>
       <r>    1.8758    1.0000 </r>
       <r>    1.8758    1.0000 </r>
       <r>    4.9560    0.0000 </r>
       <r>    5.6206    0.0000 </r>
       <r>    6.3019    0.0000 </r>
       <r>    6.9174    0.0000 </r>
       <r>    7.2565    0.0000 </r>
       <r>    7.2565    0.0000 </r>
       <r>    7.5432    0.0000 </r>
       <r>    7.5432    0.0000 </r>
      </set>
      <set comment="kpoint 4">
       <r>   -9.5795    1.0000 </r>
       <r>   -7.6664    1.0000 </r>
       <r>   -7.6664    1.0000 </r>
       <r>   -7.2677    1.0000 </r>
       <r>   -3.6549    1.0000 </r>
       <r>   -3.1622    1.0000 </r>
       <r>   -3.1622    1.0000 </r>
       <r>   -0.6780    1.0000 </r>
       <r>    0.1128    1.0000 </r>
       <r>    0.1128    1.0000 </r>
       <r>    0.4450    1.0000 </r>
       <r>    0.4450    1.0000 </r>
       <r>    0.6896    1.0000 </r>
       <r>    0.8132    1.0000 </r>
       <r>    2.2550    1.0000 </r>
       <r>    3.1131    1.0000 </r>
       <r>    5.0653    0.0000 </r>
       <r>    5.4827    0.0000 </r>
       <r>    5.4827    0.0000 </r>
       <r>    5.7453    0.0000 </r>
       <r>    6.0850    0.0000 </r>
       <r>    6.0850    0.0000 </r>
       <r>    7.1485    0.0000 </r>
       <r>    7.3032    0.0000 </r>
      </set>
      <set comment="kpoint 5">
       <r>   -9.1348    1.0000 </r>
       <r>   -8.4473    1.0000 </r>
       <r>   -7.5121    1.0000 </r>
       <r>   -7.3558    1.0000 </r>
       <r>   -3.4840    1.0000 </r>
       <r>   -3.2942    1.0000 </r>
       <r>   -1.9698    1.0000 </r>
       <r>   -0.9455    1.0000 </r>
       <r>   -0.6055    1.0000 </r>
       <r>   -0.6022    1.0000 </r>
       <r>    0.3966    1.0000 </r>
       <r>    0.5596    1.0000 </r>
       <r>    0.6284    1.0000 </r>
       <r>    1.2447    1.0000 </r>
       <r>    1.3279    1.0000 </r>
       <r>    2.3246    1.0000 </r>
       <r>    5.8291    0.0000 </r>
       <r>    6.1272    0.0000 </r>
       <r>    6.3747    0.0000 </r>
       <r>    6.8096    0.0000 </r>
       <r>    6.8196    0.0000 </r>
       <r>    7.3081    0.0000 </r>
       <r>    7.7071    0.0000 </r>
       <r>    8.5106    0.0000 </r>
      </set>
      <set comment="kpoint 6">
       <r>   -8.7328    1.0000 </r>
       <r>   -8.1357    1.0000 </r>
       <r>   -8.1357    1.0000 </r>
       <r>   -7.7182    1.0000 </r>
       <r>   -3.1416    1.0000 </r>
       <r>   -2.5819    1.0000 </r>
       <r>   -2.5819    1.0000 </r>
       <r>   -1.6421    1.0000 </r>
       <r>   -0.8781    1.0000 </r>
       <r>   -0.2963    1.0000 </r>
       <r>   -0.2963    1.0000 </r>
       <r>    0.4107    1.0000 </r>
       <r>    1.4773    1.0000 </r>
       <r>    1.5429    1.0000 </r>
       <r>    1.5429    1.0000 </r>
       <r>    2.4499    1.0000 </r>
       <r>    5.8317    0.0000 </r>
       <r>    6.3090    0.0000 </r>
       <r>    6.8292    0.0000 </r>
       <r>    6.8292    0.0000 </r>
       <r>    7.8529    0.0000 </r>
       <r>    7.8529    0.0000 </r>
       <r>    8.3753    0.0000 </r>
       <r>    8.4179    0.0000 </r>
      </set>
      <set comment="kpoint 7">
       <r>   -9.4316    1.0000 </r>
       <r>   -7.6337    1.0000 </r>
       <r>   -7.6337    1.0000 </r>
       <r>   -7.6337    1.0000 </r>
       <r>   -3.2510    1.0000 </r>
       <r>   -3.2510    1.0000 </r>
       <r>   -3.2510    1.0000 </r>
       <r>   -0.3167    1.0000 </r>
       <r>   -0.3167    1.0000 </r>
       <r>   -0.3167    1.0000 </r>
       <r>   -0.0747    1.0000 </r>
       <r>    0.8500    1.0000 </r>
       <r>    0.8500    1.0000 </r>
       <r>    0.8500    1.0000 </r>
       <r>    2.7470    1.0000 </r>
       <r>    2.7470    1.0000 </r>
       <r>    5.1703    0.0000 </r>
       <r>    5.2575    0.0000 </r>
       <r>    5.2575    0.0000 </r>
       <r>    5.2575    0.0000 </r>
       <r>    7.3342    0.0000 </r>
       <r>    7.3342    0.0000 </r>
       <r>    7.3342    0.0000 </r>
       <r>    7.8233    0.0000 </r>
      </set>
      <set comment="kpoint 8">
       <r>   -9.0026    1.0000 </r>
       <r>   -8.3497    1.0000 </r>
       <r>   -7.5782    1.0000 </r>
       <r>   -7.5782    1.0000 </r>
       <r>   -3.4096    1.0000 </r>
       <r>   -3.4096    1.0000 </r>
       <r>   -2.3761    1.0000 </r>
       <r>   -1.2981    1.0000 </r>
       <r>   -0.5077    1.0000 </r>
       <r>   -0.5077    1.0000 </r>
       <r>    0.6762    1.0000 </r>
       <r>    0.8751    1.0000 </r>
       <r>    0.8751    1.0000 </r>
       <r>    1.3122    1.0000 </r>
       <r>    1.9846    1.0000 </r>
       <r>    2.0059    1.0000 </r>
       <r>    5.7377    0.0000 </r>
       <r>    5.7460    0.0000 </r>
       <r>    6.2675    0.0000 </r>
       <r>    6.2675    0.0000 </r>
       <r>    7.3845    0.0000 </r>
       <r>    7.6470    0.0000 </r>
       <r>    8.2657    0.0000 </r>
       <r>    8.2657    0.0000 </r>
      </set>
      <set comment="kpoint 9">
       <r>   -8.6282    1.0000 </r>
       <r>   -8.0932    1.0000 </r>
       <r>   -8.0932    1.0000 </r>
       <r>   -7.7894    1.0000 </r>
       <r>   -3.4220    1.0000 </r>
       <r>   -3.0364    1.0000 </r>
       <r>   -3.0364    1.0000 </r>
       <r>   -2.2946    1.0000 </r>
       <r>   -0.1461    1.0000 </r>
       <r>    0.3699    1.0000 </r>
       <r>    0.3699    1.0000 </r>
       <r>    1.2434    1.0000 </r>
       <r>    1.5758    1.0000 </r>
       <r>    1.6181    1.0000 </r>
       <r>    1.6181    1.0000 </r>
       <r>    2.3726    1.0000 </r>
       <r>    5.5315    0.0000 </r>
       <r>    5.8656    0.0000 </r>
       <r>    6.2238    0.0000 </r>
       <r>    6.2238    0.0000 </r>
       <r>    7.5348    0.0000 </r>
       <r>    7.5348    0.0000 </r>
       <r>    8.1053    0.0000 </r>
       <r>    8.1369    0.0000 </r>
      </set>
      <set comment="kpoint 10">
       <r>   -8.3516    1.0000 </r>
       <r>   -8.0200    1.0000 </r>
       <r>   -8.0200    1.0000 </r>
       <r>   -8.0200    1.0000 </r>
       <r>   -3.5539    1.0000 </r>
       <r>   -3.5539    1.0000 </r>
       <r>   -3.5539    1.0000 </r>
       <r>   -3.1361    1.0000 </r>
       <r>    1.2524    1.0000 </r>
       <r>    1.2524    1.0000 </r>
       <r>    1.2524    1.0000 </r>
       <r>    1.8342    1.0000 </r>
       <r>    1.8342    1.0000 </r>
       <r>    1.8342    1.0000 </r>
       <r>    2.1447    1.0000 </r>
       <r>    2.1447    1.0000 </r>
       <r>    4.6094    0.0000 </r>
       <r>    5.3450    0.0000 </r>
       <r>    5.3450    0.0000 </r>
       <r>    5.3450    0.0000 </r>
       <r>    7.6938    0.0000 </r>
       <r>    7.6938    0.0000 </r>
       <r>    7.6938    0.0000 </r>
       <r>    8.0257    0.0000 </r>
      </set>
     </set>
    </set>
   </array>
  </eigenvalues>
  <separator name="orbital magnetization" >
   <v name="MAGDIPOLOUT">      0.00000000      0.00000000      0.00000000</v>
  </separator>
  <dos>
   <i name="efermi">      3.32519097 </i>
   <total>
    <array>
     <dimension dim="1">gridpoints</dimension>
     <dimension dim="2">spin</dimension>
     <field>energy</field>
     <field>total</field>
     <field>integrated</field>
     <set>
      <set comment="spin 1">
       <r>   -10.8878     0.0000     0.0000 </r>
       <r>   -10.8198     0.0000     0.0000 </r>
       <r>   -10.7518     0.0000     0.0000 </r>
       <r>   -10.6838     0.0000     0.0000 </r>
       <r>   -10.6158     0.0000     0.0000 </r>
       <r>   -10.5478     0.0000     0.0000 </r>
       <r>   -10.4799     0.0000     0.0000 </r>
       <r>   -10.4119     0.0000     0.0000 </r>
       <r>   -10.3439     0.0000     0.0000 </r>
       <r>   -10.2759     0.0000     0.0000 </r>
       <r>   -10.2079     0.0000     0.0000 </r>
       <r>   -10.1399     0.0000     0.0000 </r>
       <r>   -10.0719     0.0000     0.0000 </r>
       <r>   -10.0039     0.0000     0.0000 </r>
       <r>    -9.9359     0.0000     0.0000 </r>
       <r>    -9.8679     0.0068     0.0000 </r>
       <r>    -9.7999     0.1327     0.0039 </r>
       <r>    -9.7319     0.4174     0.0217 </r>
       <r>    -9.6639     0.7136     0.0611 </r>
       <r>    -9.5959     0.8478     0.1151 </r>
       <r>    -9.5279     0.8763     0.1736 </r>
       <r>    -9.4599     0.9598     0.2356 </r>
       <r>    -9.3919     1.0981     0.3054 </r>
       <r>    -9.3239     1.2504     0.3852 </r>
       <r>    -9.2559     1.5906     0.4774 </r>
       <r>    -9.1880     2.2740     0.6099 </r>
       <r>    -9.1200     2.6071     0.7812 </r>
       <r>    -9.0520     2.1952     0.9440 </r>
       <r>    -8.9840     1.9477     1.0824 </r>
       <r>    -8.9160     1.9328     1.2144 </r>
       <r>    -8.8480     1.8942     1.3447 </r>
       <r>    -8.7800     1.8320     1.4715 </r>
       <r>    -8.7120     2.4695     1.6103 </r>
       <r>    -8.6440     1.7977     1.7549 </r>
       <r>    -8.5760     0.9897     1.8386 </r>
       <r>    -8.5080     1.6401     1.9207 </r>
       <r>    -8.4400     2.7753     2.0688 </r>
       <r>    -8.3720     3.0155     2.2666 </r>
       <r>    -8.3040     3.2524     2.4808 </r>
       <r>    -8.2360     3.4057     2.6996 </r>
       <r>    -8.1680     3.7187     2.9422 </r>
       <r>    -8.1000     7.9001     3.3543 </r>
       <r>    -8.0320     5.9332     3.8444 </r>
       <r>    -7.9640     4.1477     4.1483 </r>
       <r>    -7.8961     3.7104     4.3912 </r>
       <r>    -7.8281     4.0326     4.6541 </r>
       <r>    -7.7601     5.8243     4.9755 </r>
       <r>    -7.6921     6.8212     5.4148 </r>
       <r>    -7.6241     7.1237     5.8751 </r>
       <r>    -7.5561     7.5573     6.3933 </r>
       <r>    -7.4881     5.4041     6.8393 </r>
       <r>    -7.4201     4.9610     7.1915 </r>
       <r>    -7.3521     4.7476     7.5152 </r>
       <r>    -7.2841     3.8787     7.8068 </r>
       <r>    -7.2161     0.9791     7.9999 </r>
       <r>    -7.1481     0.0000     8.0000 </r>
       <r>    -7.0801     0.0000     8.0000 </r>
       <r>    -7.0121     0.0000     8.0000 </r>
       <r>    -6.9441     0.0000     8.0000 </r>
       <r>    -6.8761     0.0000     8.0000 </r>
       <r>    -6.8081     0.0000     8.0000 </r>
       <r>    -6.7401     0.0000     8.0000 </r>
       <r>    -6.6722     0.0000     8.0000 </r>
       <r>    -6.6042     0.0000     8.0000 </r>
       <r>    -6.5362     0.0000     8.0000 </r>
       <r>    -6.4682     0.0000     8.0000 </r>
       <r>    -6.4002     0.0000     8.0000 </r>
       <r>    -6.3322     0.0000     8.0000 </r>
       <r>    -6.2642     0.0000     8.0000 </r>
       <r>    -6.1962     0.0000     8.0000 </r>
       <r>    -6.1282     0.0000     8.0000 </r>
       <r>    -6.0602     0.0000     8.0000 </r>
       <r>    -5.9922     0.0000     8.0000 </r>
       <r>    -5.9242     0.0000     8.0000 </r>
       <r>    -5.8562     0.0000     8.0000 </r>
       <r>    -5.7882     0.0000     8.0000 </r>
       <r>    -5.7202     0.0000     8.0000 </r>
       <r>    -5.6522     0.0000     8.0000 </r>
       <r>    -5.5842     0.0000     8.0000 </r>
       <r>    -5.5162     0.0000     8.0000 </r>
       <r>    -5.4482     0.0000     8.0000 </r>
       <r>    -5.3803     0.0000     8.0000 </r>
       <r>    -5.3123     0.0000     8.0000 </r>
       <r>    -5.2443     0.0000     8.0000 </r>
       <r>    -5.1763     0.0000     8.0000 </r>
       <r>    -5.1083     0.0000     8.0000 </r>
       <r>    -5.0403     0.0000     8.0000 </r>
       <r>    -4.9723     0.0000     8.0000 </r>
       <r>    -4.9043     0.0000     8.0000 </r>
       <r>    -4.8363     0.0000     8.0000 </r>
       <r>    -4.7683     0.0000     8.0000 </r>
       <r>    -4.7003     0.0000     8.0000 </r>
       <r>    -4.6323     0.0000     8.0000 </r>
       <r>    -4.5643     0.0000     8.0000 </r>
       <r>    -4.4963     0.0000     8.0000 </r>
       <r>    -4.4283     0.0000     8.0000 </r>
       <r>    -4.3603     0.0000     8.0000 </r>
       <r>    -4.2923     0.0000     8.0000 </r>
       <r>    -4.2243     0.0000     8.0000 </r>
       <r>    -4.1563     0.0000     8.0000 </r>
       <r>    -4.0884     0.0000     8.0000 </r>
       <r>    -4.0204     0.0000     8.0000 </r>
       <r>    -3.9524     0.0000     8.0000 </r>
       <r>    -3.8844     0.0000     8.0000 </r>
       <r>    -3.8164     0.0000     8.0000 </r>
       <r>    -3.7484     0.4416     8.0074 </r>
       <r>    -3.6804     1.5501     8.0819 </r>
       <r>    -3.6124     2.1463     8.1999 </r>
       <r>    -3.5444     6.2181     8.4663 </r>
       <r>    -3.4764     9.7523     8.9738 </r>
       <r>    -3.4084     9.6775     9.8386 </r>
       <r>    -3.3404     8.8525    10.4268 </r>
       <r>    -3.2724     7.4292    11.0143 </r>
       <r>    -3.2044     5.5705    11.4529 </r>
       <r>    -3.1364     4.6074    11.7998 </r>
       <r>    -3.0684     3.4445    12.0525 </r>
       <r>    -3.0004     2.6485    12.2497 </r>
       <r>    -2.9324     2.5820    12.4275 </r>
       <r>    -2.8644     2.5198    12.6009 </r>
       <r>    -2.7965     2.4619    12.7702 </r>
       <r>    -2.7285     2.4083    12.9358 </r>
       <r>    -2.6605     2.3590    13.0978 </r>
       <r>    -2.5925     2.3141    13.2567 </r>
       <r>    -2.5245     1.8595    13.3886 </r>
       <r>    -2.4565     1.8237    13.5139 </r>
       <r>    -2.3885     1.7820    13.6365 </r>
       <r>    -2.3205     1.7135    13.7555 </r>
       <r>    -2.2525     1.6543    13.8701 </r>
       <r>    -2.1845     1.5770    13.9800 </r>
       <r>    -2.1165     1.4929    14.0844 </r>
       <r>    -2.0485     1.4019    14.1829 </r>
       <r>    -1.9805     1.3040    14.2749 </r>
       <r>    -1.9125     1.2534    14.3640 </r>
       <r>    -1.8445     1.1249    14.4448 </r>
       <r>    -1.7765     1.0142    14.5174 </r>
       <r>    -1.7085     0.9213    14.5831 </r>
       <r>    -1.6405     0.7625    14.6439 </r>
       <r>    -1.5726     0.7939    14.6968 </r>
       <r>    -1.5046     0.8263    14.7519 </r>
       <r>    -1.4366     0.8595    14.8092 </r>
       <r>    -1.3686     0.8936    14.8688 </r>
       <r>    -1.3006     0.9287    14.9307 </r>
       <r>    -1.2326     0.9762    14.9954 </r>
       <r>    -1.1646     1.0386    15.0638 </r>
       <r>    -1.0966     1.1156    15.1370 </r>
       <r>    -1.0286     1.2072    15.2159 </r>
       <r>    -0.9606     1.3135    15.3015 </r>
       <r>    -0.8926     1.2247    15.3876 </r>
       <r>    -0.8246     1.5184    15.4815 </r>
       <r>    -0.7566     1.8213    15.5946 </r>
       <r>    -0.6886     2.2143    15.7313 </r>
       <r>    -0.6206     2.5813    15.8945 </r>
       <r>    -0.5526     6.9620    16.2623 </r>
       <r>    -0.4846     6.7493    16.7836 </r>
       <r>    -0.4166     6.1632    17.2225 </r>
       <r>    -0.3486     5.4350    17.6178 </r>
       <r>    -0.2807     4.9353    17.9632 </r>
       <r>    -0.2127     4.5985    18.2872 </r>
       <r>    -0.1447     4.0311    18.5888 </r>
       <r>    -0.0767     3.9324    18.8591 </r>
       <r>    -0.0087     3.8930    19.1249 </r>
       <r>     0.0593     4.5258    19.4018 </r>
       <r>     0.1273     4.3149    19.7236 </r>
       <r>     0.1953     4.0216    19.9910 </r>
       <r>     0.2633     4.2061    20.2707 </r>
       <r>     0.3313     4.3976    20.5631 </r>
       <r>     0.3993     5.6477    20.8866 </r>
       <r>     0.4673     6.6953    21.3003 </r>
       <r>     0.5353     7.2896    21.7903 </r>
       <r>     0.6033     6.2209    22.2447 </r>
       <r>     0.6713     7.4393    22.7146 </r>
       <r>     0.7393     6.6069    23.1915 </r>
       <r>     0.8073     5.7332    23.6116 </r>
       <r>     0.8753     5.1031    23.9887 </r>
       <r>     0.9433     4.7040    24.3215 </r>
       <r>     1.0112     4.4124    24.6309 </r>
       <r>     1.0792     4.2283    24.9240 </r>
       <r>     1.1472     4.7737    25.2293 </r>
       <r>     1.2152     5.2352    25.5703 </r>
       <r>     1.2832     5.8929    25.9903 </r>
       <r>     1.3512     5.0471    26.3226 </r>
       <r>     1.4192     5.3412    26.6758 </r>
       <r>     1.4872     6.5476    27.0581 </r>
       <r>     1.5552     8.7461    27.5308 </r>
       <r>     1.6232     5.5102    28.0462 </r>
       <r>     1.6912     4.8615    28.3988 </r>
       <r>     1.7592     4.2254    28.7076 </r>
       <r>     1.8272     3.6018    28.9737 </r>
       <r>     1.8952     3.1101    29.1980 </r>
       <r>     1.9632     2.2178    29.3554 </r>
       <r>     2.0312     2.4358    29.5063 </r>
       <r>     2.0992     3.1876    29.6972 </r>
       <r>     2.1672     4.6441    29.9775 </r>
       <r>     2.2352     4.7545    30.2818 </r>
       <r>     2.3031     5.2296    30.6218 </r>
       <r>     2.3711     5.3928    30.9738 </r>
       <r>     2.4391     3.3652    31.2776 </r>
       <r>     2.5071     1.6085    31.4089 </r>
       <r>     2.5751     1.4102    31.5115 </r>
       <r>     2.6431     1.2165    31.6008 </r>
       <r>     2.7111     1.0274    31.6771 </r>
       <r>     2.7791     0.8667    31.7409 </r>
       <r>     2.8471     0.9409    31.8021 </r>
       <r>     2.9151     0.9228    31.8662 </r>
       <r>     2.9831     0.7794    31.9247 </r>
       <r>     3.0511     0.5104    31.9693 </r>
       <r>     3.1191     0.1457    31.9914 </r>
       <r>     3.1871     0.0554    31.9980 </r>
       <r>     3.2551     0.0079    31.9999 </r>
       <r>     3.3231     0.0000    32.0000 </r>
       <r>     3.3911     0.0000    32.0000 </r>
       <r>     3.4591     0.0000    32.0000 </r>
       <r>     3.5271     0.0000    32.0000 </r>
       <r>     3.5950     0.0000    32.0000 </r>
       <r>     3.6630     0.0000    32.0000 </r>
       <r>     3.7310     0.0000    32.0000 </r>
       <r>     3.7990     0.0000    32.0000 </r>
       <r>     3.8670     0.0000    32.0000 </r>
       <r>     3.9350     0.0000    32.0000 </r>
       <r>     4.0030     0.0000    32.0000 </r>
       <r>     4.0710     0.0000    32.0000 </r>
       <r>     4.1390     0.0000    32.0000 </r>
       <r>     4.2070     0.0000    32.0000 </r>
       <r>     4.2750     0.0000    32.0000 </r>
       <r>     4.3430     0.0000    32.0000 </r>
       <r>     4.4110     0.0038    32.0000 </r>
       <r>     4.4790     0.0298    32.0010 </r>
       <r>     4.5470     0.0806    32.0047 </r>
       <r>     4.6150     0.4973    32.0292 </r>
       <r>     4.6830     0.3528    32.0502 </r>
       <r>     4.7510     0.4568    32.0776 </r>
       <r>     4.8189     0.5878    32.1130 </r>
       <r>     4.8869     0.7458    32.1582 </r>
       <r>     4.9549     0.9309    32.2150 </r>
       <r>     5.0229     1.1291    32.2854 </r>
       <r>     5.0909     1.2457    32.3668 </r>
       <r>     5.1589     1.4077    32.4562 </r>
       <r>     5.2269     1.6668    32.5606 </r>
       <r>     5.2949     2.0219    32.6841 </r>
       <r>     5.3629     4.0405    32.9037 </r>
       <r>     5.4309     5.2976    33.1898 </r>
       <r>     5.4989     4.8126    33.5550 </r>
       <r>     5.5669     6.2570    33.9281 </r>
       <r>     5.6349     7.2419    34.3870 </r>
       <r>     5.7029     8.1094    34.9108 </r>
       <r>     5.7709     9.5272    35.4947 </r>
       <r>     5.8389     6.3568    36.1765 </r>
       <r>     5.9069     5.3815    36.5689 </r>
       <r>     5.9749     5.3377    36.9335 </r>
       <r>     6.0429     5.2513    37.2938 </r>
       <r>     6.1108     5.1619    37.6472 </r>
       <r>     6.1788     4.4294    37.9673 </r>
       <r>     6.2468     9.2976    38.3755 </r>
       <r>     6.3148     7.0120    38.8721 </r>
       <r>     6.3828     4.0164    39.2999 </r>
       <r>     6.4508     3.8228    39.5663 </r>
       <r>     6.5188     3.6472    39.8202 </r>
       <r>     6.5868     3.4897    40.0627 </r>
       <r>     6.6548     3.4096    40.2972 </r>
       <r>     6.7228     3.3415    40.5267 </r>
       <r>     6.7908     3.2851    40.7519 </r>
       <r>     6.8588     2.6462    40.9667 </r>
       <r>     6.9268     2.1119    41.1250 </r>
       <r>     6.9948     2.2602    41.2736 </r>
       <r>     7.0628     2.4130    41.4324 </r>
       <r>     7.1308     2.5719    41.6019 </r>
       <r>     7.1988     2.7910    41.7837 </r>
       <r>     7.2668     3.4797    41.9842 </r>
       <r>     7.3348     3.8940    42.2702 </r>
       <r>     7.4027     4.7637    42.5572 </r>
       <r>     7.4707     5.8416    42.9193 </r>
       <r>     7.5387     9.8962    43.3583 </r>
       <r>     7.6067     9.4741    44.0324 </r>
       <r>     7.6747     6.4038    44.5827 </r>
       <r>     7.7427     4.5054    44.9439 </r>
       <r>     7.8107     3.4010    45.1880 </r>
       <r>     7.8787     2.7301    45.3963 </r>
       <r>     7.9467     3.0687    45.5932 </r>
       <r>     8.0147     3.4541    45.8147 </r>
       <r>     8.0827     5.8845    46.1544 </r>
       <r>     8.1507     6.6579    46.6011 </r>
       <r>     8.2187     5.9482    47.0360 </r>
       <r>     8.2867     4.4941    47.3884 </r>
       <r>     8.3547     3.5612    47.6616 </r>
       <r>     8.4227     2.4260    47.8677 </r>
       <r>     8.4907     0.9778    47.9853 </r>
       <r>     8.5587     0.0000    48.0000 </r>
       <r>     8.6267     0.0000    48.0000 </r>
       <r>     8.6946     0.0000    48.0000 </r>
       <r>     8.7626     0.0000    48.0000 </r>
       <r>     8.8306     0.0000    48.0000 </r>
       <r>     8.8986     0.0000    48.0000 </r>
       <r>     8.9666     0.0000    48.0000 </r>
       <r>     9.0346     0.0000    48.0000 </r>
       <r>     9.1026     0.0000    48.0000 </r>
       <r>     9.1706     0.0000    48.0000 </r>
       <r>     9.2386     0.0000    48.0000 </r>
       <r>     9.3066     0.0000    48.0000 </r>
       <r>     9.3746     0.0000    48.0000 </r>
       <r>     9.4426     0.0000    48.0000 </r>
       <r>     9.5106     0.0000    48.0000 </r>
      </set>
     </set>
    </array>
   </total>
  </dos>
 </calculation>
 <structure name="finalpos" >
  <crystal>
   <varray name="basis" >
    <v>       5.53440798      -0.00000000       0.00000000 </v>
    <v>       0.00000000       5.53440798       0.00000000 </v>
    <v>       0.00000000      -0.00000000       5.53440798 </v>
   </varray>
   <i name="volume">    169.51709919 </i>
   <varray name="rec_basis" >
    <v>       0.18068780      -0.00000000      -0.00000000 </v>
    <v>       0.00000000       0.18068780       0.00000000 </v>
    <v>      -0.00000000       0.00000000       0.18068780 </v>
   </varray>
  </crystal>
  <varray name="positions" >
   <v>       0.00000000       0.00000000       0.00000000 </v>
   <v>       0.50000000       0.50000000       0.00000000 </v>
   <v>       0.50000000       0.00000000       0.50000000 </v>
   <v>       0.00000000       0.50000000       0.50000000 </v>
   <v>       0.25000000       0.25000000       0.25000000 </v>
   <v>       0.75000000       0.25000000       0.75000000 </v>
   <v>       0.75000000       0.75000000       0.25000000 </v>
   <v>       0.25000000       0.75000000       0.75000000 </v>
  </varray>
 </structure>
</modeling>
