GaAs                                    
           1
     5.502640    0.000000    0.000000
     0.000000    5.502640    0.000000
     0.000000    0.000000    5.502640
   As   Ga
     4     4
Direct configuration=     1
   0.00000000  0.00000000  0.00000000
   0.50000000  0.50000000  0.00000000
   0.50000000  0.00000000  0.50000000
   0.00000000  0.50000000  0.50000000
   0.25000000  0.25000000  0.25000000
   0.75000000  0.25000000  0.75000000
   0.75000000  0.75000000  0.25000000
   0.25000000  0.75000000  0.75000000
GaAs                                    
           1
     5.515872   -0.000000    0.000000
     0.000000    5.515872    0.000000
     0.000000   -0.000000    5.515872
   As   Ga
     4     4
Direct configuration=     2
   1.00000000  0.00000000  0.00000000
   0.50000000  0.50000000  1.00000000
   0.50000000  1.00000000  0.50000000
   0.00000000  0.50000000  0.50000000
   0.25000000  0.25000000  0.25000000
   0.75000000  0.25000000  0.75000000
   0.75000000  0.75000000  0.25000000
   0.25000000  0.75000000  0.75000000
GaAs                                    
           1
     5.534408   -0.000000    0.000000
     0.000000    5.534408    0.000000
     0.000000   -0.000000    5.534408
   As   Ga
     4     4
Direct configuration=     3
   0.00000000  0.00000000  0.00000000
   0.50000000  0.50000000  0.00000000
   0.50000000  0.00000000  0.50000000
   0.00000000  0.50000000  0.50000000
   0.25000000  0.25000000  0.25000000
   0.75000000  0.25000000  0.75000000
   0.75000000  0.75000000  0.25000000
   0.25000000  0.75000000  0.75000000
