GaAs                                    
   4.50000000000000     
     1.198797    0.000000   -0.000000
    -0.000000    1.198797   -0.000000
     0.000000   -0.000000    1.198797
   As   Ga
     4     4
Direct
  0.000000  0.000000  0.000000
  0.500000  0.500000  0.000000
  0.500000  0.000000  0.500000
  0.000000  0.500000  0.500000
  0.250000  0.250000  0.250000
  0.750000  0.250000  0.750000
  0.750000  0.750000  0.250000
  0.250000  0.750000  0.750000
 
   56   56   56
 -.61496537282E+02 -.53286387409E+02 -.30670997513E+02 0.99490239794E+00 0.34769318366E+02
 0.64168161326E+02 0.84717216522E+02 0.94595465121E+02 0.94429702545E+02 0.86589307991E+02
 0.74338758820E+02 0.61054222340E+02 0.49243420494E+02 0.39323572456E+02 0.31161248988E+02
 0.24584575525E+02 0.19391500410E+02 0.15355534003E+02 0.12246187108E+02 0.98566745989E+01
 0.80218993514E+01 0.66191240306E+01 0.55576820566E+01 0.47678272314E+01 0.41935506412E+01
 0.37896128916E+01 0.35218143396E+01 0.33681832837E+01 0.33179519540E+01 0.33681832837E+01
 0.35218143396E+01 0.37896128916E+01 0.41935506412E+01 0.47678272314E+01 0.55576820566E+01
 0.66191240306E+01 0.80218993514E+01 0.98566745989E+01 0.12246187108E+02 0.15355534003E+02
 0.19391500410E+02 0.24584575525E+02 0.31161248988E+02 0.39323572456E+02 0.49243420494E+02
 0.61054222340E+02 0.74338758820E+02 0.86589307991E+02 0.94429702545E+02 0.94595465121E+02
 0.84717216522E+02 0.64168161326E+02 0.34769318366E+02 0.99490239794E+00 -.30670997513E+02
 -.53286387409E+02 -.53286387409E+02 -.45410267914E+02 -.23726665576E+02 0.65968408103E+01
 0.38861927871E+02 0.66814739394E+02 0.86146397376E+02 0.95118100249E+02 0.94366814517E+02
 0.86224700807E+02 0.73894818015E+02 0.60683043337E+02 0.48984364185E+02 0.39152128356E+02
 0.31057033778E+02 0.24531009212E+02 0.19374893700E+02 0.15364680922E+02 0.12272373350E+02
 0.98936024141E+01 0.80653202839E+01 0.66663213145E+01 0.56069735672E+01 0.48181591152E+01
 0.42442376567E+01 0.38402492247E+01 0.35722552010E+01 0.34184679091E+01 0.33681832837E+01
 0.34184679091E+01 0.35722552010E+01 0.38402492247E+01 0.42442376567E+01 0.48181591152E+01
 0.56069735672E+01 0.66663213145E+01 0.80653202839E+01 0.98936024141E+01 0.12272373350E+02
 0.15364680922E+02 0.19374893700E+02 0.24531009212E+02 0.31057033778E+02 0.39152128356E+02
 0.48984364185E+02 0.60683043337E+02 0.73894818015E+02 0.86224700807E+02 0.94366814517E+02
 0.95118100249E+02 0.86146397376E+02 0.66814739394E+02 0.38861927871E+02 0.65968408103E+01
 -.23726665576E+02 -.45410267914E+02 -.30670997513E+02 -.23726665576E+02 -.46419628667E+01
 0.21938423688E+02 0.49996966208E+02 0.73923444423E+02 0.89872230049E+02 0.96336387838E+02
 0.93983243925E+02 0.85041150959E+02 0.72538983275E+02 0.59579607871E+02 0.48213076090E+02
 0.38640977718E+02 0.30746111018E+02 0.24371300300E+02 0.19325723845E+02 0.15392692347E+02
 0.12351635642E+02 0.10005392340E+02 0.81970015432E+01 0.68097729401E+01 0.57570984106E+01
 0.49716975196E+01 0.43990346574E+01 0.39950104677E+01 0.37264897921E+01 0.35722552010E+01
 0.35218143396E+01 0.35722552010E+01 0.37264897921E+01 0.39950104677E+01 0.43990346574E+01
 0.49716975196E+01 0.57570984106E+01 0.68097729401E+01 0.81970015432E+01 0.10005392340E+02
 0.12351635642E+02 0.15392692347E+02 0.19325723845E+02 0.24371300300E+02 0.30746111018E+02
 0.38640977718E+02 0.48213076090E+02 0.59579607871E+02 0.72538983275E+02 0.85041150959E+02
 0.93983243925E+02 0.96336387838E+02 0.89872230049E+02 0.73923444423E+02 0.49996966208E+02
 0.21938423688E+02 -.46419628667E+01 -.23726665576E+02 0.99490239794E+00 0.65968408103E+01
 0.21938423688E+02 0.43130952479E+02 0.65141474627E+02 0.83292191129E+02 0.94411891485E+02
 0.97335550199E+02 0.92779568333E+02 0.82821418045E+02 0.70228775944E+02 0.57777112938E+02
 0.46949481255E+02 0.37801533115E+02 0.30235052989E+02 0.24109382232E+02 0.19246584114E+02
 0.15441755116E+02 0.12486522667E+02 0.10195549838E+02 0.84217777187E+01 0.70557597621E+01
 0.60156666914E+01 0.52371314221E+01 0.46674472175E+01 0.42639954234E+01 0.39950104677E+01
 0.38402492247E+01 0.37896128916E+01 0.38402492247E+01 0.39950104677E+01 0.42639954234E+01
 0.46674472175E+01 0.52371314221E+01 0.60156666914E+01 0.70557597621E+01 0.84217777187E+01
 0.10195549838E+02 0.12486522667E+02 0.15441755116E+02 0.19246584114E+02 0.24109382232E+02
 0.30235052989E+02 0.37801533115E+02 0.46949481255E+02 0.57777112938E+02 0.70228775944E+02
 0.82821418045E+02 0.92779568333E+02 0.97335550199E+02 0.94411891485E+02 0.83292191129E+02
 0.65141474627E+02 0.43130952479E+02 0.21938423688E+02 0.65968408103E+01 0.34769318366E+02
 0.38861927871E+02 0.49996966208E+02 0.65141474627E+02 0.80378410636E+02 0.92090545298E+02
 0.97880022403E+02 0.96980787244E+02 0.90171716201E+02 0.79353796851E+02 0.66977346577E+02
 0.55337713988E+02 0.45232593507E+02 0.36657734345E+02 0.29538607656E+02 0.23754511569E+02
 0.19143715482E+02 0.15517046171E+02 0.12682750839E+02 0.10471515303E+02 0.87495150553E+01
 0.74167999513E+01 0.63976912731E+01 0.56316062390E+01 0.50683572867E+01 0.46674472175E+01
 0.43990346574E+01 0.42442376567E+01 0.41935506412E+01 0.42442376567E+01 0.43990346574E+01
 0.46674472175E+01 0.50683572867E+01 0.56316062390E+01 0.63976912731E+01 0.74167999513E+01
 0.87495150553E+01 0.10471515303E+02 0.12682750839E+02 0.15517046171E+02 0.19143715482E+02
 0.23754511569E+02 0.29538607656E+02 0.36657734345E+02 0.45232593507E+02 0.55337713988E+02
 0.66977346577E+02 0.79353796851E+02 0.90171716201E+02 0.96980787244E+02 0.97880022403E+02
 0.92090545298E+02 0.80378410636E+02 0.65141474627E+02 0.49996966208E+02 0.38861927871E+02
 0.64168161326E+02 0.66814739394E+02 0.73923444423E+02 0.83292191129E+02 0.92090545298E+02
 0.97740204843E+02 0.98609144882E+02 0.94333253391E+02 0.85755602622E+02 0.74588847689E+02
 0.62933819938E+02 0.52355887247E+02 0.43124370283E+02 0.35249845383E+02 0.28682920796E+02
 0.23323841741E+02 0.19029154706E+02 0.15628723846E+02 0.12951212265E+02 0.10846738241E+02
 0.91972093986E+01 0.79136939395E+01 0.69275163700E+01 0.61824951957E+01 0.56316062390E+01
 0.52371314221E+01 0.49716975196E+01 0.48181591152E+01 0.47678272314E+01 0.48181591152E+01
 0.49716975196E+01 0.52371314221E+01 0.56316062390E+01 0.61824951957E+01 0.69275163700E+01
 0.79136939395E+01 0.91972093986E+01 0.10846738241E+02 0.12951212265E+02 0.15628723846E+02
 0.19029154706E+02 0.23323841741E+02 0.28682920796E+02 0.35249845383E+02 0.43124370283E+02
 0.52355887247E+02 0.62933819938E+02 0.74588847689E+02 0.85755602622E+02 0.94333253391E+02
 0.98609144882E+02 0.97740204843E+02 0.92090545298E+02 0.83292191129E+02 0.73923444423E+02
 0.66814739394E+02 0.84717216522E+02 0.86146397376E+02 0.89872230049E+02 0.94411891485E+02
 0.97880022403E+02 0.98609144882E+02 0.95645911245E+02 0.88984523651E+02 0.79515712041E+02
 0.68753828090E+02 0.58340775089E+02 0.48955278367E+02 0.40709280433E+02 0.33635272226E+02
 0.27706812592E+02 0.22843928495E+02 0.18922457348E+02 0.15793830750E+02 0.13309927030E+02
 0.11342492380E+02 0.97904833464E+01 0.85765824282E+01 0.76393960570E+01 0.69275163700E+01
 0.63976912731E+01 0.60156666914E+01 0.57570984106E+01 0.56069735672E+01 0.55576820566E+01
 0.56069735672E+01 0.57570984106E+01 0.60156666914E+01 0.63976912731E+01 0.69275163700E+01
 0.76393960570E+01 0.85765824282E+01 0.97904833464E+01 0.11342492380E+02 0.13309927030E+02
 0.15793830750E+02 0.18922457348E+02 0.22843928495E+02 0.27706812592E+02 0.33635272226E+02
 0.40709280433E+02 0.48955278367E+02 0.58340775089E+02 0.68753828090E+02 0.79515712041E+02
 0.88984523651E+02 0.95645911245E+02 0.98609144882E+02 0.97880022403E+02 0.94411891485E+02
 0.89872230049E+02 0.86146397376E+02 0.94595465121E+02 0.95118100249E+02 0.96336387838E+02
 0.97335550199E+02 0.96980787244E+02 0.94333253391E+02 0.88984523651E+02 0.81208657344E+02
 0.71906267845E+02 0.62355953553E+02 0.53406448859E+02 0.45279400306E+02 0.38089204794E+02
 0.31885736418E+02 0.26660383976E+02 0.22350403492E+02 0.18851133583E+02 0.16037112263E+02
 0.13784840986E+02 0.11988328096E+02 0.10563524476E+02 0.94443816796E+01 0.85765824282E+01
 0.79136939395E+01 0.74167999513E+01 0.70557597621E+01 0.68097729401E+01 0.66663213145E+01
 0.66191240306E+01 0.66663213145E+01 0.68097729401E+01 0.70557597621E+01 0.74167999513E+01
 0.79136939395E+01 0.85765824282E+01 0.94443816796E+01 0.10563524476E+02 0.11988328096E+02
 0.13784840986E+02 0.16037112263E+02 0.18851133583E+02 0.22350403492E+02 0.26660383976E+02
 0.31885736418E+02 0.38089204794E+02 0.45279400306E+02 0.53406448859E+02 0.62355953553E+02
 0.71906267845E+02 0.81208657344E+02 0.88984523651E+02 0.94333253391E+02 0.96980787244E+02
 0.97335550199E+02 0.96336387838E+02 0.95118100249E+02 0.94429702545E+02 0.94366814517E+02
 0.93983243925E+02 0.92779568333E+02 0.90171716201E+02 0.85755602622E+02 0.79515712041E+02
 0.71906267845E+02 0.63772958153E+02 0.55825292624E+02 0.48335092929E+02 0.41479633238E+02
 0.35375415670E+02 0.30081718350E+02 0.25601319888E+02 0.21885710187E+02 0.18849309674E+02
 0.16390067504E+02 0.14408847323E+02 0.12820874244E+02 0.11557730802E+02 0.10563524476E+02
 0.97904833464E+01 0.91972093986E+01 0.87495150553E+01 0.84217777187E+01 0.81970015432E+01
 0.80653202839E+01 0.80218993514E+01 0.80653202839E+01 0.81970015432E+01 0.84217777187E+01
 0.87495150553E+01 0.91972093986E+01 0.97904833464E+01 0.10563524476E+02 0.11557730802E+02
 0.12820874244E+02 0.14408847323E+02 0.16390067504E+02 0.18849309674E+02 0.21885710187E+02
 0.25601319888E+02 0.30081718350E+02 0.35375415670E+02 0.41479633238E+02 0.48335092929E+02
 0.55825292624E+02 0.63772958153E+02 0.71906267845E+02 0.79515712041E+02 0.85755602622E+02
 0.90171716201E+02 0.92779568333E+02 0.93983243925E+02 0.94366814517E+02 0.86589307991E+02
 0.86224700807E+02 0.85041150959E+02 0.82821418045E+02 0.79353796851E+02 0.74588847689E+02
 0.68753828090E+02 0.62355953553E+02 0.55825292624E+02 0.49411332338E+02 0.43317954661E+02
 0.37703728134E+02 0.32679589656E+02 0.28305517744E+02 0.24589762916E+02 0.21495377330E+02
 0.18954874970E+02 0.16888550023E+02 0.15219688596E+02 0.13882190966E+02 0.12820874244E+02
 0.11988328096E+02 0.11342492380E+02 0.10846738241E+02 0.10471515303E+02 0.10195549838E+02
 0.10005392340E+02 0.98936024141E+01 0.98566745989E+01 0.98936024141E+01 0.10005392340E+02
 0.10195549838E+02 0.10471515303E+02 0.10846738241E+02 0.11342492380E+02 0.11988328096E+02
 0.12820874244E+02 0.13882190966E+02 0.15219688596E+02 0.16888550023E+02 0.18954874970E+02
 0.21495377330E+02 0.24589762916E+02 0.28305517744E+02 0.32679589656E+02 0.37703728134E+02
 0.43317954661E+02 0.49411332338E+02 0.55825292624E+02 0.62355953553E+02 0.68753828090E+02
 0.74588847689E+02 0.79353796851E+02 0.82821418045E+02 0.85041150959E+02 0.86224700807E+02
 0.74338758820E+02 0.73894818015E+02 0.72538983275E+02 0.70228775944E+02 0.66977346577E+02
 0.62933819938E+02 0.58340775089E+02 0.53406448859E+02 0.48335092929E+02 0.43317954661E+02
 0.38522721538E+02 0.34085738821E+02 0.30104854545E+02 0.26633967994E+02 0.23682727223E+02
 0.21223778541E+02 0.19206202349E+02 0.17570305295E+02 0.16258484889E+02 0.15219688596E+02
 0.14408847323E+02 0.13784840986E+02 0.13309927030E+02 0.12951212265E+02 0.12682750839E+02
 0.12486522667E+02 0.12351635642E+02 0.12272373350E+02 0.12246187108E+02 0.12272373350E+02
 0.12351635642E+02 0.12486522667E+02 0.12682750839E+02 0.12951212265E+02 0.13309927030E+02
 0.13784840986E+02 0.14408847323E+02 0.15219688596E+02 0.16258484889E+02 0.17570305295E+02
 0.19206202349E+02 0.21223778541E+02 0.23682727223E+02 0.26633967994E+02 0.30104854545E+02
 0.34085738821E+02 0.38522721538E+02 0.43317954661E+02 0.48335092929E+02 0.53406448859E+02
 0.58340775089E+02 0.62933819938E+02 0.66977346577E+02 0.70228775944E+02 0.72538983275E+02
 0.73894818015E+02 0.61054222340E+02 0.60683043337E+02 0.59579607871E+02 0.57777112938E+02
 0.55337713988E+02 0.52355887247E+02 0.48955278367E+02 0.45279400306E+02 0.41479633238E+02
 0.37703728134E+02 0.34085738821E+02 0.30736855633E+02 0.27737362036E+02 0.25131695564E+02
 0.22929103939E+02 0.21110591084E+02 0.19639853423E+02 0.18473978368E+02 0.17570305295E+02
 0.16888550023E+02 0.16390067504E+02 0.16037112263E+02 0.15793830750E+02 0.15628723846E+02
 0.15517046171E+02 0.15441755116E+02 0.15392692347E+02 0.15364680922E+02 0.15355534003E+02
 0.15364680922E+02 0.15392692347E+02 0.15441755116E+02 0.15517046171E+02 0.15628723846E+02
 0.15793830750E+02 0.16037112263E+02 0.16390067504E+02 0.16888550023E+02 0.17570305295E+02
 0.18473978368E+02 0.19639853423E+02 0.21110591084E+02 0.22929103939E+02 0.25131695564E+02
 0.27737362036E+02 0.30736855633E+02 0.34085738821E+02 0.37703728134E+02 0.41479633238E+02
 0.45279400306E+02 0.48955278367E+02 0.52355887247E+02 0.55337713988E+02 0.57777112938E+02
 0.59579607871E+02 0.60683043337E+02 0.49243420494E+02 0.48984364185E+02 0.48213076090E+02
 0.46949481255E+02 0.45232593507E+02 0.43124370283E+02 0.40709280433E+02 0.38089204794E+02
 0.35375415670E+02 0.32679589656E+02 0.30104854545E+02 0.27737362036E+02 0.25639437137E+02
 0.23846096484E+02 0.22366350038E+02 0.21188926106E+02 0.20290012726E+02 0.19639853423E+02
 0.19206202349E+02 0.18954874970E+02 0.18849309674E+02 0.18851133583E+02 0.18922457348E+02
 0.19029154706E+02 0.19143715482E+02 0.19246584114E+02 0.19325723845E+02 0.19374893700E+02
 0.19391500410E+02 0.19374893700E+02 0.19325723845E+02 0.19246584114E+02 0.19143715482E+02
 0.19029154706E+02 0.18922457348E+02 0.18851133583E+02 0.18849309674E+02 0.18954874970E+02
 0.19206202349E+02 0.19639853423E+02 0.20290012726E+02 0.21188926106E+02 0.22366350038E+02
 0.23846096484E+02 0.25639437137E+02 0.27737362036E+02 0.30104854545E+02 0.32679589656E+02
 0.35375415670E+02 0.38089204794E+02 0.40709280433E+02 0.43124370283E+02 0.45232593507E+02
 0.46949481255E+02 0.48213076090E+02 0.48984364185E+02 0.39323572456E+02 0.39152128356E+02
 0.38640977718E+02 0.37801533115E+02 0.36657734345E+02 0.35249845383E+02 0.33635272226E+02
 0.31885736418E+02 0.30081718350E+02 0.28305517744E+02 0.26633967994E+02 0.25131695564E+02
 0.23846096484E+02 0.22805291163E+02 0.22019545758E+02 0.21485189230E+02 0.21188926106E+02
 0.21110591084E+02 0.21223778541E+02 0.21495377330E+02 0.21885710187E+02 0.22350403492E+02
 0.22843928495E+02 0.23323841741E+02 0.23754511569E+02 0.24109382232E+02 0.24371300300E+02
 0.24531009212E+02 0.24584575525E+02 0.24531009212E+02 0.24371300300E+02 0.24109382232E+02
 0.23754511569E+02 0.23323841741E+02 0.22843928495E+02 0.22350403492E+02 0.21885710187E+02
 0.21495377330E+02 0.21223778541E+02 0.21110591084E+02 0.21188926106E+02 0.21485189230E+02
 0.22019545758E+02 0.22805291163E+02 0.23846096484E+02 0.25131695564E+02 0.26633967994E+02
 0.28305517744E+02 0.30081718350E+02 0.31885736418E+02 0.33635272226E+02 0.35249845383E+02
 0.36657734345E+02 0.37801533115E+02 0.38640977718E+02 0.39152128356E+02 0.31161248988E+02
 0.31057033778E+02 0.30746111018E+02 0.30235052989E+02 0.29538607656E+02 0.28682920796E+02
 0.27706812592E+02 0.26660383976E+02 0.25601319888E+02 0.24589762916E+02 0.23682727223E+02
 0.22929103939E+02 0.22366350038E+02 0.22019545758E+02 0.21902502484E+02 0.22019545758E+02
 0.22366350038E+02 0.22929103939E+02 0.23682727223E+02 0.24589762916E+02 0.25601319888E+02
 0.26660383976E+02 0.27706812592E+02 0.28682920796E+02 0.29538607656E+02 0.30235052989E+02
 0.30746111018E+02 0.31057033778E+02 0.31161248988E+02 0.31057033778E+02 0.30746111018E+02
 0.30235052989E+02 0.29538607656E+02 0.28682920796E+02 0.27706812592E+02 0.26660383976E+02
 0.25601319888E+02 0.24589762916E+02 0.23682727223E+02 0.22929103939E+02 0.22366350038E+02
 0.22019545758E+02 0.21902502484E+02 0.22019545758E+02 0.22366350038E+02 0.22929103939E+02
 0.23682727223E+02 0.24589762916E+02 0.25601319888E+02 0.26660383976E+02 0.27706812592E+02
 0.28682920796E+02 0.29538607656E+02 0.30235052989E+02 0.30746111018E+02 0.31057033778E+02
 0.24584575525E+02 0.24531009212E+02 0.24371300300E+02 0.24109382232E+02 0.23754511569E+02
 0.23323841741E+02 0.22843928495E+02 0.22350403492E+02 0.21885710187E+02 0.21495377330E+02
 0.21223778541E+02 0.21110591084E+02 0.21188926106E+02 0.21485189230E+02 0.22019545758E+02
 0.22805291163E+02 0.23846096484E+02 0.25131695564E+02 0.26633967994E+02 0.28305517744E+02
 0.30081718350E+02 0.31885736418E+02 0.33635272226E+02 0.35249845383E+02 0.36657734345E+02
 0.37801533115E+02 0.38640977718E+02 0.39152128356E+02 0.39323572456E+02 0.39152128356E+02
 0.38640977718E+02 0.37801533115E+02 0.36657734345E+02 0.35249845383E+02 0.33635272226E+02
 0.31885736418E+02 0.30081718350E+02 0.28305517744E+02 0.26633967994E+02 0.25131695564E+02
 0.23846096484E+02 0.22805291163E+02 0.22019545758E+02 0.21485189230E+02 0.21188926106E+02
 0.21110591084E+02 0.21223778541E+02 0.21495377330E+02 0.21885710187E+02 0.22350403492E+02
 0.22843928495E+02 0.23323841741E+02 0.23754511569E+02 0.24109382232E+02 0.24371300300E+02
 0.24531009212E+02 0.19391500410E+02 0.19374893700E+02 0.19325723845E+02 0.19246584114E+02
 0.19143715482E+02 0.19029154706E+02 0.18922457348E+02 0.18851133583E+02 0.18849309674E+02
 0.18954874970E+02 0.19206202349E+02 0.19639853423E+02 0.20290012726E+02 0.21188926106E+02
 0.22366350038E+02 0.23846096484E+02 0.25639437137E+02 0.27737362036E+02 0.30104854545E+02
 0.32679589656E+02 0.35375415670E+02 0.38089204794E+02 0.40709280433E+02 0.43124370283E+02
 0.45232593507E+02 0.46949481255E+02 0.48213076090E+02 0.48984364185E+02 0.49243420494E+02
 0.48984364185E+02 0.48213076090E+02 0.46949481255E+02 0.45232593507E+02 0.43124370283E+02
 0.40709280433E+02 0.38089204794E+02 0.35375415670E+02 0.32679589656E+02 0.30104854545E+02
 0.27737362036E+02 0.25639437137E+02 0.23846096484E+02 0.22366350038E+02 0.21188926106E+02
 0.20290012726E+02 0.19639853423E+02 0.19206202349E+02 0.18954874970E+02 0.18849309674E+02
 0.18851133583E+02 0.18922457348E+02 0.19029154706E+02 0.19143715482E+02 0.19246584114E+02
 0.19325723845E+02 0.19374893700E+02 0.15355534003E+02 0.15364680922E+02 0.15392692347E+02
 0.15441755116E+02 0.15517046171E+02 0.15628723846E+02 0.15793830750E+02 0.16037112263E+02
 0.16390067504E+02 0.16888550023E+02 0.17570305295E+02 0.18473978368E+02 0.19639853423E+02
 0.21110591084E+02 0.22929103939E+02 0.25131695564E+02 0.27737362036E+02 0.30736855633E+02
 0.34085738821E+02 0.37703728134E+02 0.41479633238E+02 0.45279400306E+02 0.48955278367E+02
 0.52355887247E+02 0.55337713988E+02 0.57777112938E+02 0.59579607871E+02 0.60683043337E+02
 0.61054222340E+02 0.60683043337E+02 0.59579607871E+02 0.57777112938E+02 0.55337713988E+02
 0.52355887247E+02 0.48955278367E+02 0.45279400306E+02 0.41479633238E+02 0.37703728134E+02
 0.34085738821E+02 0.30736855633E+02 0.27737362036E+02 0.25131695564E+02 0.22929103939E+02
 0.21110591084E+02 0.19639853423E+02 0.18473978368E+02 0.17570305295E+02 0.16888550023E+02
 0.16390067504E+02 0.16037112263E+02 0.15793830750E+02 0.15628723846E+02 0.15517046171E+02
 0.15441755116E+02 0.15392692347E+02 0.15364680922E+02 0.12246187108E+02 0.12272373350E+02
 0.12351635642E+02 0.12486522667E+02 0.12682750839E+02 0.12951212265E+02 0.13309927030E+02
 0.13784840986E+02 0.14408847323E+02 0.15219688596E+02 0.16258484889E+02 0.17570305295E+02
 0.19206202349E+02 0.21223778541E+02 0.23682727223E+02 0.26633967994E+02 0.30104854545E+02
 0.34085738821E+02 0.38522721538E+02 0.43317954661E+02 0.48335092929E+02 0.53406448859E+02
 0.58340775089E+02 0.62933819938E+02 0.66977346577E+02 0.70228775944E+02 0.72538983275E+02
 0.73894818015E+02 0.74338758820E+02 0.73894818015E+02 0.72538983275E+02 0.70228775944E+02
 0.66977346577E+02 0.62933819938E+02 0.58340775089E+02 0.53406448859E+02 0.48335092929E+02
 0.43317954661E+02 0.38522721538E+02 0.34085738821E+02 0.30104854545E+02 0.26633967994E+02
 0.23682727223E+02 0.21223778541E+02 0.19206202349E+02 0.17570305295E+02 0.16258484889E+02
 0.15219688596E+02 0.14408847323E+02 0.13784840986E+02 0.13309927030E+02 0.12951212265E+02
 0.12682750839E+02 0.12486522667E+02 0.12351635642E+02 0.12272373350E+02 0.98566745989E+01
 0.98936024141E+01 0.10005392340E+02 0.10195549838E+02 0.10471515303E+02 0.10846738241E+02
 0.11342492380E+02 0.11988328096E+02 0.12820874244E+02 0.13882190966E+02 0.15219688596E+02
 0.16888550023E+02 0.18954874970E+02 0.21495377330E+02 0.24589762916E+02 0.28305517744E+02
 0.32679589656E+02 0.37703728134E+02 0.43317954661E+02 0.49411332338E+02 0.55825292624E+02
 0.62355953553E+02 0.68753828090E+02 0.74588847689E+02 0.79353796851E+02 0.82821418045E+02
 0.85041150959E+02 0.86224700807E+02 0.86589307991E+02 0.86224700807E+02 0.85041150959E+02
 0.82821418045E+02 0.79353796851E+02 0.74588847689E+02 0.68753828090E+02 0.62355953553E+02
 0.55825292624E+02 0.49411332338E+02 0.43317954661E+02 0.37703728134E+02 0.32679589656E+02
 0.28305517744E+02 0.24589762916E+02 0.21495377330E+02 0.18954874970E+02 0.16888550023E+02
 0.15219688596E+02 0.13882190966E+02 0.12820874244E+02 0.11988328096E+02 0.11342492380E+02
 0.10846738241E+02 0.10471515303E+02 0.10195549838E+02 0.10005392340E+02 0.98936024141E+01
 0.80218993514E+01 0.80653202839E+01 0.81970015432E+01 0.84217777187E+01 0.87495150553E+01
 0.91972093986E+01 0.97904833464E+01 0.10563524476E+02 0.11557730802E+02 0.12820874244E+02
 0.14408847323E+02 0.16390067504E+02 0.18849309674E+02 0.21885710187E+02 0.25601319888E+02
 0.30081718350E+02 0.35375415670E+02 0.41479633238E+02 0.48335092929E+02 0.55825292624E+02
 0.63772958153E+02 0.71906267845E+02 0.79515712041E+02 0.85755602622E+02 0.90171716201E+02
 0.92779568333E+02 0.93983243925E+02 0.94366814517E+02 0.94429702545E+02 0.94366814517E+02
 0.93983243925E+02 0.92779568333E+02 0.90171716201E+02 0.85755602622E+02 0.79515712041E+02
 0.71906267845E+02 0.63772958153E+02 0.55825292624E+02 0.48335092929E+02 0.41479633238E+02
 0.35375415670E+02 0.30081718350E+02 0.25601319888E+02 0.21885710187E+02 0.18849309674E+02
 0.16390067504E+02 0.14408847323E+02 0.12820874244E+02 0.11557730802E+02 0.10563524476E+02
 0.97904833464E+01 0.91972093986E+01 0.87495150553E+01 0.84217777187E+01 0.81970015432E+01
 0.80653202839E+01 0.66191240306E+01 0.66663213145E+01 0.68097729401E+01 0.70557597621E+01
 0.74167999513E+01 0.79136939395E+01 0.85765824282E+01 0.94443816796E+01 0.10563524476E+02
 0.11988328096E+02 0.13784840986E+02 0.16037112263E+02 0.18851133583E+02 0.22350403492E+02
 0.26660383976E+02 0.31885736418E+02 0.38089204794E+02 0.45279400306E+02 0.53406448859E+02
 0.62355953553E+02 0.71906267845E+02 0.81208657344E+02 0.88984523651E+02 0.94333253391E+02
 0.96980787244E+02 0.97335550199E+02 0.96336387838E+02 0.95118100249E+02 0.94595465121E+02
 0.95118100249E+02 0.96336387838E+02 0.97335550199E+02 0.96980787244E+02 0.94333253391E+02
 0.88984523651E+02 0.81208657344E+02 0.71906267845E+02 0.62355953553E+02 0.53406448859E+02
 0.45279400306E+02 0.38089204794E+02 0.31885736418E+02 0.26660383976E+02 0.22350403492E+02
 0.18851133583E+02 0.16037112263E+02 0.13784840986E+02 0.11988328096E+02 0.10563524476E+02
 0.94443816796E+01 0.85765824282E+01 0.79136939395E+01 0.74167999513E+01 0.70557597621E+01
 0.68097729401E+01 0.66663213145E+01 0.55576820566E+01 0.56069735672E+01 0.57570984106E+01
 0.60156666914E+01 0.63976912731E+01 0.69275163700E+01 0.76393960570E+01 0.85765824282E+01
 0.97904833464E+01 0.11342492380E+02 0.13309927030E+02 0.15793830750E+02 0.18922457348E+02
 0.22843928495E+02 0.27706812592E+02 0.33635272226E+02 0.40709280433E+02 0.48955278367E+02
 0.58340775089E+02 0.68753828090E+02 0.79515712041E+02 0.88984523651E+02 0.95645911245E+02
 0.98609144882E+02 0.97880022403E+02 0.94411891485E+02 0.89872230049E+02 0.86146397376E+02
 0.84717216522E+02 0.86146397376E+02 0.89872230049E+02 0.94411891485E+02 0.97880022403E+02
 0.98609144882E+02 0.95645911245E+02 0.88984523651E+02 0.79515712041E+02 0.68753828090E+02
 0.58340775089E+02 0.48955278367E+02 0.40709280433E+02 0.33635272226E+02 0.27706812592E+02
 0.22843928495E+02 0.18922457348E+02 0.15793830750E+02 0.13309927030E+02 0.11342492380E+02
 0.97904833464E+01 0.85765824282E+01 0.76393960570E+01 0.69275163700E+01 0.63976912731E+01
 0.60156666914E+01 0.57570984106E+01 0.56069735672E+01 0.47678272314E+01 0.48181591152E+01
 0.49716975196E+01 0.52371314221E+01 0.56316062390E+01 0.61824951957E+01 0.69275163700E+01
 0.79136939395E+01 0.91972093986E+01 0.10846738241E+02 0.12951212265E+02 0.15628723846E+02
 0.19029154706E+02 0.23323841741E+02 0.28682920796E+02 0.35249845383E+02 0.43124370283E+02
 0.52355887247E+02 0.62933819938E+02 0.74588847689E+02 0.85755602622E+02 0.94333253391E+02
 0.98609144882E+02 0.97740204843E+02 0.92090545298E+02 0.83292191129E+02 0.73923444423E+02
 0.66814739394E+02 0.64168161326E+02 0.66814739394E+02 0.73923444423E+02 0.83292191129E+02
 0.92090545298E+02 0.97740204843E+02 0.98609144882E+02 0.94333253391E+02 0.85755602622E+02
 0.74588847689E+02 0.62933819938E+02 0.52355887247E+02 0.43124370283E+02 0.35249845383E+02
 0.28682920796E+02 0.23323841741E+02 0.19029154706E+02 0.15628723846E+02 0.12951212265E+02
 0.10846738241E+02 0.91972093986E+01 0.79136939395E+01 0.69275163700E+01 0.61824951957E+01
 0.56316062390E+01 0.52371314221E+01 0.49716975196E+01 0.48181591152E+01 0.41935506412E+01
 0.42442376567E+01 0.43990346574E+01 0.46674472175E+01 0.50683572867E+01 0.56316062390E+01
 0.63976912731E+01 0.74167999513E+01 0.87495150553E+01 0.10471515303E+02 0.12682750839E+02
 0.15517046171E+02 0.19143715482E+02 0.23754511569E+02 0.29538607656E+02 0.36657734345E+02
 0.45232593507E+02 0.55337713988E+02 0.66977346577E+02 0.79353796851E+02 0.90171716201E+02
 0.96980787244E+02 0.97880022403E+02 0.92090545298E+02 0.80378410636E+02 0.65141474627E+02
 0.49996966208E+02 0.38861927871E+02 0.34769318366E+02 0.38861927871E+02 0.49996966208E+02
 0.65141474627E+02 0.80378410636E+02 0.92090545298E+02 0.97880022403E+02 0.96980787244E+02
 0.90171716201E+02 0.79353796851E+02 0.66977346577E+02 0.55337713988E+02 0.45232593507E+02
 0.36657734345E+02 0.29538607656E+02 0.23754511569E+02 0.19143715482E+02 0.15517046171E+02
 0.12682750839E+02 0.10471515303E+02 0.87495150553E+01 0.74167999513E+01 0.63976912731E+01
 0.56316062390E+01 0.50683572867E+01 0.46674472175E+01 0.43990346574E+01 0.42442376567E+01
 0.37896128916E+01 0.38402492247E+01 0.39950104677E+01 0.42639954234E+01 0.46674472175E+01
 0.52371314221E+01 0.60156666914E+01 0.70557597621E+01 0.84217777187E+01 0.10195549838E+02
 0.12486522667E+02 0.15441755116E+02 0.19246584114E+02 0.24109382232E+02 0.30235052989E+02
 0.37801533115E+02 0.46949481255E+02 0.57777112938E+02 0.70228775944E+02 0.82821418045E+02
 0.92779568333E+02 0.97335550199E+02 0.94411891485E+02 0.83292191129E+02 0.65141474627E+02
 0.43130952479E+02 0.21938423688E+02 0.65968408103E+01 0.99490239794E+00 0.65968408103E+01
 0.21938423688E+02 0.43130952479E+02 0.65141474627E+02 0.83292191129E+02 0.94411891485E+02
 0.97335550199E+02 0.92779568333E+02 0.82821418045E+02 0.70228775944E+02 0.57777112938E+02
 0.46949481255E+02 0.37801533115E+02 0.30235052989E+02 0.24109382232E+02 0.19246584114E+02
 0.15441755116E+02 0.12486522667E+02 0.10195549838E+02 0.84217777187E+01 0.70557597621E+01
 0.60156666914E+01 0.52371314221E+01 0.46674472175E+01 0.42639954234E+01 0.39950104677E+01
 0.38402492247E+01 0.35218143396E+01 0.35722552010E+01 0.37264897921E+01 0.39950104677E+01
 0.43990346574E+01 0.49716975196E+01 0.57570984106E+01 0.68097729401E+01 0.81970015432E+01
 0.10005392340E+02 0.12351635642E+02 0.15392692347E+02 0.19325723845E+02 0.24371300300E+02
 0.30746111018E+02 0.38640977718E+02 0.48213076090E+02 0.59579607871E+02 0.72538983275E+02
 0.85041150959E+02 0.93983243925E+02 0.96336387838E+02 0.89872230049E+02 0.73923444423E+02
 0.49996966208E+02 0.21938423688E+02 -.46419628667E+01 -.23726665576E+02 -.30670997513E+02
 -.23726665576E+02 -.46419628667E+01 0.21938423688E+02 0.49996966208E+02 0.73923444423E+02
 0.89872230049E+02 0.96336387838E+02 0.93983243925E+02 0.85041150959E+02 0.72538983275E+02
 0.59579607871E+02 0.48213076090E+02 0.38640977718E+02 0.30746111018E+02 0.24371300300E+02
 0.19325723845E+02 0.15392692347E+02 0.12351635642E+02 0.10005392340E+02 0.81970015432E+01
 0.68097729401E+01 0.57570984106E+01 0.49716975196E+01 0.43990346574E+01 0.39950104677E+01
 0.37264897921E+01 0.35722552010E+01 0.33681832837E+01 0.34184679091E+01 0.35722552010E+01
 0.38402492247E+01 0.42442376567E+01 0.48181591152E+01 0.56069735672E+01 0.66663213145E+01
 0.80653202839E+01 0.98936024141E+01 0.12272373350E+02 0.15364680922E+02 0.19374893700E+02
 0.24531009212E+02 0.31057033778E+02 0.39152128356E+02 0.48984364185E+02 0.60683043337E+02
 0.73894818015E+02 0.86224700807E+02 0.94366814517E+02 0.95118100249E+02 0.86146397376E+02
 0.66814739394E+02 0.38861927871E+02 0.65968408103E+01 -.23726665576E+02 -.45410267914E+02
 -.53286387409E+02 -.45410267914E+02 -.23726665576E+02 0.65968408103E+01 0.38861927871E+02
 0.66814739394E+02 0.86146397376E+02 0.95118100249E+02 0.94366814517E+02 0.86224700807E+02
 0.73894818015E+02 0.60683043337E+02 0.48984364185E+02 0.39152128356E+02 0.31057033778E+02
 0.24531009212E+02 0.19374893700E+02 0.15364680922E+02 0.12272373350E+02 0.98936024141E+01
 0.80653202839E+01 0.66663213145E+01 0.56069735672E+01 0.48181591152E+01 0.42442376567E+01
 0.38402492247E+01 0.35722552010E+01 0.34184679091E+01 0.33179519540E+01 0.33681832837E+01
 0.35218143396E+01 0.37896128916E+01 0.41935506412E+01 0.47678272314E+01 0.55576820566E+01
 0.66191240306E+01 0.80218993514E+01 0.98566745989E+01 0.12246187108E+02 0.15355534003E+02
 0.19391500410E+02 0.24584575525E+02 0.31161248988E+02 0.39323572456E+02 0.49243420494E+02
 0.61054222340E+02 0.74338758820E+02 0.86589307991E+02 0.94429702545E+02 0.94595465121E+02
 0.84717216522E+02 0.64168161326E+02 0.34769318366E+02 0.99490239794E+00 -.30670997513E+02
 -.53286387409E+02 -.61496537282E+02 -.53286387409E+02 -.30670997513E+02 0.99490239794E+00
 0.34769318366E+02 0.64168161326E+02 0.84717216522E+02 0.94595465121E+02 0.94429702545E+02
 0.86589307991E+02 0.74338758820E+02 0.61054222340E+02 0.49243420494E+02 0.39323572456E+02
 0.31161248988E+02 0.24584575525E+02 0.19391500410E+02 0.15355534003E+02 0.12246187108E+02
 0.98566745989E+01 0.80218993514E+01 0.66191240306E+01 0.55576820566E+01 0.47678272314E+01