   8   8   0   0
  0.2082684E+02  0.5502640E-09  0.5502640E-09  0.5502640E-09  0.1000000E-15
  1.000000000000000E-004
  CAR 
 GaAs                                    
     10.32195690    -10.80380600  301      4.05684784      1.00000000
    -10.804  0.0000E+00  0.0000E+00
    -10.733  0.0000E+00  0.0000E+00
    -10.663  0.0000E+00  0.0000E+00
    -10.593  0.0000E+00  0.0000E+00
    -10.522  0.0000E+00  0.0000E+00
    -10.452  0.0000E+00  0.0000E+00
    -10.381  0.0000E+00  0.0000E+00
    -10.311  0.0000E+00  0.0000E+00
    -10.240  0.0000E+00  0.0000E+00
    -10.170  0.0000E+00  0.0000E+00
    -10.100  0.0000E+00  0.0000E+00
    -10.029  0.0000E+00  0.0000E+00
     -9.959  0.0000E+00  0.0000E+00
     -9.888  0.0000E+00  0.0000E+00
     -9.818  0.0000E+00  0.0000E+00
     -9.748  0.4151E-03  0.7788E-05
     -9.677  0.2103E-02  0.8884E-04
     -9.607  0.4941E-02  0.3333E-03
     -9.536  0.7023E-02  0.7623E-03
     -9.466  0.7782E-02  0.1291E-02
     -9.395  0.8058E-02  0.1846E-02
     -9.325  0.8848E-02  0.2438E-02
     -9.255  0.1004E-01  0.3102E-02
     -9.184  0.1133E-01  0.3855E-02
     -9.114  0.1408E-01  0.4713E-02
     -9.043  0.1994E-01  0.5920E-02
     -8.973  0.2417E-01  0.7485E-02
     -8.902  0.2054E-01  0.9055E-02
     -8.832  0.1756E-01  0.1039E-01
     -8.762  0.1735E-01  0.1162E-01
     -8.691  0.1710E-01  0.1283E-01
     -8.621  0.1666E-01  0.1402E-01
     -8.550  0.1605E-01  0.1518E-01
     -8.480  0.1987E-01  0.1658E-01
     -8.410  0.1463E-01  0.1779E-01
     -8.339  0.8540E-02  0.1845E-01
     -8.269  0.1589E-01  0.1931E-01
     -8.198  0.2453E-01  0.2073E-01
     -8.128  0.2636E-01  0.2253E-01
     -8.057  0.2787E-01  0.2451E-01
     -7.987  0.2865E-01  0.2643E-01
     -7.917  0.3118E-01  0.2854E-01
     -7.846  0.6784E-01  0.3107E-01
     -7.776  0.6158E-01  0.3567E-01
     -7.705  0.4508E-01  0.3943E-01
     -7.635  0.3704E-01  0.4197E-01
     -7.565  0.3243E-01  0.4418E-01
     -7.494  0.3503E-01  0.4655E-01
     -7.424  0.4991E-01  0.4934E-01
     -7.353  0.5839E-01  0.5338E-01
     -7.283  0.5844E-01  0.5746E-01
     -7.212  0.6640E-01  0.6190E-01
     -7.142  0.5942E-01  0.6639E-01
     -7.072  0.4435E-01  0.6974E-01
     -7.001  0.4112E-01  0.7275E-01
     -6.931  0.3927E-01  0.7555E-01
     -6.860  0.3321E-01  0.7809E-01
     -6.790  0.1111E-01  0.7999E-01
     -6.719  0.0000E+00  0.8000E-01
     -6.649  0.0000E+00  0.8000E-01
     -6.579  0.0000E+00  0.8000E-01
     -6.508  0.0000E+00  0.8000E-01
     -6.438  0.0000E+00  0.8000E-01
     -6.367  0.0000E+00  0.8000E-01
     -6.297  0.0000E+00  0.8000E-01
     -6.227  0.0000E+00  0.8000E-01
     -6.156  0.0000E+00  0.8000E-01
     -6.086  0.0000E+00  0.8000E-01
     -6.015  0.0000E+00  0.8000E-01
     -5.945  0.0000E+00  0.8000E-01
     -5.874  0.0000E+00  0.8000E-01
     -5.804  0.0000E+00  0.8000E-01
     -5.734  0.0000E+00  0.8000E-01
     -5.663  0.0000E+00  0.8000E-01
     -5.593  0.0000E+00  0.8000E-01
     -5.522  0.0000E+00  0.8000E-01
     -5.452  0.0000E+00  0.8000E-01
     -5.382  0.0000E+00  0.8000E-01
     -5.311  0.0000E+00  0.8000E-01
     -5.241  0.0000E+00  0.8000E-01
     -5.170  0.0000E+00  0.8000E-01
     -5.100  0.0000E+00  0.8000E-01
     -5.029  0.0000E+00  0.8000E-01
     -4.959  0.0000E+00  0.8000E-01
     -4.889  0.0000E+00  0.8000E-01
     -4.818  0.0000E+00  0.8000E-01
     -4.748  0.0000E+00  0.8000E-01
     -4.677  0.0000E+00  0.8000E-01
     -4.607  0.0000E+00  0.8000E-01
     -4.536  0.0000E+00  0.8000E-01
     -4.466  0.0000E+00  0.8000E-01
     -4.396  0.0000E+00  0.8000E-01
     -4.325  0.0000E+00  0.8000E-01
     -4.255  0.0000E+00  0.8000E-01
     -4.184  0.0000E+00  0.8000E-01
     -4.114  0.0000E+00  0.8000E-01
     -4.044  0.0000E+00  0.8000E-01
     -3.973  0.0000E+00  0.8000E-01
     -3.903  0.0000E+00  0.8000E-01
     -3.832  0.0000E+00  0.8000E-01
     -3.762  0.0000E+00  0.8000E-01
     -3.691  0.0000E+00  0.8000E-01
     -3.621  0.0000E+00  0.8000E-01
     -3.551  0.0000E+00  0.8000E-01
     -3.480  0.7286E-04  0.8000E-01
     -3.410  0.6923E-02  0.8018E-01
     -3.339  0.1388E-01  0.8099E-01
     -3.269  0.3885E-01  0.8294E-01
     -3.199  0.6057E-01  0.8607E-01
     -3.128  0.1104E+00  0.9153E-01
     -3.058  0.8390E-01  0.9935E-01
     -2.987  0.7355E-01  0.1045E+00
     -2.917  0.7564E-01  0.1097E+00
     -2.846  0.5398E-01  0.1141E+00
     -2.776  0.4513E-01  0.1177E+00
     -2.706  0.3336E-01  0.1205E+00
     -2.635  0.2378E-01  0.1222E+00
     -2.565  0.2317E-01  0.1239E+00
     -2.494  0.2260E-01  0.1255E+00
     -2.424  0.2206E-01  0.1271E+00
     -2.354  0.2155E-01  0.1286E+00
     -2.283  0.2108E-01  0.1301E+00
     -2.213  0.2065E-01  0.1316E+00
     -2.142  0.2025E-01  0.1330E+00
     -2.072  0.1657E-01  0.1342E+00
     -2.001  0.1631E-01  0.1354E+00
     -1.931  0.1600E-01  0.1365E+00
     -1.861  0.1558E-01  0.1376E+00
     -1.790  0.1510E-01  0.1387E+00
     -1.720  0.1458E-01  0.1398E+00
     -1.649  0.1402E-01  0.1408E+00
     -1.579  0.1343E-01  0.1417E+00
     -1.508  0.1280E-01  0.1427E+00
     -1.438  0.1296E-01  0.1435E+00
     -1.368  0.1199E-01  0.1444E+00
     -1.297  0.1116E-01  0.1452E+00
     -1.227  0.1046E-01  0.1460E+00
     -1.156  0.9900E-02  0.1467E+00
     -1.086  0.8433E-02  0.1473E+00
     -1.016  0.9215E-02  0.1480E+00
     -0.945  0.1010E-01  0.1486E+00
     -0.875  0.1110E-01  0.1494E+00
     -0.804  0.1221E-01  0.1502E+00
     -0.734  0.1758E-01  0.1512E+00
     -0.663  0.1479E-01  0.1525E+00
     -0.593  0.1515E-01  0.1535E+00
     -0.523  0.1660E-01  0.1546E+00
     -0.452  0.1879E-01  0.1559E+00
     -0.382  0.2148E-01  0.1573E+00
     -0.311  0.2390E-01  0.1589E+00
     -0.241  0.4100E-01  0.1616E+00
     -0.171  0.3652E-01  0.1646E+00
     -0.100  0.4752E-01  0.1674E+00
     -0.030  0.6646E-01  0.1714E+00
      0.041  0.5841E-01  0.1766E+00
      0.111  0.4813E-01  0.1801E+00
      0.182  0.4469E-01  0.1834E+00
      0.252  0.3911E-01  0.1864E+00
      0.322  0.3713E-01  0.1891E+00
      0.393  0.3564E-01  0.1917E+00
      0.463  0.3844E-01  0.1944E+00
      0.534  0.3764E-01  0.1972E+00
      0.604  0.3476E-01  0.1995E+00
      0.675  0.3606E-01  0.2020E+00
      0.745  0.3697E-01  0.2046E+00
      0.815  0.4773E-01  0.2075E+00
      0.886  0.6774E-01  0.2115E+00
      0.956  0.7363E-01  0.2166E+00
      1.027  0.6186E-01  0.2213E+00
      1.097  0.7348E-01  0.2262E+00
      1.167  0.6260E-01  0.2310E+00
      1.238  0.5443E-01  0.2351E+00
      1.308  0.4489E-01  0.2386E+00
      1.379  0.3749E-01  0.2414E+00
      1.449  0.3589E-01  0.2440E+00
      1.520  0.3728E-01  0.2465E+00
      1.590  0.4177E-01  0.2493E+00
      1.660  0.4816E-01  0.2524E+00
      1.731  0.5297E-01  0.2560E+00
      1.801  0.5124E-01  0.2602E+00
      1.872  0.4801E-01  0.2635E+00
      1.942  0.5012E-01  0.2670E+00
      2.012  0.6006E-01  0.2707E+00
      2.083  0.7783E-01  0.2754E+00
      2.153  0.4997E-01  0.2801E+00
      2.224  0.4459E-01  0.2835E+00
      2.294  0.3930E-01  0.2864E+00
      2.365  0.3411E-01  0.2890E+00
      2.435  0.2938E-01  0.2913E+00
      2.505  0.2123E-01  0.2929E+00
      2.576  0.1969E-01  0.2943E+00
      2.646  0.2478E-01  0.2959E+00
      2.717  0.3153E-01  0.2978E+00
      2.787  0.4422E-01  0.3007E+00
      2.858  0.4443E-01  0.3037E+00
      2.928  0.4826E-01  0.3069E+00
      2.998  0.4848E-01  0.3103E+00
      3.069  0.2866E-01  0.3130E+00
      3.139  0.1450E-01  0.3142E+00
      3.210  0.1276E-01  0.3151E+00
      3.280  0.1108E-01  0.3160E+00
      3.350  0.9455E-02  0.3167E+00
      3.421  0.7998E-02  0.3173E+00
      3.491  0.8451E-02  0.3179E+00
      3.562  0.8414E-02  0.3185E+00
      3.632  0.7519E-02  0.3190E+00
      3.703  0.5765E-02  0.3195E+00
      3.773  0.3151E-02  0.3198E+00
      3.843  0.9451E-03  0.3199E+00
      3.914  0.3251E-03  0.3200E+00
      3.984  0.2828E-04  0.3200E+00
      4.055  0.0000E+00  0.3200E+00
      4.125  0.0000E+00  0.3200E+00
      4.195  0.0000E+00  0.3200E+00
      4.266  0.0000E+00  0.3200E+00
      4.336  0.0000E+00  0.3200E+00
      4.407  0.0000E+00  0.3200E+00
      4.477  0.0000E+00  0.3200E+00
      4.548  0.0000E+00  0.3200E+00
      4.618  0.0000E+00  0.3200E+00
      4.688  0.0000E+00  0.3200E+00
      4.759  0.0000E+00  0.3200E+00
      4.829  0.0000E+00  0.3200E+00
      4.900  0.0000E+00  0.3200E+00
      4.970  0.0000E+00  0.3200E+00
      5.041  0.0000E+00  0.3200E+00
      5.111  0.0000E+00  0.3200E+00
      5.181  0.8457E-04  0.3200E+00
      5.252  0.2312E-02  0.3201E+00
      5.322  0.2916E-02  0.3203E+00
      5.393  0.3659E-02  0.3205E+00
      5.463  0.4542E-02  0.3208E+00
      5.533  0.5565E-02  0.3212E+00
      5.604  0.1018E-01  0.3218E+00
      5.674  0.9167E-02  0.3224E+00
      5.745  0.1018E-01  0.3231E+00
      5.815  0.1169E-01  0.3239E+00
      5.886  0.1372E-01  0.3247E+00
      5.956  0.1797E-01  0.3258E+00
      6.026  0.2747E-01  0.3274E+00
      6.097  0.3762E-01  0.3299E+00
      6.167  0.2997E-01  0.3321E+00
      6.238  0.3282E-01  0.3343E+00
      6.308  0.4808E-01  0.3372E+00
      6.378  0.4731E-01  0.3404E+00
      6.449  0.5331E-01  0.3439E+00
      6.519  0.1943E+00  0.3518E+00
      6.590  0.4567E-01  0.3575E+00
      6.660  0.6714E-01  0.3609E+00
      6.731  0.5693E-01  0.3655E+00
      6.801  0.5240E-01  0.3694E+00
      6.871  0.4203E-01  0.3727E+00
      6.942  0.4153E-01  0.3757E+00
      7.012  0.4134E-01  0.3786E+00
      7.083  0.7085E-01  0.3827E+00
      7.153  0.7790E-01  0.3880E+00
      7.224  0.4127E-01  0.3921E+00
      7.294  0.3838E-01  0.3949E+00
      7.364  0.3588E-01  0.3975E+00
      7.435  0.3507E-01  0.4000E+00
      7.505  0.3428E-01  0.4024E+00
      7.576  0.3349E-01  0.4048E+00
      7.646  0.3379E-01  0.4072E+00
      7.716  0.2678E-01  0.4093E+00
      7.787  0.1979E-01  0.4109E+00
      7.857  0.2821E-01  0.4125E+00
      7.928  0.2881E-01  0.4145E+00
      7.998  0.3199E-01  0.4166E+00
      8.069  0.4236E-01  0.4193E+00
      8.139  0.4024E-01  0.4221E+00
      8.209  0.6749E-01  0.4255E+00
      8.280  0.8567E-01  0.4314E+00
      8.350  0.7350E-01  0.4370E+00
      8.421  0.5945E-01  0.4419E+00
      8.491  0.4776E-01  0.4455E+00
      8.561  0.4240E-01  0.4487E+00
      8.632  0.3574E-01  0.4514E+00
      8.702  0.2743E-01  0.4535E+00
      8.773  0.4230E-01  0.4558E+00
      8.843  0.5101E-01  0.4591E+00
      8.914  0.5236E-01  0.4630E+00
      8.984  0.5171E-01  0.4666E+00
      9.054  0.4913E-01  0.4702E+00
      9.125  0.4459E-01  0.4735E+00
      9.195  0.2837E-01  0.4763E+00
      9.266  0.3159E-01  0.4784E+00
      9.336  0.0000E+00  0.4800E+00
      9.407  0.0000E+00  0.4800E+00
      9.477  0.0000E+00  0.4800E+00
      9.547  0.0000E+00  0.4800E+00
      9.618  0.0000E+00  0.4800E+00
      9.688  0.0000E+00  0.4800E+00
      9.759  0.0000E+00  0.4800E+00
      9.829  0.0000E+00  0.4800E+00
      9.899  0.0000E+00  0.4800E+00
      9.970  0.0000E+00  0.4800E+00
     10.040  0.0000E+00  0.4800E+00
     10.111  0.0000E+00  0.4800E+00
     10.181  0.0000E+00  0.4800E+00
     10.252  0.0000E+00  0.4800E+00
     10.322  0.0000E+00  0.4800E+00
