       N       E                     dE             d eps       ncg     rms          rms(c)
DAV:   1    -0.323434142773E+02   -0.32343E+02   -0.26077E-01   544   0.224E+00    0.825E-01
DAV:   2    -0.323374574206E+02    0.59569E-02   -0.14003E-02   504   0.524E-01    0.492E-01
DAV:   3    -0.323355068144E+02    0.19506E-02   -0.94626E-03   512   0.355E-01    0.556E-02
DAV:   4    -0.323353783172E+02    0.12850E-03   -0.56449E-04   504   0.109E-01    0.315E-02
DAV:   5    -0.323353632584E+02    0.15059E-04   -0.70178E-05   240   0.338E-02
   1 F= -.11536829E+02 E0= -.11536829E+02  d E =-.115368E+02
       N       E                     dE             d eps       ncg     rms          rms(c)
DAV:   1    -0.319474753737E+02    0.38790E+00   -0.91250E-01   544   0.420E+00    0.104E+00
DAV:   2    -0.319171103672E+02    0.30365E-01   -0.55050E-02   504   0.104E+00    0.548E-01
DAV:   3    -0.319065126348E+02    0.10598E-01   -0.37614E-02   520   0.719E-01    0.183E-01
DAV:   4    -0.319062041380E+02    0.30850E-03   -0.13667E-03   520   0.178E-01    0.146E-01
DAV:   5    -0.319059527581E+02    0.25138E-03   -0.53424E-04   544   0.967E-02    0.565E-02
DAV:   6    -0.319059507060E+02    0.20521E-05   -0.42189E-05   240   0.272E-02
   2 F= -.11734242E+02 E0= -.11734242E+02  d E =-.197413E+00
       N       E                     dE             d eps       ncg     rms          rms(c)
DAV:   1    -0.314392205030E+02    0.46673E+00   -0.80053E-01   544   0.396E+00    0.986E-01
DAV:   2    -0.314126222562E+02    0.26598E-01   -0.47949E-02   504   0.978E-01    0.523E-01
DAV:   3    -0.314032603882E+02    0.93619E-02   -0.33034E-02   520   0.678E-01    0.174E-01
DAV:   4    -0.314030059819E+02    0.25441E-03   -0.11806E-03   512   0.166E-01    0.141E-01
DAV:   5    -0.314027871314E+02    0.21885E-03   -0.46264E-04   520   0.903E-02    0.529E-02
DAV:   6    -0.314027851466E+02    0.19848E-05   -0.36053E-05   240   0.253E-02
   3 F= -.11805593E+02 E0= -.11805593E+02  d E =-.268764E+00
