 running    8 mpi-ranks, on    1 nodes
 distrk:  each k-point on    8 cores,    1 groups
 distr:  one band on    1 cores,    8 groups
 vasp.6.4.3 19Mar24 (build Aug 29 2024 15:27:20) complex                        
  
 POSCAR found type information on POSCAR AsGa
 POSCAR found :  2 types and       8 ions
 scaLAPACK will be used
 -----------------------------------------------------------------------------
|                                                                             |
|           W    W    AA    RRRRR   N    N  II  N    N   GGGG   !!!           |
|           W    W   A  A   R    R  NN   N  II  NN   N  G    G  !!!           |
|           W    W  A    A  R    R  N N  N  II  N N  N  G       !!!           |
|           W WW W  AAAAAA  RRRRR   N  N N  II  N  N N  G  GGG   !            |
|           WW  WW  A    A  R   R   N   NN  II  N   NN  G    G                |
|           W    W  A    A  R    R  N    N  II  N    N   GGGG   !!!           |
|                                                                             |
|     For optimal performance we recommend to set                             |
|       NCORE = 2 up to number-of-cores-per-socket                            |
|     NCORE specifies how many cores store one orbital (NPAR=cpu/NCORE).      |
|     This setting can greatly improve the performance of VASP for DFT.       |
|     The default, NCORE=1 might be grossly inefficient on modern             |
|     multi-core architectures or massively parallel machines. Do your        |
|     own testing! More info at https://www.vasp.at/wiki/index.php/NCORE      |
|     Unfortunately you need to use the default for GW and RPA                |
|     calculations (for HF NCORE is supported but not extensively tested      |
|     yet).                                                                   |
|                                                                             |
 -----------------------------------------------------------------------------

 LDA part: xc-table for (Slater+PW92), standard interpolation
 found WAVECAR, reading the header
 POSCAR, INCAR and KPOINTS ok, starting setup
 FFT: planning ... GRIDC
 FFT: planning ... GRID_SOFT
 FFT: planning ... GRID
 reading WAVECAR
 the WAVECAR file was read successfully
 initial charge from wavefunction
 entering main loop
       N       E                     dE             d eps       ncg     rms          rms(c)
DAV:   1    -0.323434142773E+02   -0.32343E+02   -0.26077E-01   544   0.224E+00    0.825E-01
DAV:   2    -0.323374574206E+02    0.59569E-02   -0.14003E-02   504   0.524E-01    0.492E-01
DAV:   3    -0.323355068144E+02    0.19506E-02   -0.94626E-03   512   0.355E-01    0.556E-02
DAV:   4    -0.323353783172E+02    0.12850E-03   -0.56449E-04   504   0.109E-01    0.315E-02
DAV:   5    -0.323353632584E+02    0.15059E-04   -0.70178E-05   240   0.338E-02
   1 F= -.11536829E+02 E0= -.11536829E+02  d E =-.115368E+02
 curvature:   0.00 expect dE= 0.000E+00 dE for cont linesearch  0.000E+00
 trial: gam= 0.00000 g(F)=  0.501E-60 g(S)=  0.256E+00 ort = 0.000E+00 (trialstep = 0.100E+01)
 search vector abs. value=  0.256E+00
 bond charge predicted
       N       E                     dE             d eps       ncg     rms          rms(c)
DAV:   1    -0.319474753737E+02    0.38790E+00   -0.91250E-01   544   0.420E+00    0.104E+00
DAV:   2    -0.319171103672E+02    0.30365E-01   -0.55050E-02   504   0.104E+00    0.548E-01
DAV:   3    -0.319065126348E+02    0.10598E-01   -0.37614E-02   520   0.719E-01    0.183E-01
DAV:   4    -0.319062041380E+02    0.30850E-03   -0.13667E-03   520   0.178E-01    0.146E-01
DAV:   5    -0.319059527581E+02    0.25138E-03   -0.53424E-04   544   0.967E-02    0.565E-02
DAV:   6    -0.319059507060E+02    0.20521E-05   -0.42189E-05   240   0.272E-02
   2 F= -.11734242E+02 E0= -.11734242E+02  d E =-.197413E+00
 trial-energy change:   -0.197413  1 .order   -0.195462   -0.256192   -0.134732
 step:   1.9349(harm=  2.1093)  dis= 0.00000  next Energy=   -11.798818 (dE=-0.262E+00)
 bond charge predicted
       N       E                     dE             d eps       ncg     rms          rms(c)
DAV:   1    -0.314392205030E+02    0.46673E+00   -0.80053E-01   544   0.396E+00    0.986E-01
DAV:   2    -0.314126222562E+02    0.26598E-01   -0.47949E-02   504   0.978E-01    0.523E-01
DAV:   3    -0.314032603882E+02    0.93619E-02   -0.33034E-02   520   0.678E-01    0.174E-01
DAV:   4    -0.314030059819E+02    0.25441E-03   -0.11806E-03   512   0.166E-01    0.141E-01
DAV:   5    -0.314027871314E+02    0.21885E-03   -0.46264E-04   520   0.903E-02    0.529E-02
DAV:   6    -0.314027851466E+02    0.19848E-05   -0.36053E-05   240   0.253E-02
   3 F= -.11805593E+02 E0= -.11805593E+02  d E =-.268764E+00
 curvature:  -1.03 expect dE=-0.766E-03 dE for cont linesearch -0.766E-03
 trial: gam=-0.05100 g(F)=  0.547E-60 g(S)=  0.745E-03 ort = 0.138E-01 (trialstep = 0.119E+01)
 search vector abs. value=  0.216E-05
 reached required accuracy - stopping structural energy minimisation
 writing wavefunctions
