GaAs                                    
   4.50000000000000     
     1.173134    0.000000    0.000000
     0.000000    1.173134    0.000000
     0.000000    0.000000    1.173134
   As   Ga
     4     4
Direct
  0.000000  0.000000  0.000000
  0.500000  0.500000  0.000000
  0.500000  0.000000  0.500000
  0.000000  0.500000  0.500000
  0.250000  0.250000  0.250000
  0.750000  0.250000  0.750000
  0.750000  0.750000  0.250000
  0.250000  0.750000  0.750000
 
   60   60   60
 -59.897     -53.326     -34.940     -8.3659      21.428      49.386      71.503      85.503      90.944      88.867    
  81.259      70.524      59.053      48.667      39.735      32.203      25.982      20.944      16.924      13.743    
  11.233      9.2571      7.7102      6.5100      5.5904      4.8962      4.3820      4.0127      3.7642      3.6210    
  3.5742      3.6210      3.7642      4.0127      4.3820      4.8962      5.5904      6.5100      7.7102      9.2571    
  11.233      13.743      16.924      20.944      25.982      32.203      39.735      48.667      59.053      70.524    
  81.259      88.867      90.944      85.503      71.503      49.386      21.428     -8.3659     -34.940     -53.326    
 -53.326     -46.974     -29.209     -3.5587      25.151      52.011      73.141      86.344      91.208      88.765    
  80.970      70.187      58.765      48.459      39.592      32.111      25.931      20.924      16.927      13.761    
  11.261      9.2925      7.7503      6.5530      5.6353      4.9421      4.4283      4.0593      3.8109      3.6677    
  3.6210      3.6677      3.8109      4.0593      4.4283      4.9421      5.6353      6.5530      7.7503      9.2925    
  11.261      13.761      16.927      20.924      25.931      32.111      39.592      48.459      58.765      70.187    
  80.970      88.765      91.208      86.344      73.141      52.011      25.151     -3.5587     -29.209     -46.974    
 -34.940     -29.209     -13.205      9.8304      35.472      59.233      77.584      88.550      91.801      88.344    
  80.047      69.159      57.907      47.838      39.163      31.837      25.779      20.865      16.935      13.816    
  11.348      9.4006      7.8725      6.6845      5.7725      5.0826      4.5704      4.2020      3.9539      3.8109    
  3.7642      3.8109      3.9539      4.2020      4.5704      5.0826      5.7725      6.6845      7.8725      9.4006    
  11.348      13.816      16.935      20.865      25.779      31.837      39.163      47.838      57.907      69.159    
  80.047      88.344      91.801      88.550      77.584      59.233      35.472      9.8304     -13.205     -29.209    
 -8.3659     -3.5587      9.8304      28.990      50.095      69.289      83.562      91.265      92.189      87.307    
  78.354      67.406      56.496      46.814      38.455      31.385      25.529      20.768      16.950      13.910    
  11.496      9.5859      8.0827      6.9111      6.0094      5.3254      4.8163      4.4494      4.2020      4.0593    
  4.0127      4.0593      4.2020      4.4494      4.8163      5.3254      6.0094      6.9111      8.0827      9.5859    
  11.496      13.910      16.950      20.768      25.529      31.385      38.455      46.814      56.496      67.406    
  78.354      87.307      92.189      91.265      83.562      69.289      50.095      28.990      9.8304     -3.5587    
  21.428      25.151      35.472      50.095      65.911      79.805      89.374      93.355      91.683      85.285    
  75.743      64.920      54.566      45.409      37.483      30.764      25.186      20.639      16.978      14.049    
  11.713      9.8564      8.3903      7.2439      6.3583      5.6840      5.1803      4.8163      4.5704      4.4283    
  4.3820      4.4283      4.5704      4.8163      5.1803      5.6840      6.3583      7.2439      8.3903      9.8564    
  11.713      14.049      16.978      20.639      25.186      30.764      37.483      45.409      54.566      64.920    
  75.743      85.285      91.683      93.355      89.374      79.805      65.911      50.095      35.472      25.151    
  49.386      52.011      59.233      69.289      79.805      88.422      93.360      93.744      89.657      81.988    
  72.149      61.768      52.172      43.663      36.273      29.992      24.764      20.486      17.025      14.240    
  12.007      10.224      8.8095      7.6991      6.8376      6.1785      5.6840      5.3254      5.0826      4.9421    
  4.8962      4.9421      5.0826      5.3254      5.6840      6.1785      6.8376      7.6991      8.8095      10.224    
  12.007      14.240      17.025      20.486      24.764      29.992      36.273      43.663      52.172      61.768    
  72.149      81.988      89.657      93.744      93.360      88.422      79.805      69.289      59.233      52.011    
  71.503      73.141      77.584      83.562      89.374      93.360      94.307      91.697      85.755      77.326    
  67.658      58.105      49.391      41.629      34.864      29.099      24.284      20.326      17.105      14.497    
  12.394      10.705      9.3603      8.2998      7.4732      6.8376      6.3583      6.0094      5.7725      5.6353    
  5.5904      5.6353      5.7725      6.0094      6.3583      6.8376      7.4732      8.2998      9.3603      10.705    
  12.394      14.497      17.105      20.326      24.284      29.099      34.864      41.629      49.391      58.105    
  67.658      77.326      85.755      91.697      94.307      93.360      89.374      83.562      77.584      73.141    
  85.503      86.344      88.550      91.265      93.355      93.744      91.697      87.002      79.999      71.487    
  62.546      54.075      46.319      39.378      33.309      28.121      23.772      20.178      17.235      14.837    
  12.892      11.324      10.070      9.0771      8.2998      7.6991      7.2439      6.9111      6.6845      6.5530    
  6.5100      6.5530      6.6845      6.9111      7.2439      7.6991      8.2998      9.0771      10.070      11.324    
  12.892      14.837      17.235      20.178      23.772      28.121      33.309      39.378      46.319      54.075    
  62.546      71.487      79.999      87.002      91.697      93.744      93.355      91.265      88.550      86.344    
  90.944      91.208      91.801      92.189      91.683      89.657      85.755      79.999      72.810      64.930    
  57.158      49.820      43.064      36.994      31.671      27.105      23.262      20.069      17.439      15.285    
  13.530      12.110      10.973      10.070      9.3603      8.8095      8.3903      8.0827      7.8725      7.7503    
  7.7102      7.7503      7.8725      8.0827      8.3903      8.8095      9.3603      10.070      10.973      12.110    
  13.530      15.285      17.439      20.069      23.262      27.105      31.671      36.994      43.064      49.820    
  57.158      64.930      72.810      79.999      85.755      89.657      91.683      92.189      91.801      91.208    
  88.867      88.765      88.344      87.307      85.285      81.988      77.326      71.487      64.930      58.234    
  51.696      45.486      39.742      34.565      30.014      26.099      22.791      20.030      17.746      15.870    
  14.339      13.102      12.110      11.324      10.705      10.224      9.8564      9.5859      9.4006      9.2925    
  9.2571      9.2925      9.4006      9.5859      9.8564      10.224      10.705      11.324      12.110      13.102    
  14.339      15.870      17.746      20.030      22.791      26.099      30.014      34.565      39.742      45.486    
  51.696      58.234      64.930      71.487      77.326      81.988      85.285      87.307      88.344      88.765    
  81.259      80.970      80.047      78.354      75.743      72.149      67.658      62.546      57.158      51.696    
  46.331      41.213      36.465      32.179      28.405      25.152      22.398      20.094      18.188      16.626    
  15.358      14.339      13.530      12.892      12.394      12.007      11.713      11.496      11.348      11.261    
  11.233      11.261      11.348      11.496      11.713      12.007      12.394      12.892      13.530      14.339    
  15.358      16.626      18.188      20.094      22.398      25.152      28.405      32.179      36.465      41.213    
  46.331      51.696      57.158      62.546      67.658      72.149      75.743      78.354      80.047      80.970    
  70.524      70.187      69.159      67.406      64.920      61.768      58.105      54.075      49.820      45.486    
  41.213      37.128      33.337      29.915      26.903      24.311      22.120      20.296      18.800      17.590    
  16.626      15.870      15.285      14.837      14.497      14.240      14.049      13.910      13.816      13.761    
  13.743      13.761      13.816      13.910      14.049      14.240      14.497      14.837      15.285      15.870    
  16.626      17.590      18.800      20.296      22.120      24.311      26.903      29.915      33.337      37.128    
  41.213      45.486      49.820      54.075      58.105      61.768      64.920      67.406      69.159      70.187    
  59.053      58.765      57.907      56.496      54.566      52.172      49.391      46.319      43.064      39.742    
  36.465      33.337      30.441      27.838      25.559      23.615      21.992      20.669      19.616      18.800    
  18.188      17.746      17.439      17.235      17.105      17.025      16.978      16.950      16.935      16.927    
  16.924      16.927      16.935      16.950      16.978      17.025      17.105      17.235      17.439      17.746    
  18.188      18.800      19.616      20.669      21.992      23.615      25.559      27.838      30.441      33.337    
  36.465      39.742      43.064      46.319      49.391      52.172      54.566      56.496      57.907      58.765    
  48.667      48.459      47.838      46.814      45.409      43.663      41.629      39.378      36.994      34.565    
  32.179      29.915      27.838      25.994      24.410      23.095      22.044      21.243      20.669      20.296    
  20.094      20.030      20.069      20.178      20.326      20.486      20.639      20.768      20.865      20.924    
  20.944      20.924      20.865      20.768      20.639      20.486      20.326      20.178      20.069      20.030    
  20.094      20.296      20.669      21.243      22.044      23.095      24.410      25.994      27.838      29.915    
  32.179      34.565      36.994      39.378      41.629      43.663      45.409      46.814      47.838      48.459    
  39.735      39.592      39.163      38.455      37.483      36.273      34.864      33.309      31.671      30.014    
  28.405      26.903      25.559      24.410      23.478      22.775      22.300      22.044      21.992      22.120    
  22.398      22.791      23.262      23.772      24.284      24.764      25.186      25.529      25.779      25.931    
  25.982      25.931      25.779      25.529      25.186      24.764      24.284      23.772      23.262      22.791    
  22.398      22.120      21.992      22.044      22.300      22.775      23.478      24.410      25.559      26.903    
  28.405      30.014      31.671      33.309      34.864      36.273      37.483      38.455      39.163      39.592    
  32.203      32.111      31.837      31.385      30.764      29.992      29.099      28.121      27.105      26.099    
  25.152      24.311      23.615      23.095      22.775      22.666      22.775      23.095      23.615      24.311    
  25.152      26.099      27.105      28.121      29.099      29.992      30.764      31.385      31.837      32.111    
  32.203      32.111      31.837      31.385      30.764      29.992      29.099      28.121      27.105      26.099    
  25.152      24.311      23.615      23.095      22.775      22.666      22.775      23.095      23.615      24.311    
  25.152      26.099      27.105      28.121      29.099      29.992      30.764      31.385      31.837      32.111    
  25.982      25.931      25.779      25.529      25.186      24.764      24.284      23.772      23.262      22.791    
  22.398      22.120      21.992      22.044      22.300      22.775      23.478      24.410      25.559      26.903    
  28.405      30.014      31.671      33.309      34.864      36.273      37.483      38.455      39.163      39.592    
  39.735      39.592      39.163      38.455      37.483      36.273      34.864      33.309      31.671      30.014    
  28.405      26.903      25.559      24.410      23.478      22.775      22.300      22.044      21.992      22.120    
  22.398      22.791      23.262      23.772      24.284      24.764      25.186      25.529      25.779      25.931    
  20.944      20.924      20.865      20.768      20.639      20.486      20.326      20.178      20.069      20.030    
  20.094      20.296      20.669      21.243      22.044      23.095      24.410      25.994      27.838      29.915    
  32.179      34.565      36.994      39.378      41.629      43.663      45.409      46.814      47.838      48.459    
  48.667      48.459      47.838      46.814      45.409      43.663      41.629      39.378      36.994      34.565    
  32.179      29.915      27.838      25.994      24.410      23.095      22.044      21.243      20.669      20.296    
  20.094      20.030      20.069      20.178      20.326      20.486      20.639      20.768      20.865      20.924    
  16.924      16.927      16.935      16.950      16.978      17.025      17.105      17.235      17.439      17.746    
  18.188      18.800      19.616      20.669      21.992      23.615      25.559      27.838      30.441      33.337    
  36.465      39.742      43.064      46.319      49.391      52.172      54.566      56.496      57.907      58.765    
  59.053      58.765      57.907      56.496      54.566      52.172      49.391      46.319      43.064      39.742    
  36.465      33.337      30.441      27.838      25.559      23.615      21.992      20.669      19.616      18.800    
  18.188      17.746      17.439      17.235      17.105      17.025      16.978      16.950      16.935      16.927    
  13.743      13.761      13.816      13.910      14.049      14.240      14.497      14.837      15.285      15.870    
  16.626      17.590      18.800      20.296      22.120      24.311      26.903      29.915      33.337      37.128    
  41.213      45.486      49.820      54.075      58.105      61.768      64.920      67.406      69.159      70.187    
  70.524      70.187      69.159      67.406      64.920      61.768      58.105      54.075      49.820      45.486    
  41.213      37.128      33.337      29.915      26.903      24.311      22.120      20.296      18.800      17.590    
  16.626      15.870      15.285      14.837      14.497      14.240      14.049      13.910      13.816      13.761    
  11.233      11.261      11.348      11.496      11.713      12.007      12.394      12.892      13.530      14.339    
  15.358      16.626      18.188      20.094      22.398      25.152      28.405      32.179      36.465      41.213    
  46.331      51.696      57.158      62.546      67.658      72.149      75.743      78.354      80.047      80.970    
  81.259      80.970      80.047      78.354      75.743      72.149      67.658      62.546      57.158      51.696    
  46.331      41.213      36.465      32.179      28.405      25.152      22.398      20.094      18.188      16.626    
  15.358      14.339      13.530      12.892      12.394      12.007      11.713      11.496      11.348      11.261    
  9.2571      9.2925      9.4006      9.5859      9.8564      10.224      10.705      11.324      12.110      13.102    
  14.339      15.870      17.746      20.030      22.791      26.099      30.014      34.565      39.742      45.486    
  51.696      58.234      64.930      71.487      77.326      81.988      85.285      87.307      88.344      88.765    
  88.867      88.765      88.344      87.307      85.285      81.988      77.326      71.487      64.930      58.234    
  51.696      45.486      39.742      34.565      30.014      26.099      22.791      20.030      17.746      15.870    
  14.339      13.102      12.110      11.324      10.705      10.224      9.8564      9.5859      9.4006      9.2925    
  7.7102      7.7503      7.8725      8.0827      8.3903      8.8095      9.3603      10.070      10.973      12.110    
  13.530      15.285      17.439      20.069      23.262      27.105      31.671      36.994      43.064      49.820    
  57.158      64.930      72.810      79.999      85.755      89.657      91.683      92.189      91.801      91.208    
  90.944      91.208      91.801      92.189      91.683      89.657      85.755      79.999      72.810      64.930    
  57.158      49.820      43.064      36.994      31.671      27.105      23.262      20.069      17.439      15.285    
  13.530      12.110      10.973      10.070      9.3603      8.8095      8.3903      8.0827      7.8725      7.7503    
  6.5100      6.5530      6.6845      6.9111      7.2439      7.6991      8.2998      9.0771      10.070      11.324    
  12.892      14.837      17.235      20.178      23.772      28.121      33.309      39.378      46.319      54.075    
  62.546      71.487      79.999      87.002      91.697      93.744      93.355      91.265      88.550      86.344    
  85.503      86.344      88.550      91.265      93.355      93.744      91.697      87.002      79.999      71.487    
  62.546      54.075      46.319      39.378      33.309      28.121      23.772      20.178      17.235      14.837    
  12.892      11.324      10.070      9.0771      8.2998      7.6991      7.2439      6.9111      6.6845      6.5530    
  5.5904      5.6353      5.7725      6.0094      6.3583      6.8376      7.4732      8.2998      9.3603      10.705    
  12.394      14.497      17.105      20.326      24.284      29.099      34.864      41.629      49.391      58.105    
  67.658      77.326      85.755      91.697      94.307      93.360      89.374      83.562      77.584      73.141    
  71.503      73.141      77.584      83.562      89.374      93.360      94.307      91.697      85.755      77.326    
  67.658      58.105      49.391      41.629      34.864      29.099      24.284      20.326      17.105      14.497    
  12.394      10.705      9.3603      8.2998      7.4732      6.8376      6.3583      6.0094      5.7725      5.6353    
  4.8962      4.9421      5.0826      5.3254      5.6840      6.1785      6.8376      7.6991      8.8095      10.224    
  12.007      14.240      17.025      20.486      24.764      29.992      36.273      43.663      52.172      61.768    
  72.149      81.988      89.657      93.744      93.360      88.422      79.805      69.289      59.233      52.011    
  49.386      52.011      59.233      69.289      79.805      88.422      93.360      93.744      89.657      81.988    
  72.149      61.768      52.172      43.663      36.273      29.992      24.764      20.486      17.025      14.240    
  12.007      10.224      8.8095      7.6991      6.8376      6.1785      5.6840      5.3254      5.0826      4.9421    
  4.3820      4.4283      4.5704      4.8163      5.1803      5.6840      6.3583      7.2439      8.3903      9.8564    
  11.713      14.049      16.978      20.639      25.186      30.764      37.483      45.409      54.566      64.920    
  75.743      85.285      91.683      93.355      89.374      79.805      65.911      50.095      35.472      25.151    
  21.428      25.151      35.472      50.095      65.911      79.805      89.374      93.355      91.683      85.285    
  75.743      64.920      54.566      45.409      37.483      30.764      25.186      20.639      16.978      14.049    
  11.713      9.8564      8.3903      7.2439      6.3583      5.6840      5.1803      4.8163      4.5704      4.4283    
  4.0127      4.0593      4.2020      4.4494      4.8163      5.3254      6.0094      6.9111      8.0827      9.5859    
  11.496      13.910      16.950      20.768      25.529      31.385      38.455      46.814      56.496      67.406    
  78.354      87.307      92.189      91.265      83.562      69.289      50.095      28.990      9.8304     -3.5587    
 -8.3659     -3.5587      9.8304      28.990      50.095      69.289      83.562      91.265      92.189      87.307    
  78.354      67.406      56.496      46.814      38.455      31.385      25.529      20.768      16.950      13.910    
  11.496      9.5859      8.0827      6.9111      6.0094      5.3254      4.8163      4.4494      4.2020      4.0593    
  3.7642      3.8109      3.9539      4.2020      4.5704      5.0826      5.7725      6.6845      7.8725      9.4006    
  11.348      13.816      16.935      20.865      25.779      31.837      39.163      47.838      57.907      69.159    
  80.047      88.344      91.801      88.550      77.584      59.233      35.472      9.8304     -13.205     -29.209    
 -34.940     -29.209     -13.205      9.8304      35.472      59.233      77.584      88.550      91.801      88.344    
  80.047      69.159      57.907      47.838      39.163      31.837      25.779      20.865      16.935      13.816    
  11.348      9.4006      7.8725      6.6845      5.7725      5.0826      4.5704      4.2020      3.9539      3.8109    
  3.6210      3.6677      3.8109      4.0593      4.4283      4.9421      5.6353      6.5530      7.7503      9.2925    
  11.261      13.761      16.927      20.924      25.931      32.111      39.592      48.459      58.765      70.187    
  80.970      88.765      91.208      86.344      73.141      52.011      25.151     -3.5587     -29.209     -46.974    
 -53.326     -46.974     -29.209     -3.5587      25.151      52.011      73.141      86.344      91.208      88.765    
  80.970      70.187      58.765      48.459      39.592      32.111      25.931      20.924      16.927      13.761    
  11.261      9.2925      7.7503      6.5530      5.6353      4.9421      4.4283      4.0593      3.8109      3.6677    
  3.5742      3.6210      3.7642      4.0127      4.3820      4.8962      5.5904      6.5100      7.7102      9.2571    
  11.233      13.743      16.924      20.944      25.982      32.203      39.735      48.667      59.053      70.524    
  81.259      88.867      90.944      85.503      71.503      49.386      21.428     -8.3659     -34.940     -53.326    
 -59.897     -53.326     -34.940     -8.3659      21.428      49.386      71.503      85.503      90.944      88.867    
  81.259      70.524      59.053      48.667      39.735      32.203      25.982      20.944      16.924      13.743    
  11.233      9.2571      7.7102      6.5100      5.5904      4.8962      4.3820      4.0127      3.7642      3.6210    
  3.6210      3.6677      3.8109      4.0593      4.4283      4.9421      5.6353      6.5530      7.7503      9.2925    
  11.261      13.761      16.927      20.924      25.931      32.111      39.592      48.459      58.765      70.187    
  80.970      88.765      91.208      86.344      73.141      52.011      25.151     -3.5587     -29.209     -46.974    
 -53.326     -46.974     -29.209     -3.5587      25.151      52.011      73.141      86.344      91.208      88.765    
  80.970      70.187      58.765      48.459      39.592      32.111      25.931      20.924      16.927      13.761    
  11.261      9.2925      7.7503      6.5530      5.6353      4.9421      4.4283      4.0593      3.8109      3.6677    
  3.7642      3.8109      3.9539      4.2020      4.5704      5.0826      5.7725      6.6845      7.8725      9.4006    
  11.348      13.816      16.935      20.865      25.779      31.837      39.163      47.838      57.907      69.159    
  80.047      88.344      91.801      88.550      77.584      59.233      35.472      9.8304     -13.205     -29.209    
 -34.940     -29.209     -13.205      9.8304      35.472      59.233      77.584      88.550      91.801      88.344    
  80.047      69.159      57.907      47.838      39.163      31.837      25.779      20.865      16.935      13.816    
  11.348      9.4006      7.8725      6.6845      5.7725      5.0826      4.5704      4.2020      3.9539      3.8109    
  4.0127      4.0593      4.2020      4.4494      4.8163      5.3254      6.0094      6.9111      8.0827      9.5859    
  11.496      13.910      16.950      20.768      25.529      31.385      38.455      46.814      56.496      67.406    
  78.354      87.307      92.189      91.265      83.562      69.289      50.095      28.990      9.8304     -3.5587    
 -8.3659     -3.5587      9.8304      28.990      50.095      69.289      83.562      91.265      92.189      87.307    
  78.354      67.406      56.496      46.814      38.455      31.385      25.529      20.768      16.950      13.910    
  11.496      9.5859      8.0827      6.9111      6.0094      5.3254      4.8163      4.4494      4.2020      4.0593    
  4.3820      4.4283      4.5704      4.8163      5.1803      5.6840      6.3583      7.2439      8.3903      9.8564    
  11.713      14.049      16.978      20.639      25.186      30.764      37.483      45.409      54.566      64.920    
  75.743      85.285      91.683      93.355      89.374      79.805      65.911      50.095      35.472      25.151    
  21.428      25.151      35.472      50.095      65.911      79.805      89.374      93.355      91.683      85.285    
  75.743      64.920      54.566      45.409      37.483      30.764      25.186      20.639      16.978      14.049    
  11.713      9.8564      8.3903      7.2439      6.3583      5.6840      5.1803      4.8163      4.5704      4.4283    
  4.8962      4.9421      5.0826      5.3254      5.6840      6.1785      6.8376      7.6991      8.8095      10.224    
  12.007      14.240      17.025      20.486      24.764      29.992      36.273      43.663      52.172      61.768    
  72.149      81.988      89.657      93.744      93.360      88.422      79.805      69.289      59.233      52.011    
  49.386      52.011      59.233      69.289      79.805      88.422      93.360      93.744      89.657      81.988    
  72.149      61.768      52.172      43.663      36.273      29.992      24.764      20.486      17.025      14.240    
  12.007      10.224      8.8095      7.6991      6.8376      6.1785      5.6840      5.3254      5.0826      4.9421    
  5.5904      5.6353      5.7725      6.0094      6.3583      6.8376      7.4732      8.2998      9.3603      10.705    
  12.394      14.497      17.105      20.326      24.284      29.099      34.864      41.629      49.391      58.105    
  67.658      77.326      85.755      91.697      94.307      93.360      89.374      83.562      77.584      73.141    
  71.503      73.141      77.584      83.562      89.374      93.360      94.307      91.697      85.755      77.326    
  67.658      58.105      49.391      41.629      34.864      29.099      24.284      20.326      17.105      14.497    
  12.394      10.705      9.3603      8.2998      7.4732      6.8376      6.3583      6.0094      5.7725      5.6353    
  6.5100      6.5530      6.6845      6.9111      7.2439      7.6991      8.2998      9.0771      10.070      11.324    
  12.892      14.837      17.235      20.178      23.772      28.121      33.309      39.378      46.319      54.075    
  62.546      71.487      79.999      87.002      91.697      93.744      93.355      91.265      88.550      86.344    
  85.503      86.344      88.550      91.265      93.355      93.744      91.697      87.002      79.999      71.487    
  62.546      54.075      46.319      39.378      33.309      28.121      23.772      20.178      17.235      14.837    
  12.892      11.324      10.070      9.0771      8.2998      7.6991      7.2439      6.9111      6.6845      6.5530    
  7.7102      7.7503      7.8725      8.0827      8.3903      8.8095      9.3603      10.070      10.973      12.110    
  13.530      15.285      17.439      20.069      23.262      27.105      31.671      36.994      43.064      49.820    
  57.158      64.930      72.810      79.999      85.755      89.657      91.683      92.189      91.801      91.208    
  90.944      91.208      91.801      92.189      91.683      89.657      85.755      79.999      72.810      64.930    
  57.158      49.820      43.064      36.994      31.671      27.105      23.262      20.069      17.439      15.285    
  13.530      12.110      10.973      10.070      9.3603      8.8095      8.3903      8.0827      7.8725      7.7503    
  9.2571      9.2925      9.4006      9.5859      9.8564      10.224      10.705      11.324      12.110      13.102    
  14.339      15.870      17.746      20.030      22.791      26.099      30.014      34.565      39.742      45.486    
  51.696      58.234      64.930      71.487      77.326      81.988      85.285      87.307      88.344      88.765    
  88.867      88.765      88.344      87.307      85.285      81.988      77.326      71.487      64.930      58.234    
  51.696      45.486      39.742      34.565      30.014      26.099      22.791      20.030      17.746      15.870    
  14.339      13.102      12.110      11.324      10.705      10.224      9.8564      9.5859      9.4006      9.2925    
  11.233      11.261      11.348      11.496      11.713      12.007      12.394      12.892      13.530      14.339    
  15.358      16.626      18.188      20.094      22.398      25.152      28.405      32.179      36.465      41.213    
  46.331      51.696      57.158      62.546      67.658      72.149      75.743      78.354      80.047      80.970    