GaAs                                    
   4.50000000000000     
     1.173134    0.000000    0.000000
     0.000000    1.173134    0.000000
     0.000000    0.000000    1.173134
   As   Ga
     4     4
Direct
  0.000000  0.000000  0.000000
  0.500000  0.500000  0.000000
  0.500000  0.000000  0.500000
  0.000000  0.500000  0.500000
  0.250000  0.250000  0.250000
  0.750000  0.250000  0.750000
  0.750000  0.750000  0.250000
  0.250000  0.750000  0.750000
 
   60   60   60
 -.59897024857E+02 -.53325984559E+02 -.34940157364E+02 -.83659298486E+01 0.21428459861E+02
 0.49386474672E+02 0.71502773994E+02 0.85502993058E+02 0.90944005211E+02 0.88867191176E+02
 0.81258926585E+02 0.70524029377E+02 0.59052879818E+02 0.48667148868E+02 0.39735207276E+02
 0.32202701248E+02 0.25981873583E+02 0.20944147644E+02 0.16924226368E+02 0.13742551556E+02
 0.11232534393E+02 0.92570540377E+01 0.77101560400E+01 0.65099569238E+01 0.55904011379E+01
 0.48962355750E+01 0.43819513670E+01 0.40126863725E+01 0.37641972737E+01 0.36209848624E+01
 0.35742255986E+01 0.36209848624E+01 0.37641972737E+01 0.40126863725E+01 0.43819513670E+01
 0.48962355750E+01 0.55904011379E+01 0.65099569238E+01 0.77101560400E+01 0.92570540377E+01
 0.11232534393E+02 0.13742551556E+02 0.16924226368E+02 0.20944147644E+02 0.25981873583E+02
 0.32202701248E+02 0.39735207276E+02 0.48667148868E+02 0.59052879818E+02 0.70524029377E+02
 0.81258926585E+02 0.88867191176E+02 0.90944005211E+02 0.85502993058E+02 0.71502773994E+02
 0.49386474672E+02 0.21428459861E+02 -.83659298486E+01 -.34940157364E+02 -.53325984559E+02
 -.53325984559E+02 -.46974006232E+02 -.29209401587E+02 -.35587213921E+01 0.25150543114E+02
 0.52010682827E+02 0.73140577146E+02 0.86344383357E+02 0.91208331989E+02 0.88764925921E+02
 0.80969524818E+02 0.70186827486E+02 0.58765139857E+02 0.48459011644E+02 0.39591766566E+02
 0.32111168318E+02 0.25931129797E+02 0.20924310854E+02 0.16926761895E+02 0.13760607217E+02
 0.11261056027E+02 0.92925471009E+01 0.77502576016E+01 0.65530367510E+01 0.56353014199E+01
 0.49421447423E+01 0.44283493911E+01 0.40592934644E+01 0.38108949656E+01 0.36677283410E+01
 0.36209848624E+01 0.36677283410E+01 0.38108949656E+01 0.40592934644E+01 0.44283493911E+01
 0.49421447423E+01 0.56353014199E+01 0.65530367510E+01 0.77502576016E+01 0.92925471009E+01
 0.11261056027E+02 0.13760607217E+02 0.16926761895E+02 0.20924310854E+02 0.25931129797E+02
 0.32111168318E+02 0.39591766566E+02 0.48459011644E+02 0.58765139857E+02 0.70186827486E+02
 0.80969524818E+02 0.88764925921E+02 0.91208331989E+02 0.86344383357E+02 0.73140577146E+02
 0.52010682827E+02 0.25150543114E+02 -.35587213921E+01 -.29209401587E+02 -.46974006232E+02
 -.34940157364E+02 -.29209401587E+02 -.13205485426E+02 0.98303534395E+01 0.35471526867E+02
 0.59232605821E+02 0.77583641258E+02 0.88550193557E+02 0.91801217081E+02 0.88344207423E+02
 0.80046634953E+02 0.69158589615E+02 0.57906840035E+02 0.47837617012E+02 0.39163060596E+02
 0.31837411019E+02 0.25779363849E+02 0.20865164001E+02 0.16934855461E+02 0.13815557779E+02
 0.11347794355E+02 0.94006051242E+01 0.78725123856E+01 0.66845391206E+01 0.57725103985E+01
 0.50825612066E+01 0.45703586934E+01 0.42020086437E+01 0.39539178013E+01 0.38108949656E+01
 0.37641972737E+01 0.38108949656E+01 0.39539178013E+01 0.42020086437E+01 0.45703586934E+01
 0.50825612066E+01 0.57725103985E+01 0.66845391206E+01 0.78725123856E+01 0.94006051242E+01
 0.11347794355E+02 0.13815557779E+02 0.16934855461E+02 0.20865164001E+02 0.25779363849E+02
 0.31837411019E+02 0.39163060596E+02 0.47837617012E+02 0.57906840035E+02 0.69158589615E+02
 0.80046634953E+02 0.88344207423E+02 0.91801217081E+02 0.88550193557E+02 0.77583641258E+02
 0.59232605821E+02 0.35471526867E+02 0.98303534395E+01 -.13205485426E+02 -.29209401587E+02
 -.83659298486E+01 -.35587213921E+01 0.98303534395E+01 0.28990264916E+02 0.50095437990E+02
 0.69289271447E+02 0.83561626203E+02 0.91264601171E+02 0.92189365444E+02 0.87306865478E+02
 0.78353570252E+02 0.67405716301E+02 0.56495567181E+02 0.46813649357E+02 0.38455387715E+02
 0.31385172601E+02 0.25528920023E+02 0.20768472276E+02 0.16950391789E+02 0.13909967615E+02
 0.11496328606E+02 0.95859249585E+01 0.80826731012E+01 0.69111208419E+01 0.60094032039E+01
 0.53254022789E+01 0.48162930844E+01 0.44494176436E+01 0.42020086437E+01 0.40592934644E+01
 0.40126863725E+01 0.40592934644E+01 0.42020086437E+01 0.44494176436E+01 0.48162930844E+01
 0.53254022789E+01 0.60094032039E+01 0.69111208419E+01 0.80826731012E+01 0.95859249585E+01
 0.11496328606E+02 0.13909967615E+02 0.16950391789E+02 0.20768472276E+02 0.25528920023E+02
 0.31385172601E+02 0.38455387715E+02 0.46813649357E+02 0.56495567181E+02 0.67405716301E+02
 0.78353570252E+02 0.87306865478E+02 0.92189365444E+02 0.91264601171E+02 0.83561626203E+02
 0.69289271447E+02 0.50095437990E+02 0.28990264916E+02 0.98303534395E+01 -.35587213921E+01
 0.21428459861E+02 0.25150543114E+02 0.35471526867E+02 0.50095437990E+02 0.65911315972E+02
 0.79804522604E+02 0.89374458884E+02 0.93355377432E+02 0.91682632410E+02 0.85285312635E+02
 0.75743450512E+02 0.64919807259E+02 0.54565562364E+02 0.45409386378E+02 0.37483238168E+02
 0.30764029782E+02 0.25186287529E+02 0.20639025347E+02 0.16977712714E+02 0.14048787542E+02
 0.11712928793E+02 0.98564201517E+01 0.83903161907E+01 0.72438566302E+01 0.63583130283E+01
 0.56840202243E+01 0.51803126421E+01 0.48162930844E+01 0.45703586934E+01 0.44283493911E+01
 0.43819513670E+01 0.44283493911E+01 0.45703586934E+01 0.48162930844E+01 0.51803126421E+01
 0.56840202243E+01 0.63583130283E+01 0.72438566302E+01 0.83903161907E+01 0.98564201517E+01
 0.11712928793E+02 0.14048787542E+02 0.16977712714E+02 0.20639025347E+02 0.25186287529E+02
 0.30764029782E+02 0.37483238168E+02 0.45409386378E+02 0.54565562364E+02 0.64919807259E+02
 0.75743450512E+02 0.85285312635E+02 0.91682632410E+02 0.93355377432E+02 0.89374458884E+02
 0.79804522604E+02 0.65911315972E+02 0.50095437990E+02 0.35471526867E+02 0.25150543114E+02
 0.49386474672E+02 0.52010682827E+02 0.59232605821E+02 0.69289271447E+02 0.79804522604E+02
 0.88421621745E+02 0.93360122058E+02 0.93743879380E+02 0.89657459314E+02 0.81987870789E+02
 0.72148907180E+02 0.61768273879E+02 0.52171800652E+02 0.43662637390E+02 0.36272885871E+02
 0.29992353027E+02 0.24764369638E+02 0.20486315880E+02 0.17024847393E+02 0.14240269517E+02
 0.12007278909E+02 0.10223871276E+02 0.88095300254E+01 0.76990680852E+01 0.68375879236E+01
 0.61785339764E+01 0.56840202243E+01 0.53254022789E+01 0.50825612066E+01 0.49421447423E+01
 0.48962355750E+01 0.49421447423E+01 0.50825612066E+01 0.53254022789E+01 0.56840202243E+01
 0.61785339764E+01 0.68375879236E+01 0.76990680852E+01 0.88095300254E+01 0.10223871276E+02
 0.12007278909E+02 0.14240269517E+02 0.17024847393E+02 0.20486315880E+02 0.24764369638E+02
 0.29992353027E+02 0.36272885871E+02 0.43662637390E+02 0.52171800652E+02 0.61768273879E+02
 0.72148907180E+02 0.81987870789E+02 0.89657459314E+02 0.93743879380E+02 0.93360122058E+02
 0.88421621745E+02 0.79804522604E+02 0.69289271447E+02 0.59232605821E+02 0.52010682827E+02
 0.71502773994E+02 0.73140577146E+02 0.77583641258E+02 0.83561626203E+02 0.89374458884E+02
 0.93360122058E+02 0.94306534726E+02 0.91696821951E+02 0.85754912517E+02 0.77326285534E+02
 0.67657544203E+02 0.58105373559E+02 0.49391002741E+02 0.41628516566E+02 0.34864152176E+02
 0.29098730322E+02 0.24283604835E+02 0.20325532905E+02 0.17104524236E+02 0.14497065398E+02
 0.12393673720E+02 0.10705214217E+02 0.93602990138E+01 0.82998231873E+01 0.74732228926E+01
 0.68375879236E+01 0.63583130283E+01 0.60094032039E+01 0.57725103985E+01 0.56353014199E+01
 0.55904011379E+01 0.56353014199E+01 0.57725103985E+01 0.60094032039E+01 0.63583130283E+01
 0.68375879236E+01 0.74732228926E+01 0.82998231873E+01 0.93602990138E+01 0.10705214217E+02
 0.12393673720E+02 0.14497065398E+02 0.17104524236E+02 0.20325532905E+02 0.24283604835E+02
 0.29098730322E+02 0.34864152176E+02 0.41628516566E+02 0.49391002741E+02 0.58105373559E+02
 0.67657544203E+02 0.77326285534E+02 0.85754912517E+02 0.91696821951E+02 0.94306534726E+02
 0.93360122058E+02 0.89374458884E+02 0.83561626203E+02 0.77583641258E+02 0.73140577146E+02
 0.85502993058E+02 0.86344383357E+02 0.88550193557E+02 0.91264601171E+02 0.93355377432E+02
 0.93743879380E+02 0.91696821951E+02 0.87001671576E+02 0.79998664773E+02 0.71487259267E+02
 0.62546081965E+02 0.54075262377E+02 0.46318837125E+02 0.39378078629E+02 0.33309475103E+02
 0.28121251246E+02 0.23771595315E+02 0.20177678488E+02 0.17234797350E+02 0.14837263753E+02
 0.12892301317E+02 0.11323902136E+02 0.10069815977E+02 0.90771078165E+01 0.82998231873E+01
 0.76990680852E+01 0.72438566302E+01 0.69111208419E+01 0.66845391206E+01 0.65530367510E+01
 0.65099569238E+01 0.65530367510E+01 0.66845391206E+01 0.69111208419E+01 0.72438566302E+01
 0.76990680852E+01 0.82998231873E+01 0.90771078165E+01 0.10069815977E+02 0.11323902136E+02
 0.12892301317E+02 0.14837263753E+02 0.17234797350E+02 0.20177678488E+02 0.23771595315E+02
 0.28121251246E+02 0.33309475103E+02 0.39378078629E+02 0.46318837125E+02 0.54075262377E+02
 0.62546081965E+02 0.71487259267E+02 0.79998664773E+02 0.87001671576E+02 0.91696821951E+02
 0.93743879380E+02 0.93355377432E+02 0.91264601171E+02 0.88550193557E+02 0.86344383357E+02
 0.90944005211E+02 0.91208331989E+02 0.91801217081E+02 0.92189365444E+02 0.91682632410E+02
 0.89657459314E+02 0.85754912517E+02 0.79998664773E+02 0.72810409808E+02 0.64929923110E+02
 0.57157675141E+02 0.49820287814E+02 0.43064218553E+02 0.36994152871E+02 0.31670602034E+02
 0.27105065645E+02 0.23261641479E+02 0.20069026756E+02 0.17439205795E+02 0.15284941002E+02
 0.13529888829E+02 0.12110427442E+02 0.10972761378E+02 0.10069815977E+02 0.93602990138E+01
 0.88095300254E+01 0.83903161907E+01 0.80826731012E+01 0.78725123856E+01 0.77502576016E+01
 0.77101560400E+01 0.77502576016E+01 0.78725123856E+01 0.80826731012E+01 0.83903161907E+01
 0.88095300254E+01 0.93602990138E+01 0.10069815977E+02 0.10972761378E+02 0.12110427442E+02
 0.13529888829E+02 0.15284941002E+02 0.17439205795E+02 0.20069026756E+02 0.23261641479E+02
 0.27105065645E+02 0.31670602034E+02 0.36994152871E+02 0.43064218553E+02 0.49820287814E+02
 0.57157675141E+02 0.64929923110E+02 0.72810409808E+02 0.79998664773E+02 0.85754912517E+02
 0.89657459314E+02 0.91682632410E+02 0.92189365444E+02 0.91801217081E+02 0.91208331989E+02
 0.88867191176E+02 0.88764925921E+02 0.88344207423E+02 0.87306865478E+02 0.85285312635E+02
 0.81987870789E+02 0.77326285534E+02 0.71487259267E+02 0.64929923110E+02 0.58234489553E+02
 0.51696147713E+02 0.45486045175E+02 0.39742074388E+02 0.34565343631E+02 0.30013845292E+02
 0.26099064773E+02 0.22790766052E+02 0.20030136598E+02 0.17746306776E+02 0.15869799036E+02
 0.14339185766E+02 0.13101582289E+02 0.12110427442E+02 0.11323902136E+02 0.10705214217E+02
 0.10223871276E+02 0.98564201517E+01 0.95859249585E+01 0.94006051242E+01 0.92925471009E+01
 0.92570540377E+01 0.92925471009E+01 0.94006051242E+01 0.95859249585E+01 0.98564201517E+01
 0.10223871276E+02 0.10705214217E+02 0.11323902136E+02 0.12110427442E+02 0.13101582289E+02
 0.14339185766E+02 0.15869799036E+02 0.17746306776E+02 0.20030136598E+02 0.22790766052E+02
 0.26099064773E+02 0.30013845292E+02 0.34565343631E+02 0.39742074388E+02 0.45486045175E+02
 0.51696147713E+02 0.58234489553E+02 0.64929923110E+02 0.71487259267E+02 0.77326285534E+02
 0.81987870789E+02 0.85285312635E+02 0.87306865478E+02 0.88344207423E+02 0.88764925921E+02
 0.81258926585E+02 0.80969524818E+02 0.80046634953E+02 0.78353570252E+02 0.75743450512E+02
 0.72148907180E+02 0.67657544203E+02 0.62546081965E+02 0.57157675141E+02 0.51696147713E+02
 0.46331235456E+02 0.41212952644E+02 0.36465394965E+02 0.32179129837E+02 0.28404825355E+02
 0.25152361440E+02 0.22397539059E+02 0.20094418515E+02 0.18188451123E+02 0.16625857373E+02
 0.15357565945E+02 0.14339185766E+02 0.13529888829E+02 0.12892301317E+02 0.12393673720E+02
 0.12007278909E+02 0.11712928793E+02 0.11496328606E+02 0.11347794355E+02 0.11261056027E+02
 0.11232534393E+02 0.11261056027E+02 0.11347794355E+02 0.11496328606E+02 0.11712928793E+02
 0.12007278909E+02 0.12393673720E+02 0.12892301317E+02 0.13529888829E+02 0.14339185766E+02
 0.15357565945E+02 0.16625857373E+02 0.18188451123E+02 0.20094418515E+02 0.22397539059E+02
 0.25152361440E+02 0.28404825355E+02 0.32179129837E+02 0.36465394965E+02 0.41212952644E+02
 0.46331235456E+02 0.51696147713E+02 0.57157675141E+02 0.62546081965E+02 0.67657544203E+02
 0.72148907180E+02 0.75743450512E+02 0.78353570252E+02 0.80046634953E+02 0.80969524818E+02
 0.70524029377E+02 0.70186827486E+02 0.69158589615E+02 0.67405716301E+02 0.64919807259E+02
 0.61768273879E+02 0.58105373559E+02 0.54075262377E+02 0.49820287814E+02 0.45486045175E+02
 0.41212952644E+02 0.37128134319E+02 0.33336895637E+02 0.29914850854E+02 0.26903398224E+02
 0.24310923309E+02 0.22119763044E+02 0.20296246649E+02 0.18799997445E+02 0.17589814239E+02
 0.16625857373E+02 0.15869799036E+02 0.15284941002E+02 0.14837263753E+02 0.14497065398E+02
 0.14240269517E+02 0.14048787542E+02 0.13909967615E+02 0.13815557779E+02 0.13760607217E+02
 0.13742551556E+02 0.13760607217E+02 0.13815557779E+02 0.13909967615E+02 0.14048787542E+02
 0.14240269517E+02 0.14497065398E+02 0.14837263753E+02 0.15284941002E+02 0.15869799036E+02
 0.16625857373E+02 0.17589814239E+02 0.18799997445E+02 0.20296246649E+02 0.22119763044E+02
 0.24310923309E+02 0.26903398224E+02 0.29914850854E+02 0.33336895637E+02 0.37128134319E+02
 0.41212952644E+02 0.45486045175E+02 0.49820287814E+02 0.54075262377E+02 0.58105373559E+02
 0.61768273879E+02 0.64919807259E+02 0.67405716301E+02 0.69158589615E+02 0.70186827486E+02
 0.59052879818E+02 0.58765139857E+02 0.57906840035E+02 0.56495567181E+02 0.54565562364E+02
 0.52171800652E+02 0.49391002741E+02 0.46318837125E+02 0.43064218553E+02 0.39742074388E+02
 0.36465394965E+02 0.33336895637E+02 0.30440973652E+02 0.27837512009E+02 0.25559393562E+02
 0.23614627412E+02 0.21992151849E+02 0.20668893015E+02 0.19615565317E+02 0.18799997445E+02
 0.18188451123E+02 0.17746306776E+02 0.17439205795E+02 0.17234797350E+02 0.17104524236E+02
 0.17024847393E+02 0.16977712714E+02 0.16950391789E+02 0.16934855461E+02 0.16926761895E+02
 0.16924226368E+02 0.16926761895E+02 0.16934855461E+02 0.16950391789E+02 0.16977712714E+02
 0.17024847393E+02 0.17104524236E+02 0.17234797350E+02 0.17439205795E+02 0.17746306776E+02
 0.18188451123E+02 0.18799997445E+02 0.19615565317E+02 0.20668893015E+02 0.21992151849E+02
 0.23614627412E+02 0.25559393562E+02 0.27837512009E+02 0.30440973652E+02 0.33336895637E+02
 0.36465394965E+02 0.39742074388E+02 0.43064218553E+02 0.46318837125E+02 0.49391002741E+02
 0.52171800652E+02 0.54565562364E+02 0.56495567181E+02 0.57906840035E+02 0.58765139857E+02
 0.48667148868E+02 0.48459011644E+02 0.47837617012E+02 0.46813649357E+02 0.45409386378E+02
 0.43662637390E+02 0.41628516566E+02 0.39378078629E+02 0.36994152871E+02 0.34565343631E+02
 0.32179129837E+02 0.29914850854E+02 0.27837512009E+02 0.25993590020E+02 0.24409825785E+02
 0.23095106239E+02 0.22044367026E+02 0.21242787769E+02 0.20668893015E+02 0.20296246649E+02
 0.20094418515E+02 0.20030136598E+02 0.20069026756E+02 0.20177678488E+02 0.20325532905E+02
 0.20486315880E+02 0.20639025347E+02 0.20768472276E+02 0.20865164001E+02 0.20924310854E+02
 0.20944147644E+02 0.20924310854E+02 0.20865164001E+02 0.20768472276E+02 0.20639025347E+02
 0.20486315880E+02 0.20325532905E+02 0.20177678488E+02 0.20069026756E+02 0.20030136598E+02
 0.20094418515E+02 0.20296246649E+02 0.20668893015E+02 0.21242787769E+02 0.22044367026E+02
 0.23095106239E+02 0.24409825785E+02 0.25993590020E+02 0.27837512009E+02 0.29914850854E+02
 0.32179129837E+02 0.34565343631E+02 0.36994152871E+02 0.39378078629E+02 0.41628516566E+02
 0.43662637390E+02 0.45409386378E+02 0.46813649357E+02 0.47837617012E+02 0.48459011644E+02
 0.39735207276E+02 0.39591766566E+02 0.39163060596E+02 0.38455387715E+02 0.37483238168E+02
 0.36272885871E+02 0.34864152176E+02 0.33309475103E+02 0.31670602034E+02 0.30013845292E+02
 0.28404825355E+02 0.26903398224E+02 0.25559393562E+02 0.24409825785E+02 0.23478044499E+02
 0.22774705099E+02 0.22299755130E+02 0.22044367026E+02 0.21992151849E+02 0.22119763044E+02
 0.22397539059E+02 0.22790766052E+02 0.23261641479E+02 0.23771595315E+02 0.24283604835E+02
 0.24764369638E+02 0.25186287529E+02 0.25528920023E+02 0.25779363849E+02 0.25931129797E+02
 0.25981873583E+02 0.25931129797E+02 0.25779363849E+02 0.25528920023E+02 0.25186287529E+02
 0.24764369638E+02 0.24283604835E+02 0.23771595315E+02 0.23261641479E+02 0.22790766052E+02
 0.22397539059E+02 0.22119763044E+02 0.21992151849E+02 0.22044367026E+02 0.22299755130E+02
 0.22774705099E+02 0.23478044499E+02 0.24409825785E+02 0.25559393562E+02 0.26903398224E+02
 0.28404825355E+02 0.30013845292E+02 0.31670602034E+02 0.33309475103E+02 0.34864152176E+02
 0.36272885871E+02 0.37483238168E+02 0.38455387715E+02 0.39163060596E+02 0.39591766566E+02
 0.32202701248E+02 0.32111168318E+02 0.31837411019E+02 0.31385172601E+02 0.30764029782E+02
 0.29992353027E+02 0.29098730322E+02 0.28121251246E+02 0.27105065645E+02 0.26099064773E+02
 0.25152361440E+02 0.24310923309E+02 0.23614627412E+02 0.23095106239E+02 0.22774705099E+02
 0.22666483661E+02 0.22774705099E+02 0.23095106239E+02 0.23614627412E+02 0.24310923309E+02
 0.25152361440E+02 0.26099064773E+02 0.27105065645E+02 0.28121251246E+02 0.29098730322E+02
 0.29992353027E+02 0.30764029782E+02 0.31385172601E+02 0.31837411019E+02 0.32111168318E+02
 0.32202701248E+02 0.32111168318E+02 0.31837411019E+02 0.31385172601E+02 0.30764029782E+02
 0.29992353027E+02 0.29098730322E+02 0.28121251246E+02 0.27105065645E+02 0.26099064773E+02
 0.25152361440E+02 0.24310923309E+02 0.23614627412E+02 0.23095106239E+02 0.22774705099E+02
 0.22666483661E+02 0.22774705099E+02 0.23095106239E+02 0.23614627412E+02 0.24310923309E+02
 0.25152361440E+02 0.26099064773E+02 0.27105065645E+02 0.28121251246E+02 0.29098730322E+02
 0.29992353027E+02 0.30764029782E+02 0.31385172601E+02 0.31837411019E+02 0.32111168318E+02
 0.25981873583E+02 0.25931129797E+02 0.25779363849E+02 0.25528920023E+02 0.25186287529E+02
 0.24764369638E+02 0.24283604835E+02 0.23771595315E+02 0.23261641479E+02 0.22790766052E+02
 0.22397539059E+02 0.22119763044E+02 0.21992151849E+02 0.22044367026E+02 0.22299755130E+02
 0.22774705099E+02 0.23478044499E+02 0.24409825785E+02 0.25559393562E+02 0.26903398224E+02
 0.28404825355E+02 0.30013845292E+02 0.31670602034E+02 0.33309475103E+02 0.34864152176E+02
 0.36272885871E+02 0.37483238168E+02 0.38455387715E+02 0.39163060596E+02 0.39591766566E+02
 0.39735207276E+02 0.39591766566E+02 0.39163060596E+02 0.38455387715E+02 0.37483238168E+02
 0.36272885871E+02 0.34864152176E+02 0.33309475103E+02 0.31670602034E+02 0.30013845292E+02
 0.28404825355E+02 0.26903398224E+02 0.25559393562E+02 0.24409825785E+02 0.23478044499E+02
 0.22774705099E+02 0.22299755130E+02 0.22044367026E+02 0.21992151849E+02 0.22119763044E+02
 0.22397539059E+02 0.22790766052E+02 0.23261641479E+02 0.23771595315E+02 0.24283604835E+02
 0.24764369638E+02 0.25186287529E+02 0.25528920023E+02 0.25779363849E+02 0.25931129797E+02
 0.20944147644E+02 0.20924310854E+02 0.20865164001E+02 0.20768472276E+02 0.20639025347E+02
 0.20486315880E+02 0.20325532905E+02 0.20177678488E+02 0.20069026756E+02 0.20030136598E+02
 0.20094418515E+02 0.20296246649E+02 0.20668893015E+02 0.21242787769E+02 0.22044367026E+02
 0.23095106239E+02 0.24409825785E+02 0.25993590020E+02 0.27837512009E+02 0.29914850854E+02
 0.32179129837E+02 0.34565343631E+02 0.36994152871E+02 0.39378078629E+02 0.41628516566E+02
 0.43662637390E+02 0.45409386378E+02 0.46813649357E+02 0.47837617012E+02 0.48459011644E+02
 0.48667148868E+02 0.48459011644E+02 0.47837617012E+02 0.46813649357E+02 0.45409386378E+02
 0.43662637390E+02 0.41628516566E+02 0.39378078629E+02 0.36994152871E+02 0.34565343631E+02
 0.32179129837E+02 0.29914850854E+02 0.27837512009E+02 0.25993590020E+02 0.24409825785E+02
 0.23095106239E+02 0.22044367026E+02 0.21242787769E+02 0.20668893015E+02 0.20296246649E+02
 0.20094418515E+02 0.20030136598E+02 0.20069026756E+02 0.20177678488E+02 0.20325532905E+02
 0.20486315880E+02 0.20639025347E+02 0.20768472276E+02 0.20865164001E+02 0.20924310854E+02
 0.16924226368E+02 0.16926761895E+02 0.16934855461E+02 0.16950391789E+02 0.16977712714E+02
 0.17024847393E+02 0.17104524236E+02 0.17234797350E+02 0.17439205795E+02 0.17746306776E+02
 0.18188451123E+02 0.18799997445E+02 0.19615565317E+02 0.20668893015E+02 0.21992151849E+02
 0.23614627412E+02 0.25559393562E+02 0.27837512009E+02 0.30440973652E+02 0.33336895637E+02
 0.36465394965E+02 0.39742074388E+02 0.43064218553E+02 0.46318837125E+02 0.49391002741E+02
 0.52171800652E+02 0.54565562364E+02 0.56495567181E+02 0.57906840035E+02 0.58765139857E+02
 0.59052879818E+02 0.58765139857E+02 0.57906840035E+02 0.56495567181E+02 0.54565562364E+02
 0.52171800652E+02 0.49391002741E+02 0.46318837125E+02 0.43064218553E+02 0.39742074388E+02
 0.36465394965E+02 0.33336895637E+02 0.30440973652E+02 0.27837512009E+02 0.25559393562E+02
 0.23614627412E+02 0.21992151849E+02 0.20668893015E+02 0.19615565317E+02 0.18799997445E+02
 0.18188451123E+02 0.17746306776E+02 0.17439205795E+02 0.17234797350E+02 0.17104524236E+02
 0.17024847393E+02 0.16977712714E+02 0.16950391789E+02 0.16934855461E+02 0.16926761895E+02
 0.13742551556E+02 0.13760607217E+02 0.13815557779E+02 0.13909967615E+02 0.14048787542E+02
 0.14240269517E+02 0.14497065398E+02 0.14837263753E+02 0.15284941002E+02 0.15869799036E+02
 0.16625857373E+02 0.17589814239E+02 0.18799997445E+02 0.20296246649E+02 0.22119763044E+02
 0.24310923309E+02 0.26903398224E+02 0.29914850854E+02 0.33336895637E+02 0.37128134319E+02
 0.41212952644E+02 0.45486045175E+02 0.49820287814E+02 0.54075262377E+02 0.58105373559E+02
 0.61768273879E+02 0.64919807259E+02 0.67405716301E+02 0.69158589615E+02 0.70186827486E+02
 0.70524029377E+02 0.70186827486E+02 0.69158589615E+02 0.67405716301E+02 0.64919807259E+02
 0.61768273879E+02 0.58105373559E+02 0.54075262377E+02 0.49820287814E+02 0.45486045175E+02
 0.41212952644E+02 0.37128134319E+02 0.33336895637E+02 0.29914850854E+02 0.26903398224E+02
 0.24310923309E+02 0.22119763044E+02 0.20296246649E+02 0.18799997445E+02 0.17589814239E+02
 0.16625857373E+02 0.15869799036E+02 0.15284941002E+02 0.14837263753E+02 0.14497065398E+02
 0.14240269517E+02 0.14048787542E+02 0.13909967615E+02 0.13815557779E+02 0.13760607217E+02
 0.11232534393E+02 0.11261056027E+02 0.11347794355E+02 0.11496328606E+02 0.11712928793E+02
 0.12007278909E+02 0.12393673720E+02 0.12892301317E+02 0.13529888829E+02 0.14339185766E+02
 0.15357565945E+02 0.16625857373E+02 0.18188451123E+02 0.20094418515E+02 0.22397539059E+02
 0.25152361440E+02 0.28404825355E+02 0.32179129837E+02 0.36465394965E+02 0.41212952644E+02
 0.46331235456E+02 0.51696147713E+02 0.57157675141E+02 0.62546081965E+02 0.67657544203E+02
 0.72148907180E+02 0.75743450512E+02 0.78353570252E+02 0.80046634953E+02 0.80969524818E+02
 0.81258926585E+02 0.80969524818E+02 0.80046634953E+02 0.78353570252E+02 0.75743450512E+02
 0.72148907180E+02 0.67657544203E+02 0.62546081965E+02 0.57157675141E+02 0.51696147713E+02
 0.46331235456E+02 0.41212952644E+02 0.36465394965E+02 0.32179129837E+02 0.28404825355E+02
 0.25152361440E+02 0.22397539059E+02 0.20094418515E+02 0.18188451123E+02 0.16625857373E+02
 0.15357565945E+02 0.14339185766E+02 0.13529888829E+02 0.12892301317E+02 0.12393673720E+02
 0.12007278909E+02 0.11712928793E+02 0.11496328606E+02 0.11347794355E+02 0.11261056027E+02
 0.92570540377E+01 0.92925471009E+01 0.94006051242E+01 0.95859249585E+01 0.98564201517E+01
 0.10223871276E+02 0.10705214217E+02 0.11323902136E+02 0.12110427442E+02 0.13101582289E+02
 0.14339185766E+02 0.15869799036E+02 0.17746306776E+02 0.20030136598E+02 0.22790766052E+02
 0.26099064773E+02 0.30013845292E+02 0.34565343631E+02 0.39742074388E+02 0.45486045175E+02
 0.51696147713E+02 0.58234489553E+02 0.64929923110E+02 0.71487259267E+02 0.77326285534E+02
 0.81987870789E+02 0.85285312635E+02 0.87306865478E+02 0.88344207423E+02 0.88764925921E+02
 0.88867191176E+02 0.88764925921E+02 0.88344207423E+02 0.87306865478E+02 0.85285312635E+02
 0.81987870789E+02 0.77326285534E+02 0.71487259267E+02 0.64929923110E+02 0.58234489553E+02
 0.51696147713E+02 0.45486045175E+02 0.39742074388E+02 0.34565343631E+02 0.30013845292E+02
 0.26099064773E+02 0.22790766052E+02 0.20030136598E+02 0.17746306776E+02 0.15869799036E+02
 0.14339185766E+02 0.13101582289E+02 0.12110427442E+02 0.11323902136E+02 0.10705214217E+02
 0.10223871276E+02 0.98564201517E+01 0.95859249585E+01 0.94006051242E+01 0.92925471009E+01
 0.77101560400E+01 0.77502576016E+01 0.78725123856E+01 0.80826731012E+01 0.83903161907E+01
 0.88095300254E+01 0.93602990138E+01 0.10069815977E+02 0.10972761378E+02 0.12110427442E+02
 0.13529888829E+02 0.15284941002E+02 0.17439205795E+02 0.20069026756E+02 0.23261641479E+02
 0.27105065645E+02 0.31670602034E+02 0.36994152871E+02 0.43064218553E+02 0.49820287814E+02
 0.57157675141E+02 0.64929923110E+02 0.72810409808E+02 0.79998664773E+02 0.85754912517E+02
 0.89657459314E+02 0.91682632410E+02 0.92189365444E+02 0.91801217081E+02 0.91208331989E+02
 0.90944005211E+02 0.91208331989E+02 0.91801217081E+02 0.92189365444E+02 0.91682632410E+02
 0.89657459314E+02 0.85754912517E+02 0.79998664773E+02 0.72810409808E+02 0.64929923110E+02
 0.57157675141E+02 0.49820287814E+02 0.43064218553E+02 0.36994152871E+02 0.31670602034E+02
 0.27105065645E+02 0.23261641479E+02 0.20069026756E+02 0.17439205795E+02 0.15284941002E+02
 0.13529888829E+02 0.12110427442E+02 0.10972761378E+02 0.10069815977E+02 0.93602990138E+01
 0.88095300254E+01 0.83903161907E+01 0.80826731012E+01 0.78725123856E+01 0.77502576016E+01
 0.65099569238E+01 0.65530367510E+01 0.66845391206E+01 0.69111208419E+01 0.72438566302E+01
 0.76990680852E+01 0.82998231873E+01 0.90771078165E+01 0.10069815977E+02 0.11323902136E+02
 0.12892301317E+02 0.14837263753E+02 0.17234797350E+02 0.20177678488E+02 0.23771595315E+02
 0.28121251246E+02 0.33309475103E+02 0.39378078629E+02 0.46318837125E+02 0.54075262377E+02
 0.62546081965E+02 0.71487259267E+02 0.79998664773E+02 0.87001671576E+02 0.91696821951E+02
 0.93743879380E+02 0.93355377432E+02 0.91264601171E+02 0.88550193557E+02 0.86344383357E+02
 0.85502993058E+02 0.86344383357E+02 0.88550193557E+02 0.91264601171E+02 0.93355377432E+02
 0.93743879380E+02 0.91696821951E+02 0.87001671576E+02 0.79998664773E+02 0.71487259267E+02
 0.62546081965E+02 0.54075262377E+02 0.46318837125E+02 0.39378078629E+02 0.33309475103E+02
 0.28121251246E+02 0.23771595315E+02 0.20177678488E+02 0.17234797350E+02 0.14837263753E+02
 0.12892301317E+02 0.11323902136E+02 0.10069815977E+02 0.90771078165E+01 0.82998231873E+01
 0.76990680852E+01 0.72438566302E+01 0.69111208419E+01 0.66845391206E+01 0.65530367510E+01
 0.55904011379E+01 0.56353014199E+01 0.57725103985E+01 0.60094032039E+01 0.63583130283E+01
 0.68375879236E+01 0.74732228926E+01 0.82998231873E+01 0.93602990138E+01 0.10705214217E+02
 0.12393673720E+02 0.14497065398E+02 0.17104524236E+02 0.20325532905E+02 0.24283604835E+02
 0.29098730322E+02 0.34864152176E+02 0.41628516566E+02 0.49391002741E+02 0.58105373559E+02
 0.67657544203E+02 0.77326285534E+02 0.85754912517E+02 0.91696821951E+02 0.94306534726E+02
 0.93360122058E+02 0.89374458884E+02 0.83561626203E+02 0.77583641258E+02 0.73140577146E+02
 0.71502773994E+02 0.73140577146E+02 0.77583641258E+02 0.83561626203E+02 0.89374458884E+02
 0.93360122058E+02 0.94306534726E+02 0.91696821951E+02 0.85754912517E+02 0.77326285534E+02
 0.67657544203E+02 0.58105373559E+02 0.49391002741E+02 0.41628516566E+02 0.34864152176E+02
 0.29098730322E+02 0.24283604835E+02 0.20325532905E+02 0.17104524236E+02 0.14497065398E+02
 0.12393673720E+02 0.10705214217E+02 0.93602990138E+01 0.82998231873E+01 0.74732228926E+01
 0.68375879236E+01 0.63583130283E+01 0.60094032039E+01 0.57725103985E+01 0.56353014199E+01
 0.48962355750E+01 0.49421447423E+01 0.50825612066E+01 0.53254022789E+01 0.56840202243E+01
 0.61785339764E+01 0.68375879236E+01 0.76990680852E+01 0.88095300254E+01 0.10223871276E+02
 0.12007278909E+02 0.14240269517E+02 0.17024847393E+02 0.20486315880E+02 0.24764369638E+02
 0.29992353027E+02 0.36272885871E+02 0.43662637390E+02 0.52171800652E+02 0.61768273879E+02
 0.72148907180E+02 0.81987870789E+02 0.89657459314E+02 0.93743879380E+02 0.93360122058E+02
 0.88421621745E+02 0.79804522604E+02 0.69289271447E+02 0.59232605821E+02 0.52010682827E+02
 0.49386474672E+02 0.52010682827E+02 0.59232605821E+02 0.69289271447E+02 0.79804522604E+02
 0.88421621745E+02 0.93360122058E+02 0.93743879380E+02 0.89657459314E+02 0.81987870789E+02
 0.72148907180E+02 0.61768273879E+02 0.52171800652E+02 0.43662637390E+02 0.36272885871E+02
 0.29992353027E+02 0.24764369638E+02 0.20486315880E+02 0.17024847393E+02 0.14240269517E+02
 0.12007278909E+02 0.10223871276E+02 0.88095300254E+01 0.76990680852E+01 0.68375879236E+01
 0.61785339764E+01 0.56840202243E+01 0.53254022789E+01 0.50825612066E+01 0.49421447423E+01
 0.43819513670E+01 0.44283493911E+01 0.45703586934E+01 0.48162930844E+01 0.51803126421E+01
 0.56840202243E+01 0.63583130283E+01 0.72438566302E+01 0.83903161907E+01 0.98564201517E+01
 0.11712928793E+02 0.14048787542E+02 0.16977712714E+02 0.20639025347E+02 0.25186287529E+02
 0.30764029782E+02 0.37483238168E+02 0.45409386378E+02 0.54565562364E+02 0.64919807259E+02
 0.75743450512E+02 0.85285312635E+02 0.91682632410E+02 0.93355377432E+02 0.89374458884E+02
 0.79804522604E+02 0.65911315972E+02 0.50095437990E+02 0.35471526867E+02 0.25150543114E+02
 0.21428459861E+02 0.25150543114E+02 0.35471526867E+02 0.50095437990E+02 0.65911315972E+02
 0.79804522604E+02 0.89374458884E+02 0.93355377432E+02 0.91682632410E+02 0.85285312635E+02
 0.75743450512E+02 0.64919807259E+02 0.54565562364E+02 0.45409386378E+02 0.37483238168E+02
 0.30764029782E+02 0.25186287529E+02 0.20639025347E+02 0.16977712714E+02 0.14048787542E+02
 0.11712928793E+02 0.98564201517E+01 0.83903161907E+01 0.72438566302E+01 0.63583130283E+01
 0.56840202243E+01 0.51803126421E+01 0.48162930844E+01 0.45703586934E+01 0.44283493911E+01