   8   8   0   0
  0.1839039E+02  0.5279105E-09  0.5279105E-09  0.5279105E-09  0.5000000E-15
  1.000000000000000E-004
  CAR 
 GaAs                                    
     11.13867834    -10.73236351  301      4.72545096      1.00000000
    -10.732  0.0000E+00  0.0000E+00
    -10.659  0.0000E+00  0.0000E+00
    -10.587  0.0000E+00  0.0000E+00
    -10.514  0.0000E+00  0.0000E+00
    -10.441  0.0000E+00  0.0000E+00
    -10.368  0.0000E+00  0.0000E+00
    -10.295  0.0000E+00  0.0000E+00
    -10.222  0.0000E+00  0.0000E+00
    -10.149  0.0000E+00  0.0000E+00
    -10.076  0.0000E+00  0.0000E+00
    -10.003  0.0000E+00  0.0000E+00
     -9.930  0.0000E+00  0.0000E+00
     -9.858  0.0000E+00  0.0000E+00
     -9.785  0.0000E+00  0.0000E+00
     -9.712  0.4488E-02  0.3089E-04
     -9.639  0.9213E-01  0.2873E-02
     -9.566  0.2917E+00  0.1618E-01
     -9.493  0.5422E+00  0.4704E-01
     -9.420  0.6869E+00  0.9253E-01
     -9.347  0.7229E+00  0.1445E+00
     -9.274  0.7588E+00  0.1982E+00
     -9.201  0.8380E+00  0.2562E+00
     -9.128  0.9459E+00  0.3211E+00
     -9.056  0.1060E+01  0.3942E+00
     -8.983  0.1346E+01  0.4780E+00
     -8.910  0.1850E+01  0.5953E+00
     -8.837  0.2224E+01  0.7445E+00
     -8.764  0.1903E+01  0.8947E+00
     -8.691  0.1637E+01  0.1023E+01
     -8.618  0.1588E+01  0.1140E+01
     -8.545  0.1567E+01  0.1255E+01
     -8.472  0.1532E+01  0.1368E+01
     -8.399  0.1482E+01  0.1478E+01
     -8.327  0.1996E+01  0.1599E+01
     -8.254  0.1528E+01  0.1727E+01
     -8.181  0.8408E+00  0.1811E+01
     -8.108  0.1103E+01  0.1875E+01
     -8.035  0.1778E+01  0.1980E+01
     -7.962  0.2281E+01  0.2133E+01
     -7.889  0.2395E+01  0.2304E+01
     -7.816  0.2560E+01  0.2490E+01
     -7.743  0.2578E+01  0.2670E+01
     -7.670  0.2776E+01  0.2865E+01
     -7.598  0.5785E+01  0.3099E+01
     -7.525  0.5402E+01  0.3507E+01
     -7.452  0.4275E+01  0.3859E+01
     -7.379  0.3292E+01  0.4137E+01
     -7.306  0.2806E+01  0.4335E+01
     -7.233  0.3012E+01  0.4547E+01
     -7.160  0.3250E+01  0.4775E+01
     -7.087  0.5437E+01  0.5085E+01
     -7.014  0.5079E+01  0.5483E+01
     -6.941  0.5452E+01  0.5860E+01
     -6.868  0.5818E+01  0.6274E+01
     -6.796  0.5190E+01  0.6678E+01
     -6.723  0.3871E+01  0.6971E+01
     -6.650  0.3617E+01  0.7243E+01
     -6.577  0.3375E+01  0.7498E+01
     -6.504  0.3055E+01  0.7738E+01
     -6.431  0.1813E+01  0.7982E+01
     -6.358  0.0000E+00  0.8000E+01
     -6.285  0.0000E+00  0.8000E+01
     -6.212  0.0000E+00  0.8000E+01
     -6.139  0.0000E+00  0.8000E+01
     -6.067  0.0000E+00  0.8000E+01
     -5.994  0.0000E+00  0.8000E+01
     -5.921  0.0000E+00  0.8000E+01
     -5.848  0.0000E+00  0.8000E+01
     -5.775  0.0000E+00  0.8000E+01
     -5.702  0.0000E+00  0.8000E+01
     -5.629  0.0000E+00  0.8000E+01
     -5.556  0.0000E+00  0.8000E+01
     -5.483  0.0000E+00  0.8000E+01
     -5.410  0.0000E+00  0.8000E+01
     -5.338  0.0000E+00  0.8000E+01
     -5.265  0.0000E+00  0.8000E+01
     -5.192  0.0000E+00  0.8000E+01
     -5.119  0.0000E+00  0.8000E+01
     -5.046  0.0000E+00  0.8000E+01
     -4.973  0.0000E+00  0.8000E+01
     -4.900  0.0000E+00  0.8000E+01
     -4.827  0.0000E+00  0.8000E+01
     -4.754  0.0000E+00  0.8000E+01
     -4.681  0.0000E+00  0.8000E+01
     -4.608  0.0000E+00  0.8000E+01
     -4.536  0.0000E+00  0.8000E+01
     -4.463  0.0000E+00  0.8000E+01
     -4.390  0.0000E+00  0.8000E+01
     -4.317  0.0000E+00  0.8000E+01
     -4.244  0.0000E+00  0.8000E+01
     -4.171  0.0000E+00  0.8000E+01
     -4.098  0.0000E+00  0.8000E+01
     -4.025  0.0000E+00  0.8000E+01
     -3.952  0.0000E+00  0.8000E+01
     -3.879  0.0000E+00  0.8000E+01
     -3.807  0.0000E+00  0.8000E+01
     -3.734  0.0000E+00  0.8000E+01
     -3.661  0.0000E+00  0.8000E+01
     -3.588  0.0000E+00  0.8000E+01
     -3.515  0.0000E+00  0.8000E+01
     -3.442  0.0000E+00  0.8000E+01
     -3.369  0.0000E+00  0.8000E+01
     -3.296  0.0000E+00  0.8000E+01
     -3.223  0.0000E+00  0.8000E+01
     -3.150  0.2635E+00  0.8005E+01
     -3.077  0.2514E+01  0.8107E+01
     -3.005  0.2673E+01  0.8271E+01
     -2.932  0.4197E+01  0.8519E+01
     -2.859  0.8123E+01  0.8943E+01
     -2.786  0.8341E+01  0.9718E+01
     -2.713  0.6417E+01  0.1019E+02
     -2.640  0.6433E+01  0.1066E+02
     -2.567  0.6797E+01  0.1115E+02
     -2.494  0.4823E+01  0.1155E+02
     -2.421  0.3762E+01  0.1186E+02
     -2.348  0.3269E+01  0.1210E+02
     -2.276  0.2159E+01  0.1227E+02
     -2.203  0.2103E+01  0.1243E+02
     -2.130  0.2051E+01  0.1258E+02
     -2.057  0.2002E+01  0.1273E+02
     -1.984  0.1955E+01  0.1287E+02
     -1.911  0.1912E+01  0.1301E+02
     -1.838  0.1871E+01  0.1315E+02
     -1.765  0.1834E+01  0.1328E+02
     -1.692  0.1517E+01  0.1341E+02
     -1.619  0.1499E+01  0.1352E+02
     -1.547  0.1477E+01  0.1362E+02
     -1.474  0.1453E+01  0.1373E+02
     -1.401  0.1421E+01  0.1384E+02
     -1.328  0.1388E+01  0.1394E+02
     -1.255  0.1352E+01  0.1404E+02
     -1.182  0.1316E+01  0.1414E+02
     -1.109  0.1277E+01  0.1423E+02
     -1.036  0.1238E+01  0.1432E+02
     -0.963  0.1196E+01  0.1441E+02
     -0.890  0.1211E+01  0.1450E+02
     -0.817  0.1158E+01  0.1459E+02
     -0.745  0.1116E+01  0.1467E+02
     -0.672  0.1085E+01  0.1475E+02
     -0.599  0.1053E+01  0.1482E+02
     -0.526  0.1293E+01  0.1491E+02
     -0.453  0.2661E+01  0.1502E+02
     -0.380  0.2043E+01  0.1519E+02
     -0.307  0.1760E+01  0.1532E+02
     -0.234  0.1839E+01  0.1545E+02
     -0.161  0.1991E+01  0.1559E+02
     -0.088  0.2141E+01  0.1574E+02
     -0.016  0.3531E+01  0.1592E+02
      0.057  0.3712E+01  0.1619E+02
      0.130  0.3363E+01  0.1646E+02
      0.203  0.3388E+01  0.1669E+02
      0.276  0.4194E+01  0.1697E+02
      0.349  0.4953E+01  0.1730E+02
      0.422  0.5251E+01  0.1768E+02
      0.495  0.5234E+01  0.1807E+02
      0.568  0.4500E+01  0.1844E+02
      0.641  0.3905E+01  0.1875E+02
      0.713  0.3635E+01  0.1902E+02
      0.786  0.3953E+01  0.1930E+02
      0.859  0.3402E+01  0.1958E+02
      0.932  0.3013E+01  0.1980E+02
      1.005  0.3141E+01  0.2003E+02
      1.078  0.3368E+01  0.2026E+02
      1.151  0.3934E+01  0.2052E+02
      1.224  0.4107E+01  0.2080E+02
      1.297  0.5940E+01  0.2118E+02
      1.370  0.8627E+01  0.2168E+02
      1.443  0.7165E+01  0.2218E+02
      1.515  0.7087E+01  0.2271E+02
      1.588  0.5796E+01  0.2318E+02
      1.661  0.4924E+01  0.2357E+02
      1.734  0.3770E+01  0.2389E+02
      1.807  0.3314E+01  0.2415E+02
      1.880  0.3058E+01  0.2438E+02
      1.953  0.3002E+01  0.2460E+02
      2.026  0.3463E+01  0.2483E+02
      2.099  0.4271E+01  0.2511E+02
      2.172  0.5520E+01  0.2546E+02
      2.244  0.4615E+01  0.2586E+02
      2.317  0.5174E+01  0.2624E+02
      2.390  0.4677E+01  0.2658E+02
      2.463  0.4822E+01  0.2692E+02
      2.536  0.5521E+01  0.2733E+02
      2.609  0.6082E+01  0.2783E+02
      2.682  0.4349E+01  0.2819E+02
      2.755  0.3888E+01  0.2849E+02
      2.828  0.3432E+01  0.2875E+02
      2.901  0.2838E+01  0.2903E+02
      2.973  0.2042E+01  0.2919E+02
      3.046  0.1874E+01  0.2933E+02
      3.119  0.1749E+01  0.2946E+02
      3.192  0.2152E+01  0.2960E+02
      3.265  0.2888E+01  0.2978E+02
      3.338  0.4117E+01  0.3006E+02
      3.411  0.4154E+01  0.3034E+02
      3.484  0.4531E+01  0.3066E+02
      3.557  0.4796E+01  0.3099E+02
      3.630  0.2928E+01  0.3127E+02
      3.703  0.1374E+01  0.3140E+02
      3.775  0.1216E+01  0.3149E+02
      3.848  0.1063E+01  0.3157E+02
      3.921  0.9168E+00  0.3165E+02
      3.994  0.7766E+00  0.3171E+02
      4.067  0.7709E+00  0.3176E+02
      4.140  0.7832E+00  0.3182E+02
      4.213  0.7329E+00  0.3187E+02
      4.286  0.6201E+00  0.3192E+02
      4.359  0.4449E+00  0.3196E+02
      4.432  0.2071E+00  0.3199E+02
      4.504  0.6936E-01  0.3200E+02
      4.577  0.2249E-01  0.3200E+02
      4.650  0.1338E-02  0.3200E+02
      4.723  0.0000E+00  0.3200E+02
      4.796  0.0000E+00  0.3200E+02
      4.869  0.0000E+00  0.3200E+02
      4.942  0.0000E+00  0.3200E+02
      5.015  0.0000E+00  0.3200E+02
      5.088  0.0000E+00  0.3200E+02
      5.161  0.0000E+00  0.3200E+02
      5.233  0.0000E+00  0.3200E+02
      5.306  0.0000E+00  0.3200E+02
      5.379  0.0000E+00  0.3200E+02
      5.452  0.0000E+00  0.3200E+02
      5.525  0.0000E+00  0.3200E+02
      5.598  0.0000E+00  0.3200E+02
      5.671  0.2697E-02  0.3200E+02
      5.744  0.1988E+00  0.3201E+02
      5.817  0.2498E+00  0.3202E+02
      5.890  0.3126E+00  0.3204E+02
      5.963  0.3870E+00  0.3207E+02
      6.035  0.4731E+00  0.3210E+02
      6.108  0.5710E+00  0.3214E+02
      6.181  0.6763E+00  0.3218E+02
      6.254  0.7386E+00  0.3224E+02
      6.327  0.8105E+00  0.3229E+02
      6.400  0.9202E+00  0.3236E+02
      6.473  0.1431E+01  0.3245E+02
      6.546  0.1743E+01  0.3255E+02
      6.619  0.3156E+01  0.3272E+02
      6.692  0.2582E+01  0.3295E+02
      6.764  0.2560E+01  0.3313E+02
      6.837  0.2771E+01  0.3333E+02
      6.910  0.3020E+01  0.3354E+02
      6.983  0.3297E+01  0.3377E+02
      7.056  0.3569E+01  0.3402E+02
      7.129  0.7905E+01  0.3441E+02
      7.202  0.7851E+01  0.3496E+02
      7.275  0.6336E+01  0.3545E+02
      7.348  0.4442E+01  0.3589E+02
      7.421  0.5318E+01  0.3623E+02
      7.494  0.7324E+01  0.3670E+02
      7.566  0.3941E+01  0.3708E+02
      7.639  0.4001E+01  0.3737E+02
      7.712  0.5294E+01  0.3770E+02
      7.785  0.5849E+01  0.3811E+02
      7.858  0.6164E+01  0.3855E+02
      7.931  0.5003E+01  0.3894E+02
      8.004  0.4625E+01  0.3929E+02
      8.077  0.3699E+01  0.3958E+02
      8.150  0.3498E+01  0.3984E+02
      8.223  0.3328E+01  0.4008E+02
      8.295  0.3317E+01  0.4033E+02
      8.368  0.3362E+01  0.4057E+02
      8.441  0.2855E+01  0.4080E+02
      8.514  0.2420E+01  0.4099E+02
      8.587  0.1840E+01  0.4114E+02
      8.660  0.1969E+01  0.4128E+02
      8.733  0.2987E+01  0.4146E+02
      8.806  0.5031E+01  0.4174E+02
      8.879  0.6429E+01  0.4214E+02
      8.952  0.9984E+01  0.4294E+02
      9.024  0.6552E+01  0.4350E+02
      9.097  0.5582E+01  0.4393E+02
      9.170  0.4514E+01  0.4428E+02
      9.243  0.4205E+01  0.4459E+02
      9.316  0.3974E+01  0.4489E+02
      9.389  0.3731E+01  0.4517E+02
      9.462  0.3799E+01  0.4543E+02
      9.535  0.4867E+01  0.4574E+02
      9.608  0.4615E+01  0.4611E+02
      9.681  0.4590E+01  0.4644E+02
      9.754  0.4461E+01  0.4677E+02
      9.826  0.4230E+01  0.4709E+02
      9.899  0.3896E+01  0.4739E+02
      9.972  0.2529E+01  0.4763E+02
     10.045  0.3358E+01  0.4783E+02
     10.118  0.7286E+00  0.4799E+02
     10.191  0.0000E+00  0.4800E+02
     10.264  0.0000E+00  0.4800E+02
     10.337  0.0000E+00  0.4800E+02
     10.410  0.0000E+00  0.4800E+02
     10.483  0.0000E+00  0.4800E+02
     10.555  0.0000E+00  0.4800E+02
     10.628  0.0000E+00  0.4800E+02
     10.701  0.0000E+00  0.4800E+02
     10.774  0.0000E+00  0.4800E+02
     10.847  0.0000E+00  0.4800E+02
     10.920  0.0000E+00  0.4800E+02
     10.993  0.0000E+00  0.4800E+02
     11.066  0.0000E+00  0.4800E+02
     11.139  0.0000E+00  0.4800E+02
