       N       E                     dE             d eps       ncg     rms          rms(c)
DAV:   1    -0.299143198768E+02   -0.29914E+02   -0.71616E-01   552   0.380E+00    0.142E+00
DAV:   2    -0.298975391584E+02    0.16781E-01   -0.38870E-02   496   0.893E-01    0.860E-01
DAV:   3    -0.298919734395E+02    0.55657E-02   -0.27161E-02   512   0.617E-01    0.104E-01
DAV:   4    -0.298916420661E+02    0.33137E-03   -0.14401E-03   496   0.179E-01    0.579E-02
DAV:   5    -0.298915915383E+02    0.50528E-04   -0.20506E-04   328   0.581E-02
   1 F= -.29891592E+02 E0= -.29891592E+02  d E =0.000000E+00
 imaginary and real dielectric function
