 vasp.6.4.3 19Mar24 (build Aug 29 2024 15:27:20) complex                        
  
 executed on             LinuxIFC date 2025.03.19  11:28:06
 running    8 mpi-ranks, on    1 nodes
 distrk:  each k-point on    8 cores,    1 groups
 distr:  one band on NCORE=   1 cores,    8 groups


--------------------------------------------------------------------------------------------------------


 INCAR:
   SYSTEM = GaAs
   PREC = Normal
   ENCUT = 500
   ISMEAR = -5
   SIGMA = 0.1
   IBRION = 2
   LOPTICS = .TRUE.

 POTCAR:    PAW_PBE As 22Sep2009                  
 POTCAR:    PAW_PBE Ga 08Apr2002                  
 -----------------------------------------------------------------------------
|                                                                             |
|           W    W    AA    RRRRR   N    N  II  N    N   GGGG   !!!           |
|           W    W   A  A   R    R  NN   N  II  NN   N  G    G  !!!           |
|           W    W  A    A  R    R  N N  N  II  N N  N  G       !!!           |
|           W WW W  AAAAAA  RRRRR   N  N N  II  N  N N  G  GGG   !            |
|           WW  WW  A    A  R   R   N   NN  II  N   NN  G    G                |
|           W    W  A    A  R    R  N    N  II  N    N   GGGG   !!!           |
|                                                                             |
|     For optimal performance we recommend to set                             |
|       NCORE = 2 up to number-of-cores-per-socket                            |
|     NCORE specifies how many cores store one orbital (NPAR=cpu/NCORE).      |
|     This setting can greatly improve the performance of VASP for DFT.       |
|     The default, NCORE=1 might be grossly inefficient on modern             |
|     multi-core architectures or massively parallel machines. Do your        |
|     own testing! More info at https://www.vasp.at/wiki/index.php/NCORE      |
|     Unfortunately you need to use the default for GW and RPA                |
|     calculations (for HF NCORE is supported but not extensively tested      |
|     yet).                                                                   |
|                                                                             |
 -----------------------------------------------------------------------------

 POTCAR:    PAW_PBE As 22Sep2009                  
   VRHFIN =As: s2p3                                                                                 
   LEXCH  = PE                                                                                      
   EATOM  =   170.1867 eV,   12.5084 Ry                                                             
                                                                                                    
   TITEL  = PAW_PBE As 22Sep2009                                                                    
   LULTRA =        F    use ultrasoft PP ?                                                          
   IUNSCR =        1    unscreen: 0-lin 1-nonlin 2-no                                               
   RPACOR =    1.900    partial core radius                                                         
   POMASS =   74.922; ZVAL   =    5.000    mass and valenz                                          
   RCORE  =    2.100    outmost cutoff radius                                                       
   RWIGS  =    2.300; RWIGS  =    1.217    wigner-seitz radius (au A)                               
   ENMAX  =  208.702; ENMIN  =  156.526 eV                                                          
   ICORE  =        3    local potential                                                             
   LCOR   =        T    correct aug charges                                                         
   LPAW   =        T    paw PP                                                                      
   EAUG   =  462.758                                                                                
   DEXC   =    0.000                                                                                
   RMAX   =    2.144    core radius for proj-oper                                                   
   RAUG   =    1.300    factor for augmentation sphere                                              
   RDEP   =    2.140    radius for radial grids                                                     
   RDEPT  =    1.956    core radius for aug-charge                                                  
                                                                                                    
   Atomic configuration                                                                             
   10 entries                                                                                       
     n  l   j            E        occ.                                                              
     1  0  0.50    -11718.0418   2.0000                                                             
     2  0  0.50     -1486.5454   2.0000                                                             
     2  1  1.50     -1303.3889   6.0000                                                             
     3  0  0.50      -190.2849   2.0000                                                             
     3  1  1.50      -133.6555   6.0000                                                             
     3  2  2.50       -40.6443  10.0000                                                             
     4  0  0.50       -14.4936   2.0000                                                             
     4  1  0.50        -5.1947   3.0000                                                             
     4  2  1.50        -5.4423   0.0000                                                             
     4  3  2.50        -5.4423   0.0000                                                             
   Description                                                                                      
     l       E           TYP  RCUT    TYP  RCUT                                                     
     0    -14.4935570     23  2.100                                                                 
     0    -11.9212055     23  2.100                                                                 
     1     -5.1947127     23  2.100                                                                 
     1     27.2116520     23  2.100                                                                 
     2     -5.4423304     23  2.100                                                                 
     3     -1.3605826      7  2.100                                                                 
  local pseudopotential read in
  partial core-charges read in
  partial kinetic energy density read in
  atomic valenz-charges read in
  non local Contribution for L=           0  read in
    real space projection operators read in
  non local Contribution for L=           0  read in
    real space projection operators read in
  non local Contribution for L=           1  read in
    real space projection operators read in
  non local Contribution for L=           1  read in
    real space projection operators read in
  non local Contribution for L=           2  read in
    real space projection operators read in
    PAW grid and wavefunctions read in
 
   number of l-projection  operators is LMAX  =           5
   number of lm-projection operators is LMMAX =          13
 
 POTCAR:    PAW_PBE Ga 08Apr2002                  
   VRHFIN =Ga: s2p1                                                                                 
   LEXCH  = PE                                                                                      
   EATOM  =    58.8688 eV,    4.3267 Ry                                                             
                                                                                                    
   TITEL  = PAW_PBE Ga 08Apr2002                                                                    
   LULTRA =        F    use ultrasoft PP ?                                                          
   IUNSCR =        1    unscreen: 0-lin 1-nonlin 2-no                                               
   RPACOR =    2.170    partial core radius                                                         
   POMASS =   69.723; ZVAL   =    3.000    mass and valenz                                          
   RCORE  =    2.600    outmost cutoff radius                                                       
   RWIGS  =    2.650; RWIGS  =    1.402    wigner-seitz radius (au A)                               
   ENMAX  =  134.678; ENMIN  =  101.009 eV                                                          
   ICORE  =        3    local potential                                                             
   LCOR   =        T    correct aug charges                                                         
   LPAW   =        T    paw PP                                                                      
   EAUG   =  320.264                                                                                
   DEXC   =    0.000                                                                                
   RMAX   =    2.658    core radius for proj-oper                                                   
   RAUG   =    1.300    factor for augmentation sphere                                              
   RDEP   =    2.684    radius for radial grids                                                     
   RDEPT  =    2.308    core radius for aug-charge                                                  
                                                                                                    
   Atomic configuration                                                                             
   10 entries                                                                                       
     n  l   j            E        occ.                                                              
     1  0  0.50    -10228.7830   2.0000                                                             
     2  0  0.50     -1262.1604   2.0000                                                             
     2  1  1.50     -1098.6333   6.0000                                                             
     3  0  0.50      -148.1110   2.0000                                                             
     3  1  1.50       -98.8436   6.0000                                                             
     3  2  2.50       -19.1549  10.0000                                                             
     4  0  0.50        -8.9483   2.0000                                                             
     4  1  0.50        -2.5791   1.0000                                                             
     4  2  1.50         5.4423   0.0000                                                             
     4  3  2.50        -2.7416   0.0000                                                             
   Description                                                                                      
     l       E           TYP  RCUT    TYP  RCUT                                                     
     0     -8.9483097     23  2.600                                                                 
     0     -5.8232215     23  2.600                                                                 
     1     -2.5790793     23  2.600                                                                 
     1      5.2230115     23  2.600                                                                 
     2      1.3605826     23  2.600                                                                 
     3     -1.3605826      7  2.600                                                                 
  local pseudopotential read in
  partial core-charges read in
  partial kinetic energy density read in
  atomic valenz-charges read in
  non local Contribution for L=           0  read in
    real space projection operators read in
  non local Contribution for L=           0  read in
    real space projection operators read in
  non local Contribution for L=           1  read in
    real space projection operators read in
  non local Contribution for L=           1  read in
    real space projection operators read in
  non local Contribution for L=           2  read in
    real space projection operators read in
    PAW grid and wavefunctions read in
 
   number of l-projection  operators is LMAX  =           5
   number of lm-projection operators is LMMAX =          13
 
  PAW_PBE As 22Sep2009                  :
 energy of atom  1       EATOM= -170.1867
 kinetic energy error for atom=    0.0005 (will be added to EATOM!!)
  PAW_PBE Ga 08Apr2002                  :
 energy of atom  2       EATOM=  -58.8688
 kinetic energy error for atom=    0.0000 (will be added to EATOM!!)
 
 
 POSCAR: cubic gallium arsenide
  positions in direct lattice
  velocities in cartesian coordinates


 exchange-correlation table for PE
   RHO(1)=    0.500       N(1)  =     2000
   RHO(2)=  100.500       N(2)  =     4000
 


--------------------------------------------------------------------------------------------------------


 ion  position               nearest neighbor table
   1  0.000  0.000  0.000-   5 2.29   6 2.29   7 2.29   8 2.29
   2  0.500  0.500  0.000-   5 2.29   6 2.29   7 2.29   8 2.29
   3  0.500  0.000  0.500-   5 2.29   6 2.29   7 2.29   8 2.29
   4  0.000  0.500  0.500-   5 2.29   6 2.29   7 2.29   8 2.29
   5  0.250  0.250  0.250-   1 2.29   2 2.29   3 2.29   4 2.29
   6  0.750  0.250  0.750-   1 2.29   2 2.29   3 2.29   4 2.29
   7  0.750  0.750  0.250-   1 2.29   2 2.29   3 2.29   4 2.29
   8  0.250  0.750  0.750-   1 2.29   2 2.29   3 2.29   4 2.29
 
  LATTYP: Found a simple cubic cell.
 ALAT       =     5.2791052366
  
  Lattice vectors:
  
 A1 = (   5.2791052366,   0.0000000000,   0.0000000000)
 A2 = (   0.0000000000,   5.2791052366,   0.0000000000)
 A3 = (   0.0000000000,   0.0000000000,   5.2791052366)


Analysis of symmetry for initial positions (statically):
=====================================================================
 Subroutine PRICEL returns following result:
 
  LATTYP: Found a face centered cubic cell.
 ALAT       =     5.2791052366
  
  Lattice vectors:
  
 A1 = (   2.6395526183,  -2.6395526183,   0.0000000000)
 A2 = (   2.6395526183,   0.0000000000,   2.6395526183)
 A3 = (   0.0000000000,  -2.6395526183,   2.6395526183)
 
   4 primitive cells build up your supercell.
 

 Routine SETGRP: Setting up the symmetry group for a 
 simple cubic supercell.


 Subroutine GETGRP returns: Found 24 space group operations
 (whereof 24 operations were pure point group operations)
 out of a pool of 48 trial point group operations.


The static configuration has the point symmetry T_d .


Analysis of symmetry for dynamics (positions and initial velocities):
=====================================================================
 Subroutine PRICEL returns following result:
 
  LATTYP: Found a face centered cubic cell.
 ALAT       =     5.2791052366
  
  Lattice vectors:
  
 A1 = (   2.6395526183,  -2.6395526183,   0.0000000000)
 A2 = (   2.6395526183,   0.0000000000,   2.6395526183)
 A3 = (   0.0000000000,  -2.6395526183,   2.6395526183)
 
   4 primitive cells build up your supercell.
 

 Routine SETGRP: Setting up the symmetry group for a 
 simple cubic supercell.


 Subroutine GETGRP returns: Found 24 space group operations
 (whereof 24 operations were pure point group operations)
 out of a pool of 48 trial point group operations.


The dynamic configuration has the point symmetry T_d .


 Subroutine INISYM returns: Found 24 space group operations
 (whereof 24 operations are pure point group operations),
 and found     4 'primitive' translations


----------------------------------------------------------------------------------------

                                     Primitive cell                                     

  volume of cell :      36.7808

  direct lattice vectors                    reciprocal lattice vectors
     2.639552618 -2.639552618  0.000000000     0.189426040 -0.189426040 -0.189426040
     2.639552618  0.000000000  2.639552618     0.189426040  0.189426040  0.189426040
     0.000000000 -2.639552618  2.639552618    -0.189426040 -0.189426040  0.189426040

  length of vectors
     3.732891111  3.732891111  3.732891111     0.328095526  0.328095526  0.328095526

  position of ions in fractional coordinates (direct lattice)
     0.000000000  0.000000000  0.000000000
     0.750000000  0.750000000  0.750000000

  ion indices of the primitive-cell ions
   primitive index   ion index
                 1           1
                 2           5

----------------------------------------------------------------------------------------

 
 
 KPOINTS: Automatic mesh                          

Automatic generation of k-mesh.
 Grid dimensions read from file:
 generate k-points for:    5    5    5

 Generating k-lattice:

  Cartesian coordinates                     Fractional coordinates (reciprocal lattice)
     0.037885208  0.000000000  0.000000000     0.200000000  0.000000000  0.000000000
     0.000000000  0.037885208  0.000000000     0.000000000  0.200000000  0.000000000
     0.000000000  0.000000000  0.037885208     0.000000000  0.000000000  0.200000000

  Length of vectors
     0.037885208  0.037885208  0.037885208

  Shift w.r.t. Gamma in fractional coordinates (k-lattice)
     0.000000000  0.000000000  0.000000000

 TETIRR: Found     57 inequivalent tetrahedra from      750
 
 Subroutine IBZKPT returns following result:
 ===========================================
 
 Found     10 irreducible k-points:
 
 Following reciprocal coordinates:
            Coordinates               Weight
  0.000000  0.000000  0.000000      1.000000
  0.200000  0.000000  0.000000      6.000000
  0.400000  0.000000  0.000000      6.000000
  0.200000  0.200000  0.000000     12.000000
  0.400000  0.200000  0.000000     24.000000
  0.400000  0.400000  0.000000     12.000000
  0.200000  0.200000  0.200000      8.000000
  0.400000  0.200000  0.200000     24.000000
  0.400000  0.400000  0.200000     24.000000
  0.400000  0.400000  0.400000      8.000000
 
 Following cartesian coordinates:
            Coordinates               Weight
  0.000000  0.000000  0.000000      1.000000
  0.170483  0.000000  0.000000      6.000000
  0.340967  0.000000  0.000000      6.000000
  0.170483  0.170483  0.000000     12.000000
  0.340967  0.170483  0.000000     24.000000
  0.340967  0.340967  0.000000     12.000000
  0.170483  0.170483  0.170483      8.000000
  0.340967  0.170483  0.170483     24.000000
  0.340967  0.340967  0.170483     24.000000
  0.340967  0.340967  0.340967      8.000000
 


--------------------------------------------------------------------------------------------------------




 Dimension of arrays:
   k-points           NKPTS =     10   k-points in BZ     NKDIM =     10   number of bands    NBANDS=     24
   number of dos      NEDOS =    301   number of ions     NIONS =      8
   non local maximal  LDIM  =      5   non local SUM 2l+1 LMDIM =     13
   total plane-waves  NPLWV =  27000
   max r-space proj   IRMAX =      1   max aug-charges    IRDMAX=  13388
   dimension x,y,z NGX =    30 NGY =   30 NGZ =   30
   dimension x,y,z NGXF=    60 NGYF=   60 NGZF=   60
   support grid    NGXF=    60 NGYF=   60 NGZF=   60
   ions per type =               4   4
   NGX,Y,Z   is equivalent  to a cutoff of   9.45,  9.45,  9.45 a.u.
   NGXF,Y,Z  is equivalent  to a cutoff of  18.89, 18.89, 18.89 a.u.

 SYSTEM =  GaAs                                    
 POSCAR =  cubic gallium arsenide                  

 Startparameter for this run:
   NWRITE =      2    write-flag & timer
   PREC   = normal    normal or accurate (medium, high low for compatibility)
   ISTART =      1    job   : 0-new  1-cont  2-samecut
   ICHARG =      0    charge: 1-file 2-atom 10-const
   ISPIN  =      1    spin polarized calculation?
   LNONCOLLINEAR =      F non collinear calculations
   LSORBIT =      F    spin-orbit coupling
   INIWAV =      1    electr: 0-lowe 1-rand  2-diag
   LASPH  =      F    aspherical Exc in radial PAW
 Electronic Relaxation 1
   ENCUT  =  500.0 eV  36.75 Ry    6.06 a.u.   9.63  9.63  9.63*2*pi/ulx,y,z
   ENINI  =  500.0     initial cutoff
   ENAUG  =  462.8 eV  augmentation charge cutoff
   NELM   =     60;   NELMIN=  2; NELMDL=  0     # of ELM steps 
   EDIFF  = 0.1E-03   stopping-criterion for ELM
   LREAL  =      F    real-space projection
   NLSPLINE    = F    spline interpolate recip. space projectors
   LCOMPAT=      F    compatible to vasp.4.4
   GGA_COMPAT  = T    GGA compatible to vasp.4.4-vasp.4.6
   LMAXPAW     = -100 max onsite density
   LMAXMIX     =    2 max onsite mixed and CHGCAR
   VOSKOWN=      0    Vosko Wilk Nusair interpolation
   ROPT   =    0.00000   0.00000
 Ionic relaxation
   EDIFFG = 0.1E-02   stopping-criterion for IOM
   NSW    =      0    number of steps for IOM
   NBLOCK =      1;   KBLOCK =      1    inner block; outer block 
   IBRION =     -1    ionic relax: 0-MD 1-quasi-New 2-CG
   NFREE  =      1    steps in history (QN), initial steepest desc. (CG)
   ISIF   =      2    stress and relaxation
   IWAVPR =     10    prediction:  0-non 1-charg 2-wave 3-comb
   ISYM   =      2    0-nonsym 1-usesym 2-fastsym
   LCORR  =      T    Harris-Foulkes like correction to forces

   POTIM  = 0.5000    time-step for ionic-motion
   TEIN   =    0.0    initial temperature
   TEBEG  =    0.0;   TEEND  =   0.0 temperature during run
   SMASS  =  -3.00    Nose mass-parameter (am)
   estimated Nose-frequenzy (Omega)   =  0.10E-29 period in steps = 0.13E+47 mass=  -0.637E-27a.u.
   SCALEE = 1.0000    scale energy and forces
   NPACO  =    256;   APACO  = 10.0  distance and # of slots for P.C.
   PSTRESS=    0.0 pullay stress

  Mass of Ions in am
   POMASS =  74.92 69.72
  Ionic Valenz
   ZVAL   =   5.00  3.00
  Atomic Wigner-Seitz radii
   RWIGS  =  -1.00 -1.00
  virtual crystal weights 
   VCA    =   1.00  1.00
   NELECT =      32.0000    total number of electrons
   NUPDOWN=      -1.0000    fix difference up-down

 DOS related values:
   EMIN   =  10.00;   EMAX   =-10.00  energy-range for DOS
   EFERMI =   0.00;   METHOD = LEGACY      
   ISMEAR =    -5;   SIGMA  =   0.10  broadening in eV -4-tet -1-fermi 0-gaus

 Electronic relaxation 2 (details)
   IALGO  =     38    algorithm
   LDIAG  =      T    sub-space diagonalisation (order eigenvalues)
   LSUBROT=      F    optimize rotation matrix (better conditioning)
   TURBO    =      0    0=normal 1=particle mesh
   IRESTART =      0    0=no restart 2=restart with 2 vectors
   NREBOOT  =      0    no. of reboots
   NMIN     =      0    reboot dimension
   EREF     =   0.00    reference energy to select bands
   IMIX   =      4    mixing-type and parameters
     AMIX     =   0.40;   BMIX     =  1.00
     AMIX_MAG =   1.60;   BMIX_MAG =  1.00
     AMIN     =   0.10
     WC   =   100.;   INIMIX=   1;  MIXPRE=   1;  MAXMIX= -45

 Intra band minimization:
   WEIMIN = 0.0000     energy-eigenvalue tresh-hold
   EBREAK =  0.10E-05  absolut break condition
   DEPER  =   0.30     relativ break condition  

   TIME   =   0.40     timestep for ELM

  volume/ion in A,a.u.               =      18.39       124.10
  Fermi-wavevector in a.u.,A,eV,Ry     =   0.984535  1.860501 13.188253  0.969309
  Thomas-Fermi vector in A             =   2.115775
 
 Write flags
   LWAVE        =      T    write WAVECAR
   LDOWNSAMPLE  =      F    k-point downsampling of WAVECAR
   LCHARG       =      T    write CHGCAR
   LVTOT        =      F    write LOCPOT, total local potential
   LVHAR        =      F    write LOCPOT, Hartree potential only
   WRT_POTENTIAL= false  ! write potential to hdf5 file
   LELF         =      F    write electronic localiz. function (ELF)
   LORBIT       =      0    0 simple, 1 ext, 2 COOP (PROOUT), +10 PAW based schemes


 Dipole corrections
   LMONO      =      F    monopole corrections only (constant potential shift)
   LDIPOL     =      F    correct potential (dipole corrections)
   IDIPOL     =      0    1-x, 2-y, 3-z, 4-all directions 
   EPSILON    =  1.0000000 bulk dielectric constant
   LVACPOTAV  =      F  vacuum potentials using an averaging scheme for the charge density
   VACPOTFLAT =  0.1000000 required flatness to determine vacuum potential
 Exchange correlation treatment:
   GGA     = PE    functional components
   XC_C    = 1    coefficients multiplying the functional components
   LIBXC   =     F    Libxc                    
   VOSKOWN =     0    Vosko Wilk Nusair interpolation
   LHFCALC =     F    Hartree Fock is set to
   LHFONE  =     F    Hartree Fock one center treatment
   AEXX    =    0.0000 exact exchange contribution

 Parameters of functionals:
   PE:
     No parameter
 
 Van der Waals corrections
   IVDW    =     0    specifies the selected vdW correction

 Linear response parameters
   LEPSILON=     F    determine dielectric tensor
   LRPA    =     F    only Hartree local field effects (RPA)
   LNABLA  =     F    use nabla operator in PAW spheres
   LVEL    =     F    velocity operator in full k-point grid
   CSHIFT  =0.1000    complex shift for real part using Kramers Kronig
   OMEGAMAX=  -1.0    maximum frequency
   DEG_THRESHOLD= 0.2000000E-02 threshold for treating states as degnerate
   RTIME   =   -0.100 relaxation time in fs
  (WPLASMAI=    0.000 imaginary part of plasma frequency in eV, 0.658/RTIME)
   DFIELD  = 0.0000000 0.0000000 0.0000000 field for delta impulse in time
 
  Optional k-point grid parameters
   LKPOINTS_OPT  =     F    use optional k-point grid
   KPOINTS_OPT_MODE=     1    mode for optional k-point grid
 
 Orbital magnetization related:
   ORBITALMAG=     F  switch on orbital magnetization
   LCHIMAG   =     F  perturbation theory with respect to B field
   DQ        =  0.001000  dq finite difference perturbation B field
   LLRAUG    =     F  two centre corrections for induced B field
   LBONE     =     F  B-component reconstruction in AE one-centre
   LVGVCALC  =     T  calculate vGv susceptibility
   LVGVAPPL  =     F  apply vGv susceptibility instead of pGv for G=0

 Random number generation:
   RANDOM_GENERATOR = DEFAULT
   PCG_SEED         = not used


--------------------------------------------------------------------------------------------------------


 Static calculation
 charge density and potential will be updated during run
 non-spin polarized calculation
 Variant of blocked Davidson
 Davidson routine will perform the subspace rotation
 perform sub-space diagonalisation
    after iterative eigenvector-optimisation
 modified Broyden-mixing scheme, WC =      100.0
 initial mixing is a Kerker type mixing with AMIX =  0.4000 and BMIX =      1.0000
 Hartree-type preconditioning will be used
 using additional bands            8
 reciprocal scheme for non local part
 use partial core corrections
 calculate Harris-corrections to forces 
   (improved forces if not selfconsistent)
 use gradient corrections 
 use of overlap-Matrix (Vanderbilt PP)
 Fermi weights with tetrahedron method with Bloechl corrections


--------------------------------------------------------------------------------------------------------


  energy-cutoff  :      500.00
  volume of cell :      147.12
      direct lattice vectors                 reciprocal lattice vectors
     5.279105237  0.000000000  0.000000000     0.189426040  0.000000000  0.000000000
     0.000000000  5.279105237  0.000000000     0.000000000  0.189426040  0.000000000
     0.000000000  0.000000000  5.279105237     0.000000000  0.000000000  0.189426040

  length of vectors
     5.279105237  5.279105237  5.279105237     0.189426040  0.189426040  0.189426040


 
 old parameters found on file WAVECAR:
  energy-cutoff  :      500.00
  volume of cell :      151.47
      direct lattice vectors                 reciprocal lattice vectors
     5.330542292  0.000000000  0.000000000     0.187598174  0.000000000  0.000000000
     0.000000000  5.330542292  0.000000000     0.000000000  0.187598174  0.000000000
     0.000000000  0.000000000  5.330542292     0.000000000  0.000000000  0.187598174

  length of vectors

 
 k-points in units of 2pi/SCALE and weight: Automatic mesh                          
   0.00000000  0.00000000  0.00000000       0.008
   0.17048344  0.00000000  0.00000000       0.048
   0.34096687  0.00000000  0.00000000       0.048
   0.17048344  0.17048344  0.00000000       0.096
   0.34096687  0.17048344  0.00000000       0.192
   0.34096687  0.34096687  0.00000000       0.096
   0.17048344  0.17048344  0.17048344       0.064
   0.34096687  0.17048344  0.17048344       0.192
   0.34096687  0.34096687  0.17048344       0.192
   0.34096687  0.34096687  0.34096687       0.064
 
 k-points in reciprocal lattice and weights: Automatic mesh                          
   0.00000000  0.00000000  0.00000000       0.008
   0.20000000  0.00000000  0.00000000       0.048
   0.40000000  0.00000000  0.00000000       0.048
   0.20000000  0.20000000  0.00000000       0.096
   0.40000000  0.20000000  0.00000000       0.192
   0.40000000  0.40000000  0.00000000       0.096
   0.20000000  0.20000000  0.20000000       0.064
   0.40000000  0.20000000  0.20000000       0.192
   0.40000000  0.40000000  0.20000000       0.192
   0.40000000  0.40000000  0.40000000       0.064
 
 position of ions in fractional coordinates (direct lattice) 
   0.00000000  0.00000000  0.00000000
   0.50000000  0.50000000  0.00000000
   0.50000000  0.00000000  0.50000000
   0.00000000  0.50000000  0.50000000
   0.25000000  0.25000000  0.25000000
   0.75000000  0.25000000  0.75000000
   0.75000000  0.75000000  0.25000000
   0.25000000  0.75000000  0.75000000
 
 position of ions in cartesian coordinates  (Angst):
   0.00000000  0.00000000  0.00000000
   2.63955262  2.63955262  0.00000000
   2.63955262  0.00000000  2.63955262
   0.00000000  2.63955262  2.63955262
   1.31977631  1.31977631  1.31977631
   3.95932893  1.31977631  3.95932893
   3.95932893  3.95932893  1.31977631
   1.31977631  3.95932893  3.95932893
 


--------------------------------------------------------------------------------------------------------


 k-point     1 :   0.0000 0.0000 0.0000  plane waves:    3743
 k-point     2 :   0.2000 0.0000 0.0000  plane waves:    3763
 k-point     3 :   0.4000 0.0000 0.0000  plane waves:    3744
 k-point     4 :   0.2000 0.2000 0.0000  plane waves:    3738
 k-point     5 :   0.4000 0.2000 0.0000  plane waves:    3733
 k-point     6 :   0.4000 0.4000 0.0000  plane waves:    3720
 k-point     7 :   0.2000 0.2000 0.2000  plane waves:    3737
 k-point     8 :   0.4000 0.2000 0.2000  plane waves:    3739
 k-point     9 :   0.4000 0.4000 0.2000  plane waves:    3739
 k-point    10 :   0.4000 0.4000 0.4000  plane waves:    3725

 maximum and minimum number of plane-waves per node :      3763     3720

 maximum number of plane-waves:      3763
 maximum index in each direction: 
   IXMAX=    9   IYMAX=    9   IZMAX=    9
   IXMIN=  -10   IYMIN=  -10   IZMIN=  -10


 serial   3D FFT for wavefunctions
 parallel 3D FFT for charge:
    minimum data exchange during FFTs selected (reduces bandwidth)


 total amount of memory used by VASP MPI-rank0    44082. kBytes
=======================================================================

   base      :      30000. kBytes
   nonl-proj :       8319. kBytes
   fftplans  :       1096. kBytes
   grid      :       2745. kBytes
   one-center:         64. kBytes
   wavefun   :       1858. kBytes
 
     INWAV:  cpu time      0.0270: real time      0.0350
 Broyden mixing: mesh for mixing (old mesh)
   NGX = 19   NGY = 19   NGZ = 19
  (NGX  = 60   NGY  = 60   NGZ  = 60)
  gives a total of   6859 points

 charge density for first step will be calculated from the start-wavefunctions


--------------------------------------------------------------------------------------------------------


 Maximum index for augmentation-charges         1648 (set IRDMAX)


--------------------------------------------------------------------------------------------------------


 initial charge from wavefunction
 First call to EWALD:  gamma=   0.336
 Maximum number of real-space cells 3x 3x 3
 Maximum number of reciprocal cells 3x 3x 3

    FEWALD:  cpu time      0.0009: real time      0.0009


--------------------------------------- Ionic step        1  -------------------------------------------




--------------------------------------- Iteration      1(   1)  ---------------------------------------


    POTLOK:  cpu time      0.0133: real time      0.0159
    SETDIJ:  cpu time      0.0020: real time      0.0020
     EDDAV:  cpu time      0.2426: real time      0.2541
 BZINTS: Fermi energy:    4.787008;   32.000000 electrons
         Band energy:-0.440811E+02;  BLOECHL correction:    0.000000
       DOS:  cpu time      0.0004: real time      0.0004
    CHARGE:  cpu time      0.0126: real time      0.0128
    MIXING:  cpu time      0.0005: real time      0.0005
    --------------------------------------------
      LOOP:  cpu time      0.2714: real time      0.2856

 eigenvalue-minimisations  :   552
 total energy-change (2. order) :-0.2991432E+02  (-0.7161631E-01)
 number of electron      31.9999982 magnetization 
 augmentation part       -5.2679963 magnetization 

 Broyden mixing:
  rms(total) = 0.14228E+00    rms(broyden)= 0.14228E+00
  rms(prec ) = 0.19095E+00
  weight for this iteration     100.00

 Free energy of the ion-electron system (eV)
  ---------------------------------------------------
  alpha Z        PSCENC =        93.00952424
  Ewald energy   TEWEN  =      -981.66128942
  -Hartree energ DENC   =       -72.60266573
  -exchange      EXHF   =         0.00000000
  -V(xc)+E(xc)   XCENC  =      -118.57685779
  PAW double counting   =      2695.41532515    -2517.63692244
  entropy T*S    EENTRO =         0.00000000
  eigenvalues    EBANDS =       -44.08106429
  atomic energy  EATOM  =       916.21963040
  Solvation  Ediel_sol  =         0.00000000
  ---------------------------------------------------
  free energy    TOTEN  =       -29.91431988 eV

  energy without entropy =      -29.91431988  energy(sigma->0) =      -29.91431988


--------------------------------------------------------------------------------------------------------




--------------------------------------- Iteration      1(   2)  ---------------------------------------


    POTLOK:  cpu time      0.0135: real time      0.0144
    SETDIJ:  cpu time      0.0018: real time      0.0019
     EDDAV:  cpu time      0.2207: real time      0.2315
 BZINTS: Fermi energy:    4.756274;   32.000000 electrons
         Band energy:-0.452694E+02;  BLOECHL correction:    0.000000
       DOS:  cpu time      0.0004: real time      0.0004
    CHARGE:  cpu time      0.0121: real time      0.0123
    MIXING:  cpu time      0.0006: real time      0.0006
    --------------------------------------------
      LOOP:  cpu time      0.2491: real time      0.2611

 eigenvalue-minimisations  :   496
 total energy-change (2. order) : 0.1678072E-01  (-0.3886975E-02)
 number of electron      31.9999982 magnetization 
 augmentation part       -5.2698313 magnetization 

 Broyden mixing:
  rms(total) = 0.86024E-01    rms(broyden)= 0.86024E-01
  rms(prec ) = 0.10782E+00
  weight for this iteration     100.00

 eigenvalues of (default mixing * dielectric matrix)
  average eigenvalue GAMMA=   2.3747
  2.3747

 Free energy of the ion-electron system (eV)
  ---------------------------------------------------
  alpha Z        PSCENC =        93.00952424
  Ewald energy   TEWEN  =      -981.66128942
  -Hartree energ DENC   =       -71.45602762
  -exchange      EXHF   =         0.00000000
  -V(xc)+E(xc)   XCENC  =      -118.56625758
  PAW double counting   =      2775.56778480    -2597.74151811
  entropy T*S    EENTRO =         0.00000000
  eigenvalues    EBANDS =       -45.26938587
  atomic energy  EATOM  =       916.21963040
  Solvation  Ediel_sol  =         0.00000000
  ---------------------------------------------------
  free energy    TOTEN  =       -29.89753916 eV

  energy without entropy =      -29.89753916  energy(sigma->0) =      -29.89753916


--------------------------------------------------------------------------------------------------------




--------------------------------------- Iteration      1(   3)  ---------------------------------------


    POTLOK:  cpu time      0.0134: real time      0.0138
    SETDIJ:  cpu time      0.0018: real time      0.0018
     EDDAV:  cpu time      0.2289: real time      0.2399
 BZINTS: Fermi energy:    4.723069;   32.000000 electrons
         Band energy:-0.465446E+02;  BLOECHL correction:    0.000000
       DOS:  cpu time      0.0004: real time      0.0004
    CHARGE:  cpu time      0.0122: real time      0.0124
    MIXING:  cpu time      0.0005: real time      0.0005
    --------------------------------------------
      LOOP:  cpu time      0.2573: real time      0.2689

 eigenvalue-minimisations  :   512
 total energy-change (2. order) : 0.5565719E-02  (-0.2716062E-02)
 number of electron      31.9999982 magnetization 
 augmentation part       -5.2833226 magnetization 

 Broyden mixing:
  rms(total) = 0.10388E-01    rms(broyden)= 0.10388E-01
  rms(prec ) = 0.20308E-01
  weight for this iteration     100.00

 eigenvalues of (default mixing * dielectric matrix)
  average eigenvalue GAMMA=   1.5065
  0.9653  2.0477

 Free energy of the ion-electron system (eV)
  ---------------------------------------------------
  alpha Z        PSCENC =        93.00952424
  Ewald energy   TEWEN  =      -981.66128942
  -Hartree energ DENC   =       -70.25971361
  -exchange      EXHF   =         0.00000000
  -V(xc)+E(xc)   XCENC  =      -118.52046193
  PAW double counting   =      2876.96944653    -2699.10447402
  entropy T*S    EENTRO =         0.00000000
  eigenvalues    EBANDS =       -46.54463562
  atomic energy  EATOM  =       916.21963040
  Solvation  Ediel_sol  =         0.00000000
  ---------------------------------------------------
  free energy    TOTEN  =       -29.89197344 eV

  energy without entropy =      -29.89197344  energy(sigma->0) =      -29.89197344


--------------------------------------------------------------------------------------------------------




--------------------------------------- Iteration      1(   4)  ---------------------------------------


    POTLOK:  cpu time      0.0141: real time      0.0147
    SETDIJ:  cpu time      0.0018: real time      0.0019
     EDDAV:  cpu time      0.2250: real time      0.2360
 BZINTS: Fermi energy:    4.727058;   32.000000 electrons
         Band energy:-0.463713E+02;  BLOECHL correction:    0.000000
       DOS:  cpu time      0.0004: real time      0.0004
    CHARGE:  cpu time      0.0121: real time      0.0123
    MIXING:  cpu time      0.0006: real time      0.0006
    --------------------------------------------
      LOOP:  cpu time      0.2541: real time      0.2658

 eigenvalue-minimisations  :   496
 total energy-change (2. order) : 0.3313734E-03  (-0.1440116E-03)
 number of electron      31.9999982 magnetization 
 augmentation part       -5.2828082 magnetization 

 Broyden mixing:
  rms(total) = 0.57870E-02    rms(broyden)= 0.57870E-02
  rms(prec ) = 0.89695E-02
  weight for this iteration     100.00

 eigenvalues of (default mixing * dielectric matrix)
  average eigenvalue GAMMA=   1.6476
  2.2707  1.3361  1.3361

 Free energy of the ion-electron system (eV)
  ---------------------------------------------------
  alpha Z        PSCENC =        93.00952424
  Ewald energy   TEWEN  =      -981.66128942
  -Hartree energ DENC   =       -70.43309932
  -exchange      EXHF   =         0.00000000
  -V(xc)+E(xc)   XCENC  =      -118.50953760
  PAW double counting   =      2871.10510531    -2693.25064155
  entropy T*S    EENTRO =         0.00000000
  eigenvalues    EBANDS =       -46.37133412
  atomic energy  EATOM  =       916.21963040
  Solvation  Ediel_sol  =         0.00000000
  ---------------------------------------------------
  free energy    TOTEN  =       -29.89164207 eV

  energy without entropy =      -29.89164207  energy(sigma->0) =      -29.89164207


--------------------------------------------------------------------------------------------------------




--------------------------------------- Iteration      1(   5)  ---------------------------------------


    POTLOK:  cpu time      0.0133: real time      0.0137
    SETDIJ:  cpu time      0.0018: real time      0.0019
     EDDAV:  cpu time      0.1827: real time      0.1916
 BZINTS: Fermi energy:    4.725451;   32.000000 electrons
         Band energy:-0.464129E+02;  BLOECHL correction:    0.000000
       DOS:  cpu time      0.0004: real time      0.0004
    --------------------------------------------
      LOOP:  cpu time      0.1982: real time      0.2076

 eigenvalue-minimisations  :   328
 total energy-change (2. order) : 0.5052778E-04  (-0.2050638E-04)
 number of electron      31.9999982 magnetization 
 augmentation part       -5.2828082 magnetization 

 Free energy of the ion-electron system (eV)
  ---------------------------------------------------
  alpha Z        PSCENC =        93.00952424
  Ewald energy   TEWEN  =      -981.66128942
  -Hartree energ DENC   =       -70.40248454
  -exchange      EXHF   =         0.00000000
  -V(xc)+E(xc)   XCENC  =      -118.49535664
  PAW double counting   =      2878.76588998    -2700.91461993
  entropy T*S    EENTRO =         0.00000000
  eigenvalues    EBANDS =       -46.41288563
  atomic energy  EATOM  =       916.21963040
  Solvation  Ediel_sol  =         0.00000000
  ---------------------------------------------------
  free energy    TOTEN  =       -29.89159154 eV

  energy without entropy =      -29.89159154  energy(sigma->0) =      -29.89159154


--------------------------------------------------------------------------------------------------------




 average (electrostatic) potential at core
  the test charge radii are     1.0621  1.2767
  (the norm of the test charge is              1.0000)
       1 -49.8510       2 -49.8510       3 -49.8510       4 -49.8510       5 -12.9329
       6 -12.9329       7 -12.9329       8 -12.9329
 
 
 
 E-fermi :   4.7255     XC(G=0): -10.0520     alpha+bet :-10.5140

 val. band max:        4.6737920270   @ k =   0.0000   0.0000   0.0000
 cond. band min:       5.6637387568   @ k =   0.0000   0.0000   0.0000
 fundamental gap:      0.9899467297
 Fermi energy:         4.7254509634

 k-point     1 :       0.0000    0.0000    0.0000
  band No.  band energies     occupation 
      1      -9.7324      2.00000
      2      -6.4661      2.00000
      3      -6.4661      2.00000
      4      -6.4661      2.00000
      5      -3.2085      2.00000
      6      -3.2085      2.00000
      7      -3.2085      2.00000
      8       1.1785      2.00000
      9       1.1785      2.00000
     10       1.1785      2.00000
     11       1.1785      2.00000
     12       1.1785      2.00000
     13       1.1785      2.00000
     14       4.6738      2.00000
     15       4.6738      2.00000
     16       4.6738      2.00000
     17       5.6637      0.00000
     18       5.6637      0.00000
     19       5.6637      0.00000
     20       6.1410      0.00000
     21       6.1410      0.00000
     22       6.1410      0.00000
     23       6.9083      0.00000
     24       8.4515      0.00000

 k-point     2 :       0.2000    0.0000    0.0000
  band No.  band energies     occupation 
      1      -9.5490      2.00000
      2      -7.1052      2.00000
      3      -6.4342      2.00000
      4      -6.4342      2.00000
      5      -3.1121      2.00000
      6      -3.1121      2.00000
      7      -2.3253      2.00000
      8       0.7278      2.00000
      9       0.7278      2.00000
     10       0.7946      2.00000
     11       0.7946      2.00000
     12       1.3831      2.00000
     13       1.3831      2.00000
     14       3.3653      2.00000
     15       4.0264      2.00000
     16       4.0264      2.00000
     17       5.7235      0.00000
     18       6.5855      0.00000
     19       6.5855      0.00000
     20       6.5890      0.00000
     21       7.0722      0.00000
     22       7.0722      0.00000
     23       7.8305      0.00000
     24       8.1762      0.00000

 k-point     3 :       0.4000    0.0000    0.0000
  band No.  band energies     occupation 
      1      -9.0083      2.00000
      2      -8.1490      2.00000
      3      -6.3808      2.00000
      4      -6.3808      2.00000
      5      -2.9277      2.00000
      6      -2.9277      2.00000
      7      -0.5755      2.00000
      8       0.1019      2.00000
      9       0.1019      2.00000
     10       0.3061      2.00000
     11       0.3061      2.00000
     12       1.3928      2.00000
     13       1.9820      2.00000
     14       1.9820      2.00000
     15       2.9195      2.00000
     16       2.9195      2.00000
     17       6.1134      0.00000
     18       6.8762      0.00000
     19       7.6751      0.00000
     20       8.6508      0.00000
     21       8.6508      0.00000
     22       8.8601      0.00000
     23       9.2057      0.00000
     24       9.2057      0.00000

 k-point     4 :       0.2000    0.2000    0.0000
  band No.  band energies     occupation 
      1      -9.3689      2.00000
      2      -7.0153      2.00000
      3      -7.0153      2.00000
      4      -6.4588      2.00000
      5      -3.0229      2.00000
      6      -2.3779      2.00000
      7      -2.3779      2.00000
      8      -0.1404      2.00000
      9       0.8305      2.00000
     10       0.8305      2.00000
     11       1.2060      2.00000
     12       1.2060      2.00000
     13       1.5242      2.00000
     14       2.1246      2.00000
     15       3.3645      2.00000
     16       4.4556      2.00000
     17       6.2221      0.00000
     18       6.6973      0.00000
     19       6.6973      0.00000
     20       7.4318      0.00000
     21       7.4318      0.00000
     22       7.8737      0.00000
     23       8.6353      0.00000
     24       8.8292      0.00000

 k-point     5 :       0.4000    0.2000    0.0000
  band No.  band energies     occupation 
      1      -8.8394      2.00000
      2      -8.0057      2.00000
      3      -6.7945      2.00000
      4      -6.5729      2.00000
      5      -2.8076      2.00000
      6      -2.5580      2.00000
      7      -0.9622      2.00000
      8      -0.4554      2.00000
      9      -0.0310      2.00000
     10       0.5633      2.00000
     11       1.1349      2.00000
     12       1.3581      2.00000
     13       1.4303      2.00000
     14       2.1803      2.00000
     15       2.2602      2.00000
     16       3.5073      2.00000
     17       7.1276      0.00000
     18       7.4780      0.00000
     19       7.8760      0.00000
     20       8.3533      0.00000
     21       8.7748      0.00000
     22       8.7831      0.00000
     23       9.4449      0.00000
     24      10.0671      0.00000

 k-point     6 :       0.4000    0.4000    0.0000
  band No.  band energies     occupation 
      1      -8.3499      2.00000
      2      -7.6064      2.00000
      3      -7.6064      2.00000
      4      -7.0589      2.00000
      5      -2.4079      2.00000
      6      -1.7291      2.00000
      7      -1.7291      2.00000
      8      -0.6557      2.00000
      9      -0.3495      2.00000
     10       0.3503      2.00000
     11       0.3503      2.00000
     12       1.1826      2.00000
     13       2.4645      2.00000
     14       2.5367      2.00000
     15       2.5367      2.00000
     16       3.6446      2.00000
     17       7.1959      0.00000
     18       8.1575      0.00000
     19       8.5588      0.00000
     20       8.5588      0.00000
     21       9.4049      0.00000
     22       9.4049      0.00000
     23       9.9234      0.00000
     24      10.1387      0.00000

 k-point     7 :       0.2000    0.2000    0.2000
  band No.  band energies     occupation 
      1      -9.1928      2.00000
      2      -6.9621      2.00000
      3      -6.9621      2.00000
      4      -6.9621      2.00000
      5      -2.5204      2.00000
      6      -2.5204      2.00000
      7      -2.5204      2.00000
      8       0.3229      2.00000
      9       0.3229      2.00000
     10       0.3229      2.00000
     11       1.0350      2.00000
     12       1.7129      2.00000
     13       1.7129      2.00000
     14       1.7129      2.00000
     15       3.9919      2.00000
     16       3.9919      2.00000
     17       6.4531      0.00000
     18       6.4531      0.00000
     19       6.4531      0.00000
     20       7.0796      0.00000
     21       8.8589      0.00000
     22       8.8589      0.00000
     23       8.8589      0.00000
     24       9.3217      0.00000

 k-point     8 :       0.4000    0.2000    0.2000
  band No.  band energies     occupation 
      1      -8.6779      2.00000
      2      -7.8786      2.00000
      3      -6.8696      2.00000
      4      -6.8696      2.00000
      5      -2.7801      2.00000
      6      -2.7801      2.00000
      7      -1.5325      2.00000
      8      -0.3463      2.00000
      9       0.1487      2.00000
     10       0.1487      2.00000
     11       1.5767      2.00000
     12       1.7205      2.00000
     13       1.7205      2.00000
     14       2.2587      2.00000
     15       3.0864      2.00000
     16       3.1490      2.00000
     17       7.0855      0.00000
     18       7.5461      0.00000
     19       7.6836      0.00000
     20       7.6836      0.00000
     21       8.9435      0.00000
     22       9.4184      0.00000
     23       9.9787      0.00000
     24       9.9787      0.00000

 k-point     9 :       0.4000    0.4000    0.2000
  band No.  band energies     occupation 
      1      -8.2159      2.00000
      2      -7.5407      2.00000
      3      -7.5407      2.00000
      4      -7.1372      2.00000
      5      -2.8643      2.00000
      6      -2.3897      2.00000
      7      -2.3897      2.00000
      8      -1.5336      2.00000
      9       0.6207      2.00000
     10       1.2376      2.00000
     11       1.2376      2.00000
     12       2.2426      2.00000
     13       2.5839      2.00000
     14       2.6302      2.00000
     15       2.6302      2.00000
     16       3.5533      2.00000
     17       7.3461      0.00000
     18       7.4055      0.00000
     19       8.0163      0.00000
     20       8.0163      0.00000
     21       8.8813      0.00000
     22       8.8813      0.00000
     23       9.5354      0.00000
     24       9.5870      0.00000

 k-point    10 :       0.4000    0.4000    0.4000
  band No.  band energies     occupation 
      1      -7.8573      2.00000
      2      -7.4240      2.00000
      3      -7.4240      2.00000
      4      -7.4240      2.00000
      5      -3.0824      2.00000
      6      -3.0824      2.00000
      7      -3.0824      2.00000
      8      -2.5750      2.00000
      9       2.2940      2.00000
     10       2.2940      2.00000
     11       2.2940      2.00000
     12       2.8987      2.00000
     13       2.8987      2.00000
     14       2.8987      2.00000
     15       3.2780      2.00000
     16       3.2780      2.00000
     17       6.4397      0.00000
     18       7.1638      0.00000
     19       7.1638      0.00000
     20       7.1638      0.00000
     21       9.0312      0.00000
     22       9.0312      0.00000
     23       9.0312      0.00000
     24       9.4172      0.00000


--------------------------------------------------------------------------------------------------------


 soft charge-density along one line, spin component           1
         0         1         2         3         4         5         6         7         8         9
 total charge-density along one line
 
 pseudopotential strength for first ion, spin component:           1
 23.215  27.745  -0.000  -0.000   0.000   0.000   0.000  -0.000
 27.745  33.166  -0.000  -0.000   0.000   0.000   0.000  -0.000
 -0.000  -0.000   5.483   0.000   0.000 -10.842  -0.000  -0.000
 -0.000  -0.000   0.000   5.483   0.000  -0.000 -10.842  -0.000
  0.000   0.000   0.000   0.000   5.483  -0.000  -0.000 -10.842
  0.000   0.000 -10.842  -0.000  -0.000  21.993   0.000   0.000
  0.000   0.000  -0.000 -10.842  -0.000   0.000  21.993   0.000
 -0.000  -0.000  -0.000  -0.000 -10.842   0.000   0.000  21.993
  0.000   0.000   0.000   0.004  -0.000  -0.000  -0.007   0.000
  0.000   0.000  -0.000  -0.000   0.004   0.000   0.000  -0.007
  0.000   0.000   0.000  -0.000  -0.000  -0.000   0.000   0.000
  0.000   0.000   0.004   0.000  -0.000  -0.007  -0.000   0.000
 -0.000  -0.000   0.000  -0.000   0.000  -0.000   0.000  -0.000
 total augmentation occupancy for first ion, spin component:           1
  6.748  -3.226   0.000   0.000  -0.000   0.000   0.000   0.000   0.000  -0.000  -0.000   0.000   0.000
 -3.226   1.895  -0.000  -0.000   0.000   0.000  -0.000   0.000   0.000   0.000   0.000  -0.000   0.000
  0.000  -0.000   1.659  -0.000  -0.000   0.073   0.000   0.000   0.000  -0.000   0.000   0.122   0.000
  0.000  -0.000  -0.000   1.659   0.000  -0.000   0.073   0.000   0.122  -0.000   0.000   0.000  -0.000
 -0.000   0.000  -0.000   0.000   1.659  -0.000   0.000   0.073  -0.000   0.122   0.000  -0.000  -0.000
 -0.000  -0.000   0.073   0.000  -0.000   0.004  -0.000   0.000  -0.000   0.000  -0.000   0.006  -0.000
 -0.000   0.000   0.000   0.073   0.000   0.000   0.004  -0.000   0.006   0.000   0.000   0.000   0.000
  0.000   0.000   0.000   0.000   0.073  -0.000  -0.000   0.004  -0.000   0.006  -0.000   0.000   0.000
  0.000   0.000   0.000   0.122   0.000  -0.000   0.006  -0.000   0.020  -0.000   0.000  -0.000   0.000
 -0.000   0.000  -0.000   0.000   0.122   0.000  -0.000   0.006  -0.000   0.020   0.000  -0.000  -0.000
 -0.000   0.000   0.000  -0.000   0.000  -0.000  -0.000   0.000   0.000   0.000   0.008   0.000  -0.000
  0.000  -0.000   0.122   0.000  -0.000   0.006   0.000  -0.000   0.000   0.000   0.000   0.020  -0.000
  0.000   0.000   0.000  -0.000   0.000  -0.000   0.000  -0.000  -0.000  -0.000  -0.000   0.000   0.008


------------------------ aborting loop because EDIFF is reached ----------------------------------------


    CHARGE:  cpu time      0.0125: real time      0.0127
    FORLOC:  cpu time      0.0010: real time      0.0010
    FORNL :  cpu time      0.0482: real time      0.0485
    STRESS:  cpu time      0.2726: real time      0.2743
    FORCOR:  cpu time      0.0133: real time      0.0137
    FORHAR:  cpu time      0.0035: real time      0.0038
    MIXING:  cpu time      0.0005: real time      0.0005
    OFIELD:  cpu time      0.0000: real time      0.0000

  FORCE on cell =-STRESS in cart. coord.  units (eV):
  Direction    XX          YY          ZZ          XY          YZ          ZX
  --------------------------------------------------------------------------------------
  Alpha Z    93.00952    93.00952    93.00952
  Ewald    -327.22095  -327.22095  -327.22095     0.00000     0.00000     0.00000
  Hartree    23.47126    23.47126    23.47126    -0.00000    -0.00000    -0.00000
  E(xc)    -126.93817  -126.93817  -126.93817    -0.00000     0.00000    -0.00000
  Local    -117.25269  -117.25269  -117.25269    -0.00000    -0.00000    -0.00000
  n-local   195.33941   197.14132   194.14450    -2.08245    -1.16388    -0.97044
  augment     9.00342     9.00342     9.00342    -0.00000     0.00000     0.00000
  Kinetic   270.75682   282.38686   280.88995    -4.78869    -4.75794    -3.06443
  Fock        0.00000     0.00000     0.00000     0.00000     0.00000     0.00000
  -------------------------------------------------------------------------------------
  Total      27.62535    27.62535    27.62535    -0.00000    -0.00000     0.00000
  in kB     300.84129   300.84129   300.84129    -0.00000    -0.00000     0.00000
  external pressure =      300.84 kB  Pullay stress =        0.00 kB


 VOLUME and BASIS-vectors are now :
 -----------------------------------------------------------------------------
  energy-cutoff  :      500.00
  volume of cell :      147.12
      direct lattice vectors                 reciprocal lattice vectors
     5.279105237  0.000000000  0.000000000     0.189426040  0.000000000  0.000000000
     0.000000000  5.279105237  0.000000000     0.000000000  0.189426040  0.000000000
     0.000000000  0.000000000  5.279105237     0.000000000  0.000000000  0.189426040

  length of vectors
     5.279105237  5.279105237  5.279105237     0.189426040  0.189426040  0.189426040


 FORCES acting on ions
    electron-ion (+dipol)            ewald-force                    non-local-force                 convergence-correction
 -----------------------------------------------------------------------------------------------
   -.210E-14 -.492E-14 0.538E-14   0.142E-13 0.355E-14 0.000E+00   0.329E-16 0.104E-17 0.370E-16   -.209E-14 0.427E-15 -.118E-13
   0.160E-13 0.288E-12 -.229E-12   0.142E-13 0.000E+00 0.000E+00   0.196E-16 0.257E-17 0.232E-16   0.805E-15 -.570E-14 -.116E-13
   0.197E-13 -.351E-14 -.954E-14   0.142E-13 0.355E-14 0.000E+00   -.123E-16 0.130E-17 0.232E-16   0.269E-15 0.332E-15 0.291E-14
   -.108E-13 0.160E-13 0.174E-13   0.107E-13 0.000E+00 0.000E+00   0.573E-17 0.288E-17 0.516E-16   -.180E-14 -.557E-14 0.316E-14
   0.108E-13 -.447E-13 0.147E-13   -.147E-13 -.365E-14 -.391E-14   0.199E-17 0.153E-18 0.467E-17   -.673E-14 0.101E-14 -.131E-15
   0.748E-14 0.130E-12 0.148E-12   -.137E-13 -.366E-14 0.373E-14   0.371E-17 -.723E-18 0.296E-17   0.842E-14 0.110E-14 -.903E-15
   0.113E-13 0.154E-13 0.227E-12   -.144E-13 -.345E-14 -.377E-14   0.872E-17 -.353E-17 0.764E-19   0.832E-14 0.645E-15 -.328E-15
   0.223E-13 -.696E-14 0.115E-13   -.142E-13 -.346E-14 0.387E-14   0.440E-17 -.129E-18 0.129E-18   -.683E-14 0.634E-15 -.112E-14
 -----------------------------------------------------------------------------------------------
   0.747E-13 0.389E-12 0.186E-12   -.363E-14 -.712E-14 -.848E-16   0.648E-16 0.357E-17 0.143E-15   0.374E-15 -.713E-14 -.198E-13
 
 
 POSITION                                       TOTAL-FORCE (eV/Angst)
 -----------------------------------------------------------------------------------
      0.00000      0.00000      0.00000        -0.000000      0.000000      0.000000
      2.63955      2.63955      0.00000         0.000000      0.000000     -0.000000
      2.63955      0.00000      2.63955        -0.000000      0.000000      0.000000
      0.00000      2.63955      2.63955         0.000000      0.000000     -0.000000
      1.31978      1.31978      1.31978        -0.000000     -0.000000     -0.000000
      3.95933      1.31978      3.95933        -0.000000     -0.000000      0.000000
      3.95933      3.95933      1.31978         0.000000      0.000000     -0.000000
      1.31978      3.95933      3.95933        -0.000000     -0.000000      0.000000
 -----------------------------------------------------------------------------------
    total drift:                                0.000000      0.000000      0.000000


--------------------------------------------------------------------------------------------------------



  FREE ENERGIE OF THE ION-ELECTRON SYSTEM (eV)
  ---------------------------------------------------
  free  energy   TOTEN  =       -29.89159154 eV

  energy  without entropy=      -29.89159154  energy(sigma->0) =      -29.89159154
 


--------------------------------------------------------------------------------------------------------


    POTLOK:  cpu time      0.0152: real time      0.0155


--------------------------------------------------------------------------------------------------------


 writing wavefunctions
     LOOP+:  cpu time      1.8093: real time      1.9033


--------------------------------------------------------------------------------------------------------



 plasma frequency squared (from intraband transitions) (eV^2)
  --------------------------------------------------------------------------------------
       0.000       0.000       0.000
       0.000       0.000       0.000
       0.000       0.000       0.000

 electrical conductivity sigma (Mega S m-1) (frequency dependency in vasprun.xml)
  --------------------------------------------------------------------------------------
       0.000       0.000       0.000
       0.000       0.000       0.000
       0.000       0.000       0.000

 plasma frequency squared (from interband transitions, int dw w eps(2)(w)) (eV^2)
  --------------------------------------------------------------------------------------
     234.749       0.000      -0.000       0.000      -0.000       0.000
      -0.000       0.000     234.749       0.000      -0.000       0.000
      -0.000       0.000      -0.000       0.000     234.749       0.000
  --------------------------------------------------------------------------------------
 sumrule: sum of plasma frequencies squared should yield (valence only):     299.911

 Anomalous Hall contribution (eV) 2/pi Imag((f_n-f_m)<u_m| d/dk_a u_n> <u_m| d/dk_b u_n>^*) 
  --------------------------------------------------------------------------------------
       0.000       0.000       0.000
       0.000       0.000       0.000
       0.000       0.000       0.000

  frequency dependent IMAGINARY DIELECTRIC FUNCTION (independent particle, no local field effects) density-density
     E(ev)      X         Y         Z        XY        YZ        ZX
  --------------------------------------------------------------------------------------------------------------
    0.000000    0.000000    0.000000    0.000000    0.000000    0.000000    0.000000
    0.023869    0.002047    0.002047    0.002047   -0.000000   -0.000000   -0.000000
    0.047738    0.004095    0.004095    0.004095   -0.000000   -0.000000   -0.000000
    0.071607    0.006145    0.006145    0.006145   -0.000000   -0.000000   -0.000000
    0.095476    0.008197    0.008197    0.008197   -0.000000   -0.000000   -0.000000
    0.119346    0.010253    0.010253    0.010253   -0.000000   -0.000000   -0.000000
    0.143215    0.012313    0.012313    0.012313   -0.000000   -0.000000   -0.000000
    0.167084    0.014378    0.014378    0.014378   -0.000000   -0.000000   -0.000000
    0.190953    0.016449    0.016449    0.016449   -0.000000   -0.000000   -0.000000
    0.214822    0.018527    0.018527    0.018527   -0.000000   -0.000000   -0.000000
    0.238691    0.020613    0.020613    0.020613   -0.000000   -0.000000   -0.000000
    0.262560    0.022708    0.022708    0.022708   -0.000000   -0.000000   -0.000000
    0.286429    0.024812    0.024812    0.024812   -0.000000   -0.000000   -0.000000
    0.310299    0.026927    0.026927    0.026927   -0.000000   -0.000000   -0.000000
    0.334168    0.029053    0.029053    0.029053   -0.000000   -0.000000   -0.000000
    0.358037    0.031192    0.031192    0.031192   -0.000000   -0.000000   -0.000000
    0.381906    0.033344    0.033344    0.033344   -0.000000   -0.000000   -0.000000
    0.405775    0.035511    0.035511    0.035511   -0.000000   -0.000000   -0.000000
    0.429644    0.037693    0.037693    0.037693   -0.000000   -0.000000   -0.000000
    0.453513    0.039892    0.039892    0.039892   -0.000000   -0.000000   -0.000000
    0.477382    0.042108    0.042108    0.042108   -0.000000   -0.000000   -0.000000
    0.501252    0.044343    0.044343    0.044343   -0.000000   -0.000000   -0.000000
    0.525121    0.046598    0.046598    0.046598   -0.000000   -0.000000   -0.000000
    0.548990    0.048874    0.048874    0.048874   -0.000000   -0.000000   -0.000000
    0.572859    0.051172    0.051172    0.051172   -0.000000   -0.000000   -0.000000
    0.596728    0.053493    0.053493    0.053493   -0.000000   -0.000000   -0.000000
    0.620597    0.055840    0.055840    0.055840   -0.000000   -0.000000   -0.000000
    0.644466    0.058212    0.058212    0.058212   -0.000000   -0.000000   -0.000000
    0.668335    0.060612    0.060612    0.060612   -0.000000   -0.000000   -0.000000
    0.692204    0.063041    0.063041    0.063041   -0.000000   -0.000000   -0.000000
    0.716074    0.065500    0.065500    0.065500   -0.000000   -0.000000   -0.000000
    0.739943    0.067991    0.067991    0.067991   -0.000000   -0.000000   -0.000000
    0.763812    0.070516    0.070516    0.070516   -0.000000   -0.000000   -0.000000
    0.787681    0.073077    0.073077    0.073077   -0.000000   -0.000000   -0.000000
    0.811550    0.075674    0.075674    0.075674   -0.000000   -0.000000   -0.000000
    0.835419    0.078310    0.078310    0.078310   -0.000000   -0.000000   -0.000000
    0.859288    0.080988    0.080988    0.080988   -0.000000   -0.000000   -0.000000
    0.883157    0.083708    0.083708    0.083708   -0.000000   -0.000000   -0.000000
    0.907027    0.086475    0.086475    0.086475   -0.000000   -0.000000   -0.000000
    0.930896    0.089289    0.089289    0.089289   -0.000000   -0.000000   -0.000000
    0.954765    0.092154    0.092154    0.092154   -0.000000   -0.000000   -0.000000
    0.978634    0.095073    0.095073    0.095073   -0.000000   -0.000000   -0.000000
    1.002503    0.098049    0.098049    0.098049   -0.000000   -0.000000   -0.000000
    1.026372    0.101086    0.101086    0.101086   -0.000000   -0.000000   -0.000000
    1.050241    0.104186    0.104186    0.104186   -0.000000   -0.000000   -0.000000
    1.074110    0.107354    0.107354    0.107354   -0.000000   -0.000000   -0.000000
    1.097980    0.110593    0.110593    0.110593   -0.000000   -0.000000   -0.000000
    1.121849    0.113907    0.113907    0.113907   -0.000000   -0.000000   -0.000000
    1.145718    0.117301    0.117301    0.117301   -0.000000   -0.000000   -0.000000
    1.169587    0.120778    0.120778    0.120778   -0.000000   -0.000000   -0.000000
    1.193456    0.124344    0.124344    0.124344   -0.000000   -0.000000   -0.000000
    1.217325    0.128004    0.128004    0.128004   -0.000000   -0.000000   -0.000000
    1.241194    0.131763    0.131763    0.131763   -0.000000   -0.000000   -0.000000
    1.265063    0.135627    0.135627    0.135627   -0.000000   -0.000000   -0.000000
    1.288932    0.139605    0.139605    0.139605   -0.000000   -0.000000   -0.000000
    1.312802    0.143703    0.143703    0.143703   -0.000000   -0.000000   -0.000000
    1.336671    0.147933    0.147933    0.147933   -0.000000   -0.000000   -0.000000
    1.360540    0.152304    0.152304    0.152304   -0.000000   -0.000000   -0.000000
    1.384409    0.156831    0.156831    0.156831   -0.000000   -0.000000   -0.000000
    1.408278    0.161530    0.161530    0.161530   -0.000000   -0.000000   -0.000000
    1.432147    0.166421    0.166421    0.166421   -0.000000   -0.000000   -0.000000
    1.456016    0.171527    0.171527    0.171527   -0.000000   -0.000000   -0.000000
    1.479885    0.176875    0.176875    0.176875   -0.000000   -0.000000   -0.000000
    1.503755    0.182493    0.182493    0.182493   -0.000000   -0.000000   -0.000000
    1.527624    0.188409    0.188409    0.188409   -0.000000   -0.000000   -0.000000
    1.551493    0.194648    0.194648    0.194648   -0.000000   -0.000000   -0.000000
    1.575362    0.201230    0.201230    0.201230   -0.000000   -0.000000   -0.000000
    1.599231    0.208175    0.208175    0.208175   -0.000000   -0.000000   -0.000000
    1.623100    0.215501    0.215501    0.215501   -0.000000   -0.000000   -0.000000
    1.646969    0.223221    0.223221    0.223221   -0.000000   -0.000000   -0.000000
    1.670838    0.231352    0.231352    0.231352   -0.000000   -0.000000   -0.000000
    1.694708    0.239906    0.239906    0.239906   -0.000000   -0.000000   -0.000000
    1.718577    0.248900    0.248900    0.248900   -0.000000   -0.000000   -0.000000
    1.742446    0.258347    0.258347    0.258347   -0.000000   -0.000000   -0.000000
    1.766315    0.268261    0.268261    0.268261   -0.000000   -0.000000   -0.000000
    1.790184    0.278661    0.278661    0.278661   -0.000000   -0.000000   -0.000000
    1.814053    0.289562    0.289562    0.289562   -0.000000   -0.000000   -0.000000
    1.837922    0.300983    0.300983    0.300983   -0.000000   -0.000000   -0.000000
    1.861791    0.312945    0.312945    0.312945   -0.000000   -0.000000   -0.000000
    1.885661    0.325471    0.325471    0.325471   -0.000000    0.000000   -0.000000
    1.909530    0.338587    0.338587    0.338587   -0.000000    0.000000   -0.000000
    1.933399    0.352321    0.352321    0.352321   -0.000000    0.000000   -0.000000
    1.957268    0.366707    0.366707    0.366707   -0.000000    0.000000   -0.000000
    1.981137    0.381785    0.381785    0.381785   -0.000000    0.000000   -0.000000
    2.005006    0.397599    0.397599    0.397599   -0.000000    0.000000   -0.000000
    2.028875    0.414206    0.414206    0.414206   -0.000000    0.000000   -0.000000
    2.052744    0.431670    0.431670    0.431670   -0.000000    0.000000   -0.000000
    2.076613    0.450074    0.450074    0.450074   -0.000000    0.000000   -0.000000
    2.100483    0.469520    0.469520    0.469520   -0.000000    0.000000   -0.000000
    2.124352    0.490136    0.490136    0.490136   -0.000000   -0.000000   -0.000000
    2.148221    0.512088    0.512088    0.512088   -0.000000   -0.000000   -0.000000
    2.172090    0.535586    0.535586    0.535586   -0.000000   -0.000000   -0.000000
    2.195959    0.560890    0.560890    0.560890    0.000000   -0.000000   -0.000000
    2.219828    0.588300    0.588300    0.588300    0.000000   -0.000000   -0.000000
    2.243697    0.618112    0.618112    0.618112    0.000000   -0.000000   -0.000000
    2.267566    0.650558    0.650558    0.650558   -0.000000   -0.000000   -0.000000
    2.291436    0.685754    0.685754    0.685754   -0.000000   -0.000000   -0.000000
    2.315305    0.723728    0.723728    0.723728   -0.000000    0.000000   -0.000000
    2.339174    0.764460    0.764460    0.764460   -0.000000    0.000000   -0.000000
    2.363043    0.807919    0.807919    0.807919   -0.000000    0.000000   -0.000000
    2.386912    0.854079    0.854079    0.854079   -0.000000    0.000000   -0.000000
    2.410781    0.902914    0.902914    0.902914   -0.000000    0.000000   -0.000000
    2.434650    0.954400    0.954400    0.954400   -0.000000    0.000000   -0.000000
    2.458519    1.008517    1.008517    1.008517   -0.000000    0.000000   -0.000000
    2.482389    1.065268    1.065268    1.065268   -0.000000    0.000000   -0.000000
    2.506258    1.124704    1.124704    1.124704   -0.000000    0.000000   -0.000000
    2.530127    1.186956    1.186956    1.186956   -0.000000    0.000000   -0.000000
    2.553996    1.252250    1.252250    1.252250   -0.000000    0.000000   -0.000000
    2.577865    1.320894    1.320894    1.320894   -0.000000    0.000000   -0.000000
    2.601734    1.393245    1.393245    1.393245   -0.000000    0.000000   -0.000000
    2.625603    1.469659    1.469659    1.469659   -0.000000    0.000000   -0.000000
    2.649472    1.550468    1.550468    1.550468   -0.000000    0.000000   -0.000000
    2.673341    1.635965    1.635965    1.635965   -0.000000    0.000000   -0.000000
    2.697211    1.726415    1.726415    1.726415   -0.000000    0.000000   -0.000000
    2.721080    1.822065    1.822065    1.822065   -0.000000    0.000000   -0.000000
    2.744949    1.923156    1.923156    1.923156   -0.000000    0.000000   -0.000000
    2.768818    2.029937    2.029937    2.029937   -0.000000    0.000000   -0.000000
    2.792687    2.142676    2.142676    2.142676   -0.000000    0.000000   -0.000000
    2.816556    2.261668    2.261668    2.261668   -0.000000    0.000000   -0.000000
    2.840425    2.387255    2.387255    2.387255   -0.000000    0.000000    0.000000
    2.864294    2.519848    2.519848    2.519848   -0.000000    0.000000    0.000000
    2.888164    2.659975    2.659975    2.659975   -0.000000    0.000000    0.000000
    2.912033    2.808407    2.808407    2.808407   -0.000000    0.000000    0.000000
    2.935902    2.966456    2.966456    2.966456   -0.000000    0.000000    0.000000
    2.959771    3.136608    3.136608    3.136608   -0.000000    0.000000    0.000000
    2.983640    3.323541    3.323541    3.323541   -0.000000   -0.000000    0.000000
    3.007509    3.535062    3.535062    3.535062   -0.000000   -0.000000    0.000000
    3.031378    3.782085    3.782085    3.782085   -0.000000   -0.000000    0.000000
    3.055247    4.077184    4.077184    4.077184   -0.000000   -0.000000    0.000000
    3.079117    4.431793    4.431793    4.431793   -0.000000   -0.000000    0.000000
    3.102986    4.850602    4.850602    4.850602   -0.000000   -0.000000    0.000000
    3.126855    5.319155    5.319155    5.319155   -0.000000   -0.000000    0.000000
    3.150724    5.786470    5.786470    5.786470   -0.000000   -0.000000    0.000000
    3.174593    6.170367    6.170367    6.170367   -0.000000   -0.000000    0.000000
    3.198462    6.416227    6.416227    6.416227   -0.000000   -0.000000   -0.000000
    3.222331    6.547026    6.547026    6.547026   -0.000000   -0.000000   -0.000000
    3.246200    6.626076    6.626076    6.626076   -0.000000   -0.000000   -0.000000
    3.270069    6.699547    6.699547    6.699547   -0.000000   -0.000000   -0.000000
    3.293939    6.785266    6.785266    6.785266   -0.000000   -0.000000   -0.000000
    3.317808    6.885567    6.885567    6.885567   -0.000000   -0.000000   -0.000000
    3.341677    6.998098    6.998098    6.998098   -0.000000   -0.000000   -0.000000
    3.365546    7.120563    7.120563    7.120563   -0.000000   -0.000000   -0.000000
    3.389415    7.252062    7.252062    7.252062   -0.000000   -0.000000   -0.000000
    3.413284    7.392957    7.392957    7.392957   -0.000000   -0.000000   -0.000000
    3.437153    7.544151    7.544151    7.544151   -0.000000   -0.000000   -0.000000
    3.461022    7.706417    7.706417    7.706417   -0.000000   -0.000000   -0.000000
    3.484892    7.880224    7.880224    7.880224   -0.000000   -0.000000   -0.000000
    3.508761    8.065881    8.065881    8.065881   -0.000000    0.000000   -0.000000
    3.532630    8.263533    8.263533    8.263533   -0.000000    0.000000   -0.000000
    3.556499    8.473073    8.473073    8.473073   -0.000000    0.000000   -0.000000
    3.580368    8.694506    8.694506    8.694506   -0.000000    0.000000    0.000000
    3.604237    8.928809    8.928809    8.928809   -0.000000   -0.000000    0.000000
    3.628106    9.178508    9.178508    9.178508   -0.000000   -0.000000    0.000000
    3.651975    9.447842    9.447842    9.447842   -0.000000   -0.000000    0.000000
    3.675845    9.742987    9.742987    9.742987   -0.000000   -0.000000    0.000000
    3.699714   10.072699   10.072699   10.072699   -0.000000   -0.000000   -0.000000
    3.723583   10.449458   10.449458   10.449458   -0.000000   -0.000000   -0.000000
    3.747452   10.891030   10.891030   10.891030   -0.000000   -0.000000   -0.000000
    3.771321   11.421028   11.421028   11.421028   -0.000000   -0.000000   -0.000000
    3.795190   12.063013   12.063013   12.063013   -0.000000   -0.000000   -0.000000
    3.819059   12.818372   12.818372   12.818372   -0.000000   -0.000000   -0.000000
    3.842928   13.630810   13.630810   13.630810   -0.000000   -0.000000   -0.000000
    3.866797   14.384482   14.384482   14.384482   -0.000000   -0.000000   -0.000000
    3.890667   14.987301   14.987301   14.987301   -0.000000   -0.000000   -0.000000
    3.914536   15.447678   15.447678   15.447678   -0.000000   -0.000000   -0.000000
    3.938405   15.821953   15.821953   15.821953   -0.000000   -0.000000   -0.000000
    3.962274   16.134958   16.134958   16.134958    0.000000   -0.000000   -0.000000
    3.986143   16.385992   16.385992   16.385992    0.000000   -0.000000   -0.000000
    4.010012   16.587190   16.587190   16.587190    0.000000   -0.000000   -0.000000
    4.033881   16.764324   16.764324   16.764324    0.000000    0.000000   -0.000000
    4.057750   16.939336   16.939336   16.939336    0.000000   -0.000000   -0.000000
    4.081620   17.125918   17.125918   17.125918    0.000000   -0.000000   -0.000000
    4.105489   17.333779   17.333779   17.333779    0.000000   -0.000000   -0.000000
    4.129358   17.572494   17.572494   17.572494    0.000000   -0.000000   -0.000000
    4.153227   17.853127   17.853127   17.853127    0.000000   -0.000000   -0.000000
    4.177096   18.187686   18.187686   18.187686    0.000000   -0.000000   -0.000000
    4.200965   18.584614   18.584614   18.584614    0.000000   -0.000000   -0.000000
    4.224834   19.036659   19.036659   19.036659    0.000000   -0.000000   -0.000000
    4.248703   19.503790   19.503790   19.503790    0.000000   -0.000000   -0.000000
    4.272573   19.918028   19.918028   19.918028    0.000000   -0.000000   -0.000000
    4.296442   20.238869   20.238869   20.238869   -0.000000   -0.000000   -0.000000
    4.320311   20.498950   20.498950   20.498950   -0.000000    0.000000   -0.000000
    4.344180   20.763654   20.763654   20.763654   -0.000000    0.000000   -0.000000
    4.368049   21.068553   21.068553   21.068553   -0.000000    0.000000   -0.000000
    4.391918   21.403989   21.403989   21.403989   -0.000000    0.000000   -0.000000
    4.415787   21.734959   21.734959   21.734959   -0.000000    0.000000   -0.000000
    4.439656   22.028334   22.028334   22.028334   -0.000000    0.000000   -0.000000
    4.463525   22.268891   22.268891   22.268891   -0.000000    0.000000   -0.000000
    4.487395   22.462872   22.462872   22.462872   -0.000000    0.000000   -0.000000
    4.511264   22.635743   22.635743   22.635743   -0.000000    0.000000   -0.000000
    4.535133   22.825389   22.825389   22.825389   -0.000000    0.000000   -0.000000
    4.559002   23.070992   23.070992   23.070992    0.000000    0.000000   -0.000000
    4.582871   23.404439   23.404439   23.404439    0.000000    0.000000   -0.000000
    4.606740   23.851008   23.851008   23.851008    0.000000   -0.000000   -0.000000
    4.630609   24.434098   24.434098   24.434098    0.000000   -0.000000   -0.000000
    4.654478   25.172880   25.172880   25.172880    0.000000   -0.000000   -0.000000
    4.678348   26.065490   26.065490   26.065490    0.000000   -0.000000   -0.000000
    4.702217   27.056513   27.056513   27.056513    0.000000   -0.000000   -0.000000
    4.726086   28.003282   28.003282   28.003282    0.000000   -0.000000   -0.000000
    4.749955   28.694303   28.694303   28.694303    0.000000   -0.000000   -0.000000
    4.773824   28.966738   28.966738   28.966738    0.000000   -0.000000   -0.000000
    4.797693   28.811827   28.811827   28.811827    0.000000   -0.000000   -0.000000
    4.821562   28.329177   28.329177   28.329177    0.000000   -0.000000   -0.000000
    4.845431   27.629322   27.629322   27.629322    0.000000   -0.000000   -0.000000
    4.869301   26.797143   26.797143   26.797143    0.000000   -0.000000   -0.000000
    4.893170   25.894932   25.894932   25.894932    0.000000   -0.000000   -0.000000
    4.917039   24.974259   24.974259   24.974259    0.000000   -0.000000   -0.000000
    4.940908   24.085941   24.085941   24.085941    0.000000   -0.000000   -0.000000
    4.964777   23.278671   23.278671   23.278671    0.000000   -0.000000    0.000000
    4.988646   22.587084   22.587084   22.587084    0.000000   -0.000000    0.000000
    5.012515   22.021205   22.021205   22.021205    0.000000   -0.000000    0.000000
    5.036384   21.569313   21.569313   21.569313    0.000000   -0.000000    0.000000
    5.060253   21.209779   21.209779   21.209779    0.000000   -0.000000    0.000000
[...]
   18.665652    0.276444    0.276444    0.276444    0.000000   -0.000000   -0.000000
   18.689521    0.278690    0.278690    0.278690    0.000000   -0.000000   -0.000000
   18.713390    0.280964    0.280964    0.280964    0.000000   -0.000000   -0.000000
   18.737259    0.283264    0.283264    0.283264    0.000000   -0.000000   -0.000000
   18.761129    0.285585    0.285585    0.285585    0.000000   -0.000000   -0.000000
   18.784998    0.287923    0.287923    0.287923    0.000000   -0.000000   -0.000000
   18.808867    0.290274    0.290274    0.290274    0.000000   -0.000000   -0.000000
   18.832736    0.292634    0.292634    0.292634    0.000000   -0.000000   -0.000000
   18.856605    0.294997    0.294997    0.294997    0.000000   -0.000000   -0.000000
   18.880474    0.297359    0.297359    0.297359    0.000000   -0.000000   -0.000000
   18.904343    0.299712    0.299712    0.299712    0.000000   -0.000000   -0.000000
   18.928212    0.302049    0.302049    0.302049    0.000000   -0.000000   -0.000000
   18.952082    0.304366    0.304366    0.304366    0.000000   -0.000000   -0.000000
   18.975951    0.306656    0.306656    0.306656    0.000000   -0.000000   -0.000000
   18.999820    0.308920    0.308920    0.308920    0.000000   -0.000000   -0.000000
   19.023689    0.311157    0.311157    0.311157    0.000000   -0.000000   -0.000000
   19.047558    0.313367    0.313367    0.313367    0.000000   -0.000000   -0.000000
   19.071427    0.315552    0.315552    0.315552    0.000000   -0.000000   -0.000000
   19.095296    0.317714    0.317714    0.317714    0.000000   -0.000000   -0.000000
   19.119165    0.319853    0.319853    0.319853    0.000000   -0.000000   -0.000000
   19.143034    0.321971    0.321971    0.321971    0.000000   -0.000000   -0.000000
   19.166904    0.324069    0.324069    0.324069    0.000000   -0.000000   -0.000000
   19.190773    0.326148    0.326148    0.326148    0.000000   -0.000000   -0.000000
   19.214642    0.328209    0.328209    0.328209    0.000000   -0.000000   -0.000000
   19.238511    0.330252    0.330252    0.330252    0.000000   -0.000000   -0.000000
   19.262380    0.332279    0.332279    0.332279    0.000000   -0.000000   -0.000000
   19.286249    0.334290    0.334290    0.334290    0.000000   -0.000000   -0.000000
   19.310118    0.336286    0.336286    0.336286    0.000000   -0.000000   -0.000000
   19.333987    0.338267    0.338267    0.338267    0.000000   -0.000000   -0.000000
   19.357857    0.340234    0.340234    0.340234    0.000000   -0.000000   -0.000000
   19.381726    0.342186    0.342186    0.342186    0.000000   -0.000000   -0.000000
   19.405595    0.344126    0.344126    0.344126    0.000000   -0.000000   -0.000000
   19.429464    0.346052    0.346052    0.346052    0.000000   -0.000000   -0.000000
   19.453333    0.347966    0.347966    0.347966    0.000000   -0.000000   -0.000000
   19.477202    0.349867    0.349867    0.349867    0.000000   -0.000000   -0.000000
   19.501071    0.351756    0.351756    0.351756    0.000000   -0.000000   -0.000000
   19.524940    0.353633    0.353633    0.353633    0.000000   -0.000000   -0.000000
   19.548810    0.355499    0.355499    0.355499    0.000000   -0.000000   -0.000000
   19.572679    0.357354    0.357354    0.357354    0.000000   -0.000000   -0.000000
   19.596548    0.359198    0.359198    0.359198    0.000000   -0.000000   -0.000000
   19.620417    0.361030    0.361030    0.361030    0.000000   -0.000000   -0.000000
   19.644286    0.362852    0.362852    0.362852    0.000000   -0.000000   -0.000000
   19.668155    0.364664    0.364664    0.364664    0.000000   -0.000000   -0.000000
   19.692024    0.366466    0.366466    0.366466    0.000000   -0.000000   -0.000000
   19.715893    0.368257    0.368257    0.368257    0.000000   -0.000000   -0.000000
   19.739762    0.370039    0.370039    0.370039    0.000000   -0.000000   -0.000000
   19.763632    0.371810    0.371810    0.371810    0.000000   -0.000000   -0.000000
   19.787501    0.373573    0.373573    0.373573    0.000000   -0.000000   -0.000000
   19.811370    0.375326    0.375326    0.375326    0.000000   -0.000000   -0.000000
   19.835239    0.377069    0.377069    0.377069    0.000000   -0.000000   -0.000000
   19.859108    0.378803    0.378803    0.378803    0.000000   -0.000000   -0.000000
   19.882977    0.380529    0.380529    0.380529    0.000000   -0.000000   -0.000000
   19.906846    0.382245    0.382245    0.382245    0.000000   -0.000000   -0.000000
   19.930715    0.383953    0.383953    0.383953    0.000000   -0.000000   -0.000000
   19.954585    0.385651    0.385651    0.385651    0.000000   -0.000000   -0.000000
   19.978454    0.387342    0.387342    0.387342    0.000000   -0.000000   -0.000000
   20.002323    0.389023    0.389023    0.389023    0.000000   -0.000000   -0.000000
   20.026192    0.390697    0.390697    0.390697    0.000000   -0.000000   -0.000000
   20.050061    0.392362    0.392362    0.392362    0.000000   -0.000000   -0.000000
   20.073930    0.394019    0.394019    0.394019    0.000000   -0.000000   -0.000000
   20.097799    0.395668    0.395668    0.395668    0.000000   -0.000000   -0.000000
   20.121668    0.397309    0.397309    0.397309    0.000000   -0.000000   -0.000000
   20.145538    0.398942    0.398942    0.398942    0.000000   -0.000000   -0.000000
   20.169407    0.400567    0.400567    0.400567    0.000000   -0.000000   -0.000000
   20.193276    0.402184    0.402184    0.402184    0.000000   -0.000000   -0.000000
   20.217145    0.403794    0.403794    0.403794    0.000000   -0.000000   -0.000000
   20.241014    0.405396    0.405396    0.405396    0.000000   -0.000000   -0.000000
   20.264883    0.406991    0.406991    0.406991    0.000000   -0.000000   -0.000000
   20.288752    0.408578    0.408578    0.408578    0.000000   -0.000000   -0.000000
   20.312621    0.410157    0.410157    0.410157    0.000000   -0.000000   -0.000000
   20.336490    0.411730    0.411730    0.411730    0.000000   -0.000000   -0.000000
   20.360360    0.413295    0.413295    0.413295    0.000000   -0.000000   -0.000000
   20.384229    0.414853    0.414853    0.414853    0.000000   -0.000000   -0.000000
   20.408098    0.416404    0.416404    0.416404    0.000000   -0.000000   -0.000000
   20.431967    0.417948    0.417948    0.417948    0.000000   -0.000000   -0.000000
   20.455836    0.419485    0.419485    0.419485    0.000000   -0.000000   -0.000000
   20.479705    0.421015    0.421015    0.421015    0.000000   -0.000000   -0.000000
   20.503574    0.422538    0.422538    0.422538    0.000000   -0.000000   -0.000000
   20.527443    0.424054    0.424054    0.424054    0.000000   -0.000000   -0.000000
   20.551313    0.425564    0.425564    0.425564    0.000000   -0.000000   -0.000000
   20.575182    0.427067    0.427067    0.427067    0.000000   -0.000000   -0.000000
   20.599051    0.428563    0.428563    0.428563    0.000000   -0.000000   -0.000000
   20.622920    0.430052    0.430052    0.430052    0.000000   -0.000000   -0.000000
   20.646789    0.431536    0.431536    0.431536    0.000000   -0.000000   -0.000000
   20.670658    0.433012    0.433012    0.433012    0.000000   -0.000000   -0.000000
   20.694527    0.434482    0.434482    0.434482    0.000000   -0.000000   -0.000000
   20.718396    0.435946    0.435946    0.435946    0.000000   -0.000000   -0.000000
   20.742266    0.437404    0.437404    0.437404    0.000000   -0.000000   -0.000000
   20.766135    0.438855    0.438855    0.438855    0.000000   -0.000000   -0.000000
   20.790004    0.440300    0.440300    0.440300    0.000000   -0.000000   -0.000000
   20.813873    0.441739    0.441739    0.441739    0.000000   -0.000000   -0.000000
   20.837742    0.443171    0.443171    0.443171    0.000000   -0.000000   -0.000000
   20.861611    0.444598    0.444598    0.444598    0.000000   -0.000000   -0.000000
   20.885480    0.446019    0.446019    0.446019    0.000000   -0.000000   -0.000000
   20.909349    0.447433    0.447433    0.447433    0.000000   -0.000000   -0.000000
   20.933218    0.448842    0.448842    0.448842    0.000000   -0.000000   -0.000000
   20.957088    0.450244    0.450244    0.450244    0.000000   -0.000000   -0.000000
   20.980957    0.451641    0.451641    0.451641    0.000000   -0.000000   -0.000000
   21.004826    0.453032    0.453032    0.453032    0.000000   -0.000000   -0.000000
   21.028695    0.454417    0.454417    0.454417    0.000000   -0.000000   -0.000000
   21.052564    0.455796    0.455796    0.455796    0.000000   -0.000000   -0.000000
   21.076433    0.457170    0.457170    0.457170    0.000000   -0.000000   -0.000000
   21.100302    0.458538    0.458538    0.458538    0.000000   -0.000000   -0.000000
   21.124171    0.459900    0.459900    0.459900    0.000000   -0.000000   -0.000000
   21.148041    0.461257    0.461257    0.461257    0.000000   -0.000000   -0.000000
   21.171910    0.462608    0.462608    0.462608    0.000000   -0.000000   -0.000000
   21.195779    0.463954    0.463954    0.463954    0.000000   -0.000000   -0.000000
   21.219648    0.465294    0.465294    0.465294    0.000000   -0.000000   -0.000000
   21.243517    0.466629    0.466629    0.466629    0.000000   -0.000000   -0.000000
   21.267386    0.467958    0.467958    0.467958    0.000000   -0.000000   -0.000000
   21.291255    0.469282    0.469282    0.469282    0.000000   -0.000000   -0.000000
   21.315124    0.470601    0.470601    0.470601    0.000000   -0.000000   -0.000000
   21.338994    0.471914    0.471914    0.471914    0.000000   -0.000000   -0.000000
   21.362863    0.473222    0.473222    0.473222    0.000000   -0.000000   -0.000000
   21.386732    0.474525    0.474525    0.474525    0.000000   -0.000000   -0.000000
   21.410601    0.475822    0.475822    0.475822    0.000000   -0.000000   -0.000000
   21.434470    0.477115    0.477115    0.477115    0.000000   -0.000000   -0.000000
   21.458339    0.478402    0.478402    0.478402    0.000000   -0.000000   -0.000000
   21.482208    0.479684    0.479684    0.479684    0.000000   -0.000000   -0.000000
   21.506077    0.480961    0.480961    0.480961    0.000000   -0.000000   -0.000000
   21.529946    0.482233    0.482233    0.482233    0.000000   -0.000000   -0.000000
   21.553816    0.483500    0.483500    0.483500    0.000000   -0.000000   -0.000000
   21.577685    0.484762    0.484762    0.484762    0.000000   -0.000000   -0.000000
   21.601554    0.486019    0.486019    0.486019    0.000000   -0.000000   -0.000000
   21.625423    0.487271    0.487271    0.487271    0.000000   -0.000000   -0.000000
   21.649292    0.488518    0.488518    0.488518    0.000000   -0.000000   -0.000000
   21.673161    0.489761    0.489761    0.489761    0.000000   -0.000000   -0.000000
   21.697030    0.490998    0.490998    0.490998    0.000000   -0.000000   -0.000000
   21.720899    0.492231    0.492231    0.492231    0.000000   -0.000000   -0.000000
   21.744769    0.493459    0.493459    0.493459    0.000000   -0.000000   -0.000000
   21.768638    0.494682    0.494682    0.494682    0.000000   -0.000000   -0.000000
   21.792507    0.495901    0.495901    0.495901    0.000000   -0.000000   -0.000000
   21.816376    0.497114    0.497114    0.497114    0.000000   -0.000000   -0.000000
   21.840245    0.498323    0.498323    0.498323    0.000000   -0.000000   -0.000000
   21.864114    0.499528    0.499528    0.499528    0.000000   -0.000000   -0.000000
   21.887983    0.500728    0.500728    0.500728    0.000000   -0.000000   -0.000000
   21.911852    0.501923    0.501923    0.501923    0.000000   -0.000000   -0.000000
   21.935722    0.503114    0.503114    0.503114    0.000000   -0.000000   -0.000000
   21.959591    0.504300    0.504300    0.504300    0.000000   -0.000000   -0.000000
   21.983460    0.505481    0.505481    0.505481    0.000000   -0.000000   -0.000000
   22.007329    0.506659    0.506659    0.506659    0.000000   -0.000000   -0.000000
   22.031198    0.507831    0.507831    0.507831    0.000000   -0.000000   -0.000000
   22.055067    0.509000    0.509000    0.509000    0.000000   -0.000000   -0.000000
   22.078936    0.510163    0.510163    0.510163    0.000000   -0.000000   -0.000000
   22.102805    0.511323    0.511323    0.511323    0.000000   -0.000000   -0.000000
   22.126675    0.512478    0.512478    0.512478    0.000000   -0.000000   -0.000000
   22.150544    0.513629    0.513629    0.513629    0.000000   -0.000000   -0.000000
   22.174413    0.514775    0.514775    0.514775    0.000000   -0.000000   -0.000000
   22.198282    0.515917    0.515917    0.515917    0.000000   -0.000000   -0.000000
   22.222151    0.517055    0.517055    0.517055    0.000000   -0.000000   -0.000000
   22.246020    0.518189    0.518189    0.518189    0.000000   -0.000000   -0.000000
   22.269889    0.519319    0.519319    0.519319    0.000000   -0.000000   -0.000000
   22.293758    0.520444    0.520444    0.520444    0.000000   -0.000000   -0.000000
   22.317627    0.521565    0.521565    0.521565    0.000000   -0.000000   -0.000000
   22.341497    0.522682    0.522682    0.522682    0.000000   -0.000000   -0.000000
   22.365366    0.523795    0.523795    0.523795    0.000000   -0.000000   -0.000000
   22.389235    0.524904    0.524904    0.524904    0.000000   -0.000000   -0.000000
   22.413104    0.526008    0.526008    0.526008    0.000000   -0.000000   -0.000000
   22.436973    0.527109    0.527109    0.527109    0.000000   -0.000000   -0.000000
   22.460842    0.528206    0.528206    0.528206    0.000000   -0.000000   -0.000000
   22.484711    0.529298    0.529298    0.529298    0.000000   -0.000000   -0.000000
   22.508580    0.530387    0.530387    0.530387    0.000000   -0.000000   -0.000000
   22.532450    0.531471    0.531471    0.531471    0.000000   -0.000000   -0.000000
   22.556319    0.532552    0.532552    0.532552    0.000000   -0.000000   -0.000000
   22.580188    0.533629    0.533629    0.533629    0.000000   -0.000000   -0.000000
   22.604057    0.534702    0.534702    0.534702    0.000000   -0.000000   -0.000000
   22.627926    0.535771    0.535771    0.535771    0.000000   -0.000000   -0.000000
   22.651795    0.536836    0.536836    0.536836    0.000000   -0.000000   -0.000000
   22.675664    0.537897    0.537897    0.537897    0.000000   -0.000000   -0.000000
   22.699533    0.538955    0.538955    0.538955    0.000000   -0.000000   -0.000000
   22.723403    0.540008    0.540008    0.540008    0.000000   -0.000000   -0.000000
   22.747272    0.541058    0.541058    0.541058    0.000000   -0.000000   -0.000000
   22.771141    0.542104    0.542104    0.542104    0.000000   -0.000000   -0.000000
   22.795010    0.543146    0.543146    0.543146    0.000000   -0.000000   -0.000000
   22.818879    0.544185    0.544185    0.544185    0.000000   -0.000000   -0.000000
   22.842748    0.545220    0.545220    0.545220    0.000000   -0.000000   -0.000000
   22.866617    0.546251    0.546251    0.546251    0.000000   -0.000000   -0.000000
   22.890486    0.547279    0.547279    0.547279    0.000000   -0.000000   -0.000000
   22.914355    0.548303    0.548303    0.548303    0.000000   -0.000000   -0.000000
   22.938225    0.549323    0.549323    0.549323    0.000000   -0.000000   -0.000000
   22.962094    0.550339    0.550339    0.550339    0.000000   -0.000000   -0.000000
   22.985963    0.551353    0.551353    0.551353    0.000000   -0.000000   -0.000000
   23.009832    0.552362    0.552362    0.552362    0.000000   -0.000000   -0.000000
   23.033701    0.553368    0.553368    0.553368    0.000000   -0.000000   -0.000000
   23.057570    0.554370    0.554370    0.554370    0.000000   -0.000000   -0.000000
   23.081439    0.555369    0.555369    0.555369    0.000000   -0.000000   -0.000000
   23.105308    0.556365    0.556365    0.556365    0.000000   -0.000000   -0.000000
   23.129178    0.557356    0.557356    0.557356    0.000000   -0.000000   -0.000000
   23.153047    0.558345    0.558345    0.558345    0.000000   -0.000000   -0.000000
   23.176916    0.559330    0.559330    0.559330    0.000000   -0.000000   -0.000000
   23.200785    0.560311    0.560311    0.560311    0.000000   -0.000000   -0.000000
   23.224654    0.561289    0.561289    0.561289    0.000000   -0.000000   -0.000000
   23.248523    0.562264    0.562264    0.562264    0.000000   -0.000000   -0.000000
   23.272392    0.563235    0.563235    0.563235    0.000000   -0.000000   -0.000000
   23.296261    0.564203    0.564203    0.564203    0.000000   -0.000000   -0.000000
   23.320131    0.565168    0.565168    0.565168    0.000000   -0.000000   -0.000000
   23.344000    0.566129    0.566129    0.566129    0.000000   -0.000000   -0.000000
   23.367869    0.567087    0.567087    0.567087    0.000000   -0.000000   -0.000000
   23.391738    0.568042    0.568042    0.568042    0.000000   -0.000000   -0.000000
   23.415607    0.568993    0.568993    0.568993    0.000000   -0.000000   -0.000000
   23.439476    0.569941    0.569941    0.569941    0.000000   -0.000000   -0.000000
   23.463345    0.570886    0.570886    0.570886    0.000000   -0.000000   -0.000000
   23.487214    0.571828    0.571828    0.571828    0.000000   -0.000000   -0.000000
   23.511083    0.572766    0.572766    0.572766    0.000000   -0.000000   -0.000000
   23.534953    0.573701    0.573701    0.573701    0.000000   -0.000000   -0.000000
   23.558822    0.574633    0.574633    0.574633    0.000000   -0.000000   -0.000000
   23.582691    0.575562    0.575562    0.575562    0.000000   -0.000000   -0.000000
   23.606560    0.576488    0.576488    0.576488    0.000000   -0.000000   -0.000000
   23.630429    0.577410    0.577410    0.577410    0.000000   -0.000000   -0.000000
   23.654298    0.578330    0.578330    0.578330    0.000000   -0.000000   -0.000000
   23.678167    0.579246    0.579246    0.579246    0.000000   -0.000000   -0.000000
   23.702036    0.580159    0.580159    0.580159    0.000000   -0.000000   -0.000000
   23.725906    0.581069    0.581069    0.581069    0.000000   -0.000000   -0.000000
   23.749775    0.581976    0.581976    0.581976    0.000000   -0.000000   -0.000000
   23.773644    0.582880    0.582880    0.582880    0.000000   -0.000000   -0.000000
   23.797513    0.583781    0.583781    0.583781    0.000000   -0.000000   -0.000000
   23.821382    0.584679    0.584679    0.584679    0.000000   -0.000000   -0.000000
   23.845251    0.585574    0.585574    0.585574    0.000000   -0.000000   -0.000000
 
 The outermost node in the dielectric function lies at epsilon=  16.6


--------------------------------------------------------------------------------------------------------


    OPTICS:  cpu time      0.1763: real time      0.1894
    4ORBIT:  cpu time      0.0000: real time      0.0000
 BZINTS: Fermi energy:    4.725451;   32.000000 electrons
         Band energy:-0.464129E+02;  BLOECHL correction:    0.000000

 total amount of memory used by VASP MPI-rank0    44082. kBytes
=======================================================================

   base      :      30000. kBytes
   nonl-proj :       8319. kBytes
   fftplans  :       1096. kBytes
   grid      :       2745. kBytes
   one-center:         64. kBytes
   wavefun   :       1858. kBytes
 
  
  
 General timing and accounting informations for this job:
 ========================================================
  
                  Total CPU time used (sec):        3.788
                            User time (sec):        2.244
                          System time (sec):        1.544
                         Elapsed time (sec):        4.579
  
                   Maximum memory used (kb):      133580.
                   Average memory used (kb):          N/A
  
                          Minor page faults:        13786
                          Major page faults:           43
                 Voluntary context switches:         1840
