<?xml version="1.0" encoding="ISO-8859-1"?>
<modeling>
 <generator>
  <i name="program" type="string">vasp </i>
  <i name="version" type="string">6.4.3  </i>
  <i name="subversion" type="string">19Mar24 (build Aug 29 2024 15:27:20) complex                          parallel </i>
  <i name="platform" type="string">LinuxIFC </i>
  <i name="date" type="string">2025 03 19 </i>
  <i name="time" type="string">11:28:06 </i>
 </generator>
 <incar>
  <i type="string" name="SYSTEM">GaAs</i>
  <i type="string" name="PREC">Normal</i>
  <i type="int" name="IBRION">     2</i>
  <i name="ENCUT">    500.00000000</i>
  <i type="int" name="ISMEAR">    -5</i>
  <i name="SIGMA">      0.10000000</i>
  <i type="logical" name="LOPTICS"> T  </i>
 </incar>
 <primitive_cell>
  <structure name="primitive_cell" >
   <crystal>
    <varray name="basis" >
     <v>       2.63955262      -2.63955262       0.00000000 </v>
     <v>       2.63955262       0.00000000       2.63955262 </v>
     <v>       0.00000000      -2.63955262       2.63955262 </v>
    </varray>
    <i name="volume">     36.78078274 </i>
    <varray name="rec_basis" >
     <v>       0.18942604      -0.18942604      -0.18942604 </v>
     <v>       0.18942604       0.18942604       0.18942604 </v>
     <v>      -0.18942604      -0.18942604       0.18942604 </v>
    </varray>
   </crystal>
   <varray name="positions" >
    <v>       0.00000000       0.00000000       0.00000000 </v>
    <v>       0.75000000       0.75000000       0.75000000 </v>
   </varray>
  </structure>
  <varray name="primitive_index" >
   <v type="int" >        1 </v>
   <v type="int" >        5 </v>
  </varray>
 </primitive_cell>
 <kpoints>
  <generation param="Gamma">
   <v type="int" name="divisions">       5        5        5 </v>
   <v name="usershift">      0.00000000       0.00000000       0.00000000 </v>
   <v name="genvec1">      0.20000000       0.00000000       0.00000000 </v>
   <v name="genvec2">      0.00000000       0.20000000       0.00000000 </v>
   <v name="genvec3">      0.00000000       0.00000000       0.20000000 </v>
   <v name="shift">      0.00000000       0.00000000       0.00000000 </v>
  </generation>
  <varray name="kpointlist" >
   <v>       0.00000000       0.00000000       0.00000000 </v>
   <v>       0.20000000       0.00000000       0.00000000 </v>
   <v>       0.40000000       0.00000000       0.00000000 </v>
   <v>       0.20000000       0.20000000       0.00000000 </v>
   <v>       0.40000000       0.20000000       0.00000000 </v>
   <v>       0.40000000       0.40000000       0.00000000 </v>
   <v>       0.20000000       0.20000000       0.20000000 </v>
   <v>       0.40000000       0.20000000       0.20000000 </v>
   <v>       0.40000000       0.40000000       0.20000000 </v>
   <v>       0.40000000       0.40000000       0.40000000 </v>
  </varray>
  <varray name="weights" >
   <v>       0.00800000 </v>
   <v>       0.04800000 </v>
   <v>       0.04800000 </v>
   <v>       0.09600000 </v>
   <v>       0.19200000 </v>
   <v>       0.09600000 </v>
   <v>       0.06400000 </v>
   <v>       0.19200000 </v>
   <v>       0.19200000 </v>
   <v>       0.06400000 </v>
  </varray>
  <varray name="tetrahedronlist"  type="int" >
   <v type="int" >       12        7        8        8        9 </v>
   <v type="int" >       18        8        8        9        9 </v>
   <v type="int" >       24        8        9        9       10 </v>
   <v type="int" >       12        8        9        9        9 </v>
   <v type="int" >       24        9        9        9       10 </v>
   <v type="int" >       18        9        9       10       10 </v>
   <v type="int" >       24        4        5        7        8 </v>
   <v type="int" >       12        5        7        8        8 </v>
   <v type="int" >       24        5        8        8        9 </v>
   <v type="int" >       24        4        5        5        8 </v>
   <v type="int" >       24        5        5        6        8 </v>
   <v type="int" >       12        5        6        8        9 </v>
   <v type="int" >       12        9       10       10       10 </v>
   <v type="int" >       12        8        8        9       10 </v>
   <v type="int" >       12        8        9       10       10 </v>
   <v type="int" >       12        5        5        8        9 </v>
   <v type="int" >       12        5        8        9        9 </v>
   <v type="int" >       12        5        5        6        9 </v>
   <v type="int" >       12        5        6        6        9 </v>
   <v type="int" >       12        5        6        9        9 </v>
   <v type="int" >       12        5        6        8        8 </v>
   <v type="int" >       12        5        6        6        8 </v>
   <v type="int" >       12        6        8        8        9 </v>
   <v type="int" >       12        6        8        9        9 </v>
   <v type="int" >       12        6        6        8        9 </v>
   <v type="int" >       12        7        8        9       10 </v>
   <v type="int" >       12        4        5        8        9 </v>
   <v type="int" >       12        4        7        8        9 </v>
   <v type="int" >       12        4        5        6        9 </v>
   <v type="int" >       12        5        6        7        8 </v>
   <v type="int" >       12        4        5        6        7 </v>
   <v type="int" >       12        6        7        8        9 </v>
   <v type="int" >       12        2        4        7        8 </v>
   <v type="int" >       12        2        4        5        8 </v>
   <v type="int" >       12        2        3        5        8 </v>
   <v type="int" >       12        4        4        5        7 </v>
   <v type="int" >       12        2        4        4        5 </v>
   <v type="int" >       12        2        3        4        5 </v>
   <v type="int" >       12        3        4        5        5 </v>
   <v type="int" >       12        2        3        4        7 </v>
   <v type="int" >       12        3        4        5        7 </v>
   <v type="int" >       12        3        5        7        8 </v>
   <v type="int" >        6       10       10       10       10 </v>
   <v type="int" >       12        6        6        9        9 </v>
   <v type="int" >       12        6        9        9        9 </v>
   <v type="int" >       12        6        6        6        9 </v>
   <v type="int" >       12        3        5        8        8 </v>
   <v type="int" >       12        3        5        5        8 </v>
   <v type="int" >       12        3        3        5        8 </v>
   <v type="int" >       12        5        5        5        8 </v>
   <v type="int" >       12        3        5        5        5 </v>
   <v type="int" >        6        3        3        5        5 </v>
   <v type="int" >        6        5        5        8        8 </v>
   <v type="int" >       12        2        4        4        7 </v>
   <v type="int" >       12        2        2        4        4 </v>
   <v type="int" >       12        1        2        2        4 </v>
   <v type="int" >       12        1        2        4        7 </v>
  </varray>
  <i name="volumeweight">      0.00133333 </i>
 </kpoints>
 <parameters>
  <separator name="general" >
   <i type="string" name="SYSTEM">GaAs</i>
   <i type="logical" name="LCOMPAT"> F  </i>
  </separator>
  <separator name="electronic" >
   <i type="string" name="PREC">normal</i>
   <i name="ENMAX">    500.00000000</i>
   <i name="ENAUG">    462.75800000</i>
   <i name="EDIFF">      0.00010000</i>
   <i type="int" name="IALGO">    38</i>
   <i type="int" name="IWAVPR">    10</i>
   <i type="int" name="NBANDS">    24</i>
   <i type="int" name="NBANDSLOW">    -1</i>
   <i type="int" name="NBANDSHIGH">    -1</i>
   <i name="NELECT">     32.00000000</i>
   <i type="int" name="TURBO">     0</i>
   <i type="int" name="IRESTART">     0</i>
   <i type="int" name="NREBOOT">     0</i>
   <i type="int" name="NMIN">     0</i>
   <i name="EREF">      0.00000000</i>
   <separator name="electronic smearing" >
    <i type="int" name="ISMEAR">    -5</i>
    <i name="SIGMA">      0.10000000</i>
    <i name="KSPACING">      0.50000000</i>
    <i type="logical" name="KGAMMA"> T  </i>
    <i type="logical" name="KBLOWUP"> T  </i>
   </separator>
   <separator name="electronic projectors" >
    <i type="logical" name="LREAL"> F  </i>
    <v name="ROPT">      0.00000000      0.00000000</v>
    <i type="int" name="LMAXPAW">  -100</i>
    <i type="int" name="LMAXMIX">     2</i>
    <i type="logical" name="NLSPLINE"> F  </i>
   </separator>
   <separator name="electronic startup" >
    <i type="int" name="ISTART">     1</i>
    <i type="int" name="ICHARG">     0</i>
    <i type="int" name="INIWAV">     1</i>
   </separator>
   <separator name="electronic spin" >
    <i type="int" name="ISPIN">     1</i>
    <i type="logical" name="LNONCOLLINEAR"> F  </i>
    <v name="MAGMOM">      1.00000000      1.00000000      1.00000000      1.00000000      1.00000000      1.00000000      1.00000000      1.00000000</v>
    <i name="NUPDOWN">     -1.00000000</i>
    <i type="logical" name="LSORBIT"> F  </i>
    <v name="SAXIS">      0.00000000      0.00000000      1.00000000</v>
    <i type="logical" name="LSPIRAL"> F  </i>
    <v name="QSPIRAL">      0.00000000      0.00000000      0.00000000</v>
    <i type="logical" name="LZEROZ"> F  </i>
   </separator>
   <separator name="electronic exchange-correlation" >
    <i type="logical" name="LASPH"> F  </i>
   </separator>
   <separator name="electronic convergence" >
    <i type="int" name="NELM">    60</i>
    <i type="int" name="NELMDL">     0</i>
    <i type="int" name="NELMIN">     2</i>
    <i name="ENINI">    500.00000000</i>
    <separator name="electronic convergence detail" >
     <i type="logical" name="LDIAG"> T  </i>
     <i type="logical" name="LSUBROT"> F  </i>
     <i name="WEIMIN">      0.00000000</i>
     <i name="EBREAK">      0.00000104</i>
     <i name="DEPER">      0.30000000</i>
     <i type="int" name="NRMM">     4</i>
     <i name="TIME">      0.40000000</i>
    </separator>
   </separator>
   <separator name="electronic mixer" >
    <i name="AMIX">      0.40000000</i>
    <i name="BMIX">      1.00000000</i>
    <i name="AMIN">      0.10000000</i>
    <i name="AMIX_MAG">      1.60000000</i>
    <i name="BMIX_MAG">      1.00000000</i>
    <separator name="electronic mixer details" >
     <i type="int" name="IMIX">     4</i>
     <i type="logical" name="MIXFIRST"> F  </i>
     <i type="int" name="MAXMIX">   -45</i>
     <i name="WC">    100.00000000</i>
     <i type="int" name="INIMIX">     1</i>
     <i type="int" name="MIXPRE">     1</i>
     <i type="int" name="MREMOVE">     5</i>
    </separator>
   </separator>
   <separator name="electronic dipolcorrection" >
    <i type="logical" name="LDIPOL"> F  </i>
    <i type="logical" name="LMONO"> F  </i>
    <i type="int" name="IDIPOL">     0</i>
    <i name="EPSILON">      1.00000000</i>
    <v name="DIPOL">   -100.00000000   -100.00000000   -100.00000000</v>
    <i name="EFIELD">      0.00000000</i>
    <i type="logical" name="LVACPOTAV"> F  </i>
   </separator>
  </separator>
  <separator name="grids" >
   <i type="int" name="NGX">    30</i>
   <i type="int" name="NGY">    30</i>
   <i type="int" name="NGZ">    30</i>
   <i type="int" name="NGXF">    60</i>
   <i type="int" name="NGYF">    60</i>
   <i type="int" name="NGZF">    60</i>
   <i type="logical" name="ADDGRID"> F  </i>
  </separator>
  <separator name="ionic" >
   <i type="int" name="NSW">     0</i>
   <i type="int" name="IBRION">    -1</i>
   <i type="int" name="MDALGO">     0</i>
   <i type="int" name="ISIF">     2</i>
   <i name="PSTRESS">      0.00000000</i>
   <i name="EDIFFG">      0.00100000</i>
   <i type="int" name="NFREE">     1</i>
   <i name="POTIM">      0.50000000</i>
   <i name="SMASS">     -3.00000000</i>
   <i name="SCALEE">      1.00000000</i>
  </separator>
  <separator name="ionic md" >
   <i name="TEBEG">      0.00010000</i>
   <i name="TEEND">      0.00010000</i>
   <i type="int" name="NBLOCK">     1</i>
   <i type="int" name="KBLOCK">     1</i>
   <i type="int" name="NPACO">   256</i>
   <i name="APACO">     10.00000000</i>
  </separator>
  <separator name="symmetry" >
   <i type="int" name="ISYM">     2</i>
   <i name="SYMPREC">      0.00001000</i>
  </separator>
  <separator name="dos" >
   <i type="int" name="LORBIT">     0</i>
   <v name="RWIGS">     -1.00000000     -1.00000000</v>
   <i type="int" name="NEDOS">   301</i>
   <i name="EMIN">     10.00000000</i>
   <i name="EMAX">    -10.00000000</i>
   <i name="EFERMI">      0.00000000</i>
  </separator>
  <separator name="writing" >
   <i type="int" name="NWRITE">     2</i>
   <i type="logical" name="LWAVE"> T  </i>
   <i type="logical" name="LDOWNSAMPLE"> F  </i>
   <i type="logical" name="LCHARG"> T  </i>
   <i type="logical" name="LPARD"> F  </i>
   <i type="logical" name="LVTOT"> F  </i>
   <i type="logical" name="LVHAR"> F  </i>
   <i type="logical" name="LELF"> F  </i>
   <i type="logical" name="LOPTICS"> T  </i>
   <v name="STM">      0.00000000      0.00000000      0.00000000      0.00000000      0.00000000      0.00000000      0.00000000</v>
  </separator>
  <separator name="performance" >
   <i type="int" name="NPAR">     8</i>
   <i type="int" name="NSIM">     4</i>
   <i type="int" name="NBLK">    -1</i>
   <i type="logical" name="LPLANE"> T  </i>
   <i type="logical" name="LSCALAPACK"> T  </i>
   <i type="logical" name="LSCAAWARE"> F  </i>
   <i type="logical" name="LSCALU"> F  </i>
   <i type="logical" name="LASYNC"> F  </i>
   <i type="logical" name="LORBITALREAL"> F  </i>
  </separator>
  <separator name="miscellaneous" >
   <i type="int" name="IDIOT">     3</i>
   <i type="int" name="PHON_NSTRUCT">    -1</i>
   <i type="logical" name="LMUSIC"> F  </i>
   <v name="POMASS">     74.92200000     69.72300000</v>
   <v name="DARWINR">      0.00000000      0.00000000</v>
   <v name="DARWINV">      1.00000000      1.00000000</v>
   <i type="logical" name="LCORR"> T  </i>
  </separator>
  <i type="logical" name="GGA_COMPAT"> T  </i>
  <i type="logical" name="LBERRY"> F  </i>
  <i type="int" name="ICORELEVEL">     0</i>
  <i type="logical" name="LDAU"> F  </i>
  <i type="int" name="I_CONSTRAINED_M">     0</i>
  <separator name="electronic exchange-correlation" >
   <i type="string" name="GGA    ">PE</i>
   <i type="string" name="XC_C">1</i>
   <i type="int" name="VOSKOWN">     0</i>
   <i type="logical" name="LHFCALC"> F  </i>
   <i type="string" name="PRECFOCK"></i>
   <i type="logical" name="LSYMGRAD"> F  </i>
   <i type="logical" name="LHFONE"> F  </i>
   <i type="logical" name="LRHFCALC"> F  </i>
   <i type="logical" name="LTHOMAS"> F  </i>
   <i type="logical" name="LMODELHF"> F  </i>
   <i type="logical" name="LFOCKACE"> F  </i>
   <i name="ENCUT4O">     -1.00000000</i>
   <i type="int" name="EXXOEP">     0</i>
   <i type="int" name="FOURORBIT">     0</i>
   <i name="AEXX">      0.00000000</i>
   <i name="HFALPHA">      0.00000000</i>
   <i name="MCALPHA">      0.00000000</i>
   <i name="ALDAX">      1.00000000</i>
   <i name="AGGAX">      1.00000000</i>
   <i name="AMGGAX">      1.00000000</i>
   <i name="ALDAC">      1.00000000</i>
   <i name="AGGAC">      1.00000000</i>
   <i name="AMGGAC">      1.00000000</i>
   <i type="int" name="NKREDX">     1</i>
   <i type="int" name="NKREDY">     1</i>
   <i type="int" name="NKREDZ">     1</i>
   <i type="logical" name="SHIFTRED"> F  </i>
   <i type="logical" name="ODDONLY"> F  </i>
   <i type="logical" name="EVENONLY"> F  </i>
   <i type="int" name="LMAXFOCK">     0</i>
   <i type="int" name="NMAXFOCKAE">     0</i>
   <i type="logical" name="LFOCKAEDFT"> F  </i>
   <i name="HFSCREEN">      0.00000000</i>
   <i name="HFSCREENC">      0.00000000</i>
   <i type="int" name="NBANDSGWLOW">     0</i>
  </separator>
  <separator name="vdW DFT" >
   <i type="logical" name="LUSE_VDW"> F  </i>
   <i type="int" name="IVDW_NL">    -1</i>
   <i type="logical" name="LSPIN_VDW"> F  </i>
   <i name="ZAB_VDW">     -0.84910000</i>
   <i name="GAMMA_VDW">      1.39626340</i>
   <i name="ALPHA_VDW">      0.00000000</i>
   <i name="PARAM1">      0.12340000</i>
   <i name="PARAM2">      1.00000000</i>
   <i name="BPARAM">      6.30000000</i>
   <i name="CPARAM">      0.00930000</i>
  </separator>
  <separator name="model GW" >
   <i type="int" name="MODEL_GW">     0</i>
   <i name="MODEL_EPS0">     11.03423482</i>
   <i name="MODEL_ALPHA">      1.00000000</i>
  </separator>
  <separator name="linear response parameters" >
   <i type="logical" name="LEPSILON"> F  </i>
   <i type="logical" name="LRPA"> F  </i>
   <i type="logical" name="LNABLA"> F  </i>
   <i type="logical" name="LVEL"> F  </i>
   <i name="CSHIFT">      0.10000000</i>
   <i name="OMEGAMAX">     -1.00000000</i>
   <i name="DEG_THRESHOLD">      0.00200000</i>
   <i name="RTIME">     -0.10000000</i>
   <i name="WPLASMAI">      0.00000000</i>
   <v name="DFIELD">      0.00000000      0.00000000      0.00000000</v>
   <v name="WPLASMA">      0.00000000      0.00000000      0.00000000      0.00000000      0.00000000      0.00000000      0.00000000      0.00000000      0.00000000</v>
  </separator>
  <separator name="orbital magnetization" >
   <i type="logical" name="NUCIND"> F  </i>
   <v name="MAGPOS">      0.00000000      0.00000000      0.00000000</v>
   <i type="logical" name="LNICSALL"> T  </i>
   <i type="logical" name="ORBITALMAG"> F  </i>
   <i type="logical" name="LMAGBLOCH"> F  </i>
   <i type="logical" name="LCHIMAG"> F  </i>
   <i type="logical" name="LGAUGE"> T  </i>
   <i type="int" name="MAGATOM">     0</i>
   <v name="MAGDIPOL">      0.00000000      0.00000000      0.00000000</v>
   <v name="AVECCONST">      0.00000000      0.00000000      0.00000000</v>
  </separator>
  <separator name="response functions" >
   <i type="logical" name="LALL_IN_ONE"> F  </i>
   <i type="int" name="IALL_IN_ONE">    -1</i>
   <i type="int" name="NBANDS_WAVE">    -1</i>
   <i type="logical" name="LFINITE_TEMPERATURE"> F  </i>
   <i type="logical" name="LADDER"> F  </i>
   <i type="logical" name="LRPAFORCE"> F  </i>
   <i type="logical" name="LFXC"> F  </i>
   <i type="logical" name="LHARTREE"> T  </i>
   <i type="int" name="IBSE">     0</i>
   <v type="int" name="KPOINT">    -1     0     0     0</v>
   <i type="logical" name="LTCTC"> F  </i>
   <i type="logical" name="LTCTE"> F  </i>
   <i type="logical" name="LTETE"> F  </i>
   <i type="logical" name="LTRIPLET"> F  </i>
   <i type="logical" name="LFXCEPS"> F  </i>
   <i type="logical" name="LFXHEG"> F  </i>
   <i type="int" name="NATURALO">     2</i>
   <i type="logical" name="LHOLEGF"> F  </i>
   <i type="logical" name="L2ORDER"> F  </i>
   <i type="logical" name="LDMP1"> F  </i>
   <i type="logical" name="LMP2LT"> F  </i>
   <i type="logical" name="LSMP2LT"> F  </i>
   <i type="logical" name="LGWLF"> F  </i>
   <i name="ENCUTGW">     -1.60000002</i>
   <i name="ENCUTGWSOFT">     -1.60000002</i>
   <i name="ENCUTLF">     -1.00000000</i>
   <i type="logical" name="ESF_SPLINES"> F  </i>
   <i name="ESF_CONV">      0.01000000</i>
   <i type="int" name="ESF_NINTER">    15</i>
   <i type="int" name="LMAXMP2">    -1</i>
   <i name="SCISSOR">      0.00000000</i>
   <i type="int" name="NOMEGA">     0</i>
   <i type="int" name="NOMEGAR">     0</i>
   <i type="int" name="NBANDSGW">    -1</i>
   <i type="int" name="NBANDSO">    -1</i>
   <i type="int" name="NBANDSV">    -1</i>
   <i type="int" name="NELMGW">     1</i>
   <i type="int" name="NELMHF">     1</i>
   <i type="int" name="DIM">     3</i>
   <i type="int" name="IESPILON">     4</i>
   <i type="int" name="ANTIRES">     0</i>
   <i name="OMEGAMAX">    -30.00000000</i>
   <i name="OMEGAMIN">    -30.00000000</i>
   <i name="OMEGATL">   -200.00000000</i>
   <i type="int" name="OMEGAGRID">     0</i>
   <i name="CSHIFT">     -0.10000000</i>
   <i type="logical" name="LSELFENERGY"> F  </i>
   <i type="logical" name="LSPECTRAL"> F  </i>
   <i type="logical" name="LSPECTRALGW"> F  </i>
   <i type="logical" name="LSINGLES"> F  </i>
   <i type="logical" name="LFERMIGW"> F  </i>
   <i type="logical" name="ODDONLYGW"> F  </i>
   <i type="logical" name="EVENONLYGW"> F  </i>
   <i type="int" name="NKREDLFX">     1</i>
   <i type="int" name="NKREDLFY">     1</i>
   <i type="int" name="NKREDLFZ">     1</i>
   <i type="int" name="MAXMEM">  2800</i>
   <i type="int" name="TELESCOPE">     0</i>
   <i type="int" name="NTAUPAR">    -1</i>
   <i type="int" name="NOMEGAPAR">    -1</i>
   <i name="DAMP_NEWTON">      0.80000001</i>
   <i name="LAMBDA">      1.00000000</i>
  </separator>
  <separator name="External order field" >
   <i name="OFIELD_KAPPA">      0.00000000</i>
   <v name="OFIELD_K">      0.00000000      0.00000000      0.00000000</v>
   <i name="OFIELD_Q6_NEAR">      0.00000000</i>
   <i name="OFIELD_Q6_FAR">      0.00000000</i>
   <i name="OFIELD_A">      0.00000000</i>
  </separator>
  <separator name="optional k-points parameters" >
   <i type="int" name="KPOINTS_OPT_MODE">     1</i>
   <i type="logical" name="LKPOINTS_OPT"> F  </i>
  </separator>
 </parameters>
 <atominfo>
  <atoms>       8 </atoms>
  <types>       2 </types>
  <array name="atoms" >
   <dimension dim="1">ion</dimension>
   <field type="string">element</field>
   <field type="int">atomtype</field>
   <set>
    <rc><c>As</c><c>   1</c></rc>
    <rc><c>As</c><c>   1</c></rc>
    <rc><c>As</c><c>   1</c></rc>
    <rc><c>As</c><c>   1</c></rc>
    <rc><c>Ga</c><c>   2</c></rc>
    <rc><c>Ga</c><c>   2</c></rc>
    <rc><c>Ga</c><c>   2</c></rc>
    <rc><c>Ga</c><c>   2</c></rc>
   </set>
  </array>
  <array name="atomtypes" >
   <dimension dim="1">type</dimension>
   <field type="int">atomspertype</field>
   <field type="string">element</field>
   <field>mass</field>
   <field>valence</field>
   <field type="string">pseudopotential</field>
   <set>
    <rc><c>   4</c><c>As</c><c>     74.92200000</c><c>      5.00000000</c><c>  PAW_PBE As 22Sep2009                  </c></rc>
    <rc><c>   4</c><c>Ga</c><c>     69.72300000</c><c>      3.00000000</c><c>  PAW_PBE Ga 08Apr2002                  </c></rc>
   </set>
  </array>
 </atominfo>
 <structure name="initialpos" >
  <crystal>
   <varray name="basis" >
    <v>       5.27910524       0.00000000       0.00000000 </v>
    <v>       0.00000000       5.27910524       0.00000000 </v>
    <v>       0.00000000       0.00000000       5.27910524 </v>
   </varray>
   <i name="volume">    147.12313096 </i>
   <varray name="rec_basis" >
    <v>       0.18942604       0.00000000       0.00000000 </v>
    <v>       0.00000000       0.18942604       0.00000000 </v>
    <v>       0.00000000       0.00000000       0.18942604 </v>
   </varray>
  </crystal>
  <varray name="positions" >
   <v>       0.00000000       0.00000000       0.00000000 </v>
   <v>       0.50000000       0.50000000       0.00000000 </v>
   <v>       0.50000000       0.00000000       0.50000000 </v>
   <v>       0.00000000       0.50000000       0.50000000 </v>
   <v>       0.25000000       0.25000000       0.25000000 </v>
   <v>       0.75000000       0.25000000       0.75000000 </v>
   <v>       0.75000000       0.75000000       0.25000000 </v>
   <v>       0.25000000       0.75000000       0.75000000 </v>
  </varray>
 </structure>
 <calculation>
  <scstep>
   <time name="dav">    0.24    0.25</time>
   <time name="total">    0.27    0.29</time>
   <energy>
    <i name="alphaZ">     93.00952424 </i>
    <i name="ewald">   -981.66128942 </i>
    <i name="hartreedc">    -72.60266573 </i>
    <i name="XCdc">   -118.57685779 </i>
    <i name="pawpsdc">   2695.41532515 </i>
    <i name="pawaedc">  -2517.63692244 </i>
    <i name="eentropy">      0.00000000 </i>
    <i name="bandstr">    -44.08106429 </i>
    <i name="atom">    916.21963040 </i>
    <i name="e_fr_energy">    -29.91431988 </i>
    <i name="e_wo_entrp">    -29.91431988 </i>
    <i name="e_0_energy">    -29.91431988 </i>
   </energy>
  </scstep>
  <scstep>
   <time name="dav">    0.22    0.23</time>
   <time name="total">    0.25    0.26</time>
   <energy>
    <i name="e_fr_energy">    -29.89753916 </i>
    <i name="e_wo_entrp">    -29.89753916 </i>
    <i name="e_0_energy">    -29.89753916 </i>
   </energy>
  </scstep>
  <scstep>
   <time name="dav">    0.23    0.24</time>
   <time name="total">    0.26    0.27</time>
   <energy>
    <i name="e_fr_energy">    -29.89197344 </i>
    <i name="e_wo_entrp">    -29.89197344 </i>
    <i name="e_0_energy">    -29.89197344 </i>
   </energy>
  </scstep>
  <scstep>
   <time name="dav">    0.23    0.24</time>
   <time name="total">    0.25    0.27</time>
   <energy>
    <i name="e_fr_energy">    -29.89164207 </i>
    <i name="e_wo_entrp">    -29.89164207 </i>
    <i name="e_0_energy">    -29.89164207 </i>
   </energy>
  </scstep>
  <scstep>
   <time name="dav">    0.18    0.19</time>
   <time name="total">    0.20    0.21</time>
   <energy>
    <i name="alphaZ">     93.00952424 </i>
    <i name="ewald">   -981.66128942 </i>
    <i name="hartreedc">    -70.40248454 </i>
    <i name="XCdc">   -118.49535664 </i>
    <i name="pawpsdc">   2878.76588998 </i>
    <i name="pawaedc">  -2700.91461993 </i>
    <i name="eentropy">      0.00000000 </i>
    <i name="bandstr">    -46.41288563 </i>
    <i name="atom">    916.21963040 </i>
    <i name="e_fr_energy">    -29.89159154 </i>
    <i name="e_wo_entrp">    -29.89159154 </i>
    <i name="e_0_energy">    -29.89159154 </i>
   </energy>
  </scstep>
  <structure>
   <crystal>
    <varray name="basis" >
     <v>       5.27910524       0.00000000       0.00000000 </v>
     <v>       0.00000000       5.27910524       0.00000000 </v>
     <v>       0.00000000       0.00000000       5.27910524 </v>
    </varray>
    <i name="volume">    147.12313096 </i>
    <varray name="rec_basis" >
     <v>       0.18942604       0.00000000       0.00000000 </v>
     <v>       0.00000000       0.18942604       0.00000000 </v>
     <v>       0.00000000       0.00000000       0.18942604 </v>
    </varray>
   </crystal>
   <varray name="positions" >
    <v>       0.00000000       0.00000000       0.00000000 </v>
    <v>       0.50000000       0.50000000       0.00000000 </v>
    <v>       0.50000000       0.00000000       0.50000000 </v>
    <v>       0.00000000       0.50000000       0.50000000 </v>
    <v>       0.25000000       0.25000000       0.25000000 </v>
    <v>       0.75000000       0.25000000       0.75000000 </v>
    <v>       0.75000000       0.75000000       0.25000000 </v>
    <v>       0.25000000       0.75000000       0.75000000 </v>
   </varray>
  </structure>
  <varray name="forces" >
   <v>      -0.00000000       0.00000000       0.00000000 </v>
   <v>       0.00000000       0.00000000      -0.00000000 </v>
   <v>      -0.00000000       0.00000000       0.00000000 </v>
   <v>       0.00000000       0.00000000      -0.00000000 </v>
   <v>      -0.00000000      -0.00000000      -0.00000000 </v>
   <v>      -0.00000000      -0.00000000       0.00000000 </v>
   <v>       0.00000000       0.00000000      -0.00000000 </v>
   <v>      -0.00000000      -0.00000000       0.00000000 </v>
  </varray>
  <varray name="stress" >
   <v>     300.84128523       0.00000000       0.00000000 </v>
   <v>      -0.00000000     300.84128523      -0.00000000 </v>
   <v>       0.00000000      -0.00000000     300.84128523 </v>
  </varray>
  <energy>
   <i name="e_fr_energy">    -29.89159154 </i>
   <i name="e_wo_entrp">    -29.89159154 </i>
   <i name="e_0_energy">    -29.89159154 </i>
  </energy>
  <time name="totalsc">    1.81    1.90</time>
  <eigenvalues>
   <array>
    <dimension dim="1">band</dimension>
    <dimension dim="2">kpoint</dimension>
    <dimension dim="3">spin</dimension>
    <field>eigene</field>
    <field>occ</field>
    <set>
     <set comment="spin 1">
      <set comment="kpoint 1">
       <r>   -9.7324    1.0000 </r>
       <r>   -6.4661    1.0000 </r>
       <r>   -6.4661    1.0000 </r>
       <r>   -6.4661    1.0000 </r>
       <r>   -3.2085    1.0000 </r>
       <r>   -3.2085    1.0000 </r>
       <r>   -3.2085    1.0000 </r>
       <r>    1.1785    1.0000 </r>
       <r>    1.1785    1.0000 </r>
       <r>    1.1785    1.0000 </r>
       <r>    1.1785    1.0000 </r>
       <r>    1.1785    1.0000 </r>
       <r>    1.1785    1.0000 </r>
       <r>    4.6738    1.0000 </r>
       <r>    4.6738    1.0000 </r>
       <r>    4.6738    1.0000 </r>
       <r>    5.6637    0.0000 </r>
       <r>    5.6637    0.0000 </r>
       <r>    5.6637    0.0000 </r>
       <r>    6.1410    0.0000 </r>
       <r>    6.1410    0.0000 </r>
       <r>    6.1410    0.0000 </r>
       <r>    6.9083    0.0000 </r>
       <r>    8.4515    0.0000 </r>
      </set>
      <set comment="kpoint 2">
       <r>   -9.5490    1.0000 </r>
       <r>   -7.1052    1.0000 </r>
       <r>   -6.4342    1.0000 </r>
       <r>   -6.4342    1.0000 </r>
       <r>   -3.1121    1.0000 </r>
       <r>   -3.1121    1.0000 </r>
       <r>   -2.3253    1.0000 </r>
       <r>    0.7278    1.0000 </r>
       <r>    0.7278    1.0000 </r>
       <r>    0.7946    1.0000 </r>
       <r>    0.7946    1.0000 </r>
       <r>    1.3831    1.0000 </r>
       <r>    1.3831    1.0000 </r>
       <r>    3.3653    1.0000 </r>
       <r>    4.0264    1.0000 </r>
       <r>    4.0264    1.0000 </r>
       <r>    5.7235    0.0000 </r>
       <r>    6.5855    0.0000 </r>
       <r>    6.5855    0.0000 </r>
       <r>    6.5890    0.0000 </r>
       <r>    7.0722    0.0000 </r>
       <r>    7.0722    0.0000 </r>
       <r>    7.8305    0.0000 </r>
       <r>    8.1762    0.0000 </r>
      </set>
      <set comment="kpoint 3">
       <r>   -9.0083    1.0000 </r>
       <r>   -8.1490    1.0000 </r>
       <r>   -6.3808    1.0000 </r>
       <r>   -6.3808    1.0000 </r>
       <r>   -2.9277    1.0000 </r>
       <r>   -2.9277    1.0000 </r>
       <r>   -0.5755    1.0000 </r>
       <r>    0.1019    1.0000 </r>
       <r>    0.1019    1.0000 </r>
       <r>    0.3061    1.0000 </r>
       <r>    0.3061    1.0000 </r>
       <r>    1.3928    1.0000 </r>
       <r>    1.9820    1.0000 </r>
       <r>    1.9820    1.0000 </r>
       <r>    2.9195    1.0000 </r>
       <r>    2.9195    1.0000 </r>
       <r>    6.1134    0.0000 </r>
       <r>    6.8762    0.0000 </r>
       <r>    7.6751    0.0000 </r>
       <r>    8.6508    0.0000 </r>
       <r>    8.6508    0.0000 </r>
       <r>    8.8601    0.0000 </r>
       <r>    9.2057    0.0000 </r>
       <r>    9.2057    0.0000 </r>
      </set>
      <set comment="kpoint 4">
       <r>   -9.3689    1.0000 </r>
       <r>   -7.0153    1.0000 </r>
       <r>   -7.0153    1.0000 </r>
       <r>   -6.4588    1.0000 </r>
       <r>   -3.0229    1.0000 </r>
       <r>   -2.3779    1.0000 </r>
       <r>   -2.3779    1.0000 </r>
       <r>   -0.1404    1.0000 </r>
       <r>    0.8305    1.0000 </r>
       <r>    0.8305    1.0000 </r>
       <r>    1.2060    1.0000 </r>
       <r>    1.2060    1.0000 </r>
       <r>    1.5242    1.0000 </r>
       <r>    2.1246    1.0000 </r>
       <r>    3.3645    1.0000 </r>
       <r>    4.4556    1.0000 </r>
       <r>    6.2221    0.0000 </r>
       <r>    6.6973    0.0000 </r>
       <r>    6.6973    0.0000 </r>
       <r>    7.4318    0.0000 </r>
       <r>    7.4318    0.0000 </r>
       <r>    7.8737    0.0000 </r>
       <r>    8.6353    0.0000 </r>
       <r>    8.8292    0.0000 </r>
      </set>
      <set comment="kpoint 5">
       <r>   -8.8394    1.0000 </r>
       <r>   -8.0057    1.0000 </r>
       <r>   -6.7945    1.0000 </r>
       <r>   -6.5729    1.0000 </r>
       <r>   -2.8076    1.0000 </r>
       <r>   -2.5580    1.0000 </r>
       <r>   -0.9622    1.0000 </r>
       <r>   -0.4554    1.0000 </r>
       <r>   -0.0310    1.0000 </r>
       <r>    0.5633    1.0000 </r>
       <r>    1.1349    1.0000 </r>
       <r>    1.3581    1.0000 </r>
       <r>    1.4303    1.0000 </r>
       <r>    2.1803    1.0000 </r>
       <r>    2.2602    1.0000 </r>
       <r>    3.5073    1.0000 </r>
       <r>    7.1276    0.0000 </r>
       <r>    7.4780    0.0000 </r>
       <r>    7.8760    0.0000 </r>
       <r>    8.3533    0.0000 </r>
       <r>    8.7748    0.0000 </r>
       <r>    8.7831    0.0000 </r>
       <r>    9.4449    0.0000 </r>
       <r>   10.0671    0.0000 </r>
      </set>
      <set comment="kpoint 6">
       <r>   -8.3499    1.0000 </r>
       <r>   -7.6064    1.0000 </r>
       <r>   -7.6064    1.0000 </r>
       <r>   -7.0589    1.0000 </r>
       <r>   -2.4079    1.0000 </r>
       <r>   -1.7291    1.0000 </r>
       <r>   -1.7291    1.0000 </r>
       <r>   -0.6557    1.0000 </r>
       <r>   -0.3495    1.0000 </r>
       <r>    0.3503    1.0000 </r>
       <r>    0.3503    1.0000 </r>
       <r>    1.1826    1.0000 </r>
       <r>    2.4645    1.0000 </r>
       <r>    2.5367    1.0000 </r>
       <r>    2.5367    1.0000 </r>
       <r>    3.6446    1.0000 </r>
       <r>    7.1959    0.0000 </r>
       <r>    8.1575    0.0000 </r>
       <r>    8.5588    0.0000 </r>
       <r>    8.5588    0.0000 </r>
       <r>    9.4049    0.0000 </r>
       <r>    9.4049    0.0000 </r>
       <r>    9.9234    0.0000 </r>
       <r>   10.1387    0.0000 </r>
      </set>
      <set comment="kpoint 7">
       <r>   -9.1928    1.0000 </r>
       <r>   -6.9621    1.0000 </r>
       <r>   -6.9621    1.0000 </r>
       <r>   -6.9621    1.0000 </r>
       <r>   -2.5204    1.0000 </r>
       <r>   -2.5204    1.0000 </r>
       <r>   -2.5204    1.0000 </r>
       <r>    0.3229    1.0000 </r>
       <r>    0.3229    1.0000 </r>
       <r>    0.3229    1.0000 </r>
       <r>    1.0350    1.0000 </r>
       <r>    1.7129    1.0000 </r>
       <r>    1.7129    1.0000 </r>
       <r>    1.7129    1.0000 </r>
       <r>    3.9919    1.0000 </r>
       <r>    3.9919    1.0000 </r>
       <r>    6.4531    0.0000 </r>
       <r>    6.4531    0.0000 </r>
       <r>    6.4531    0.0000 </r>
       <r>    7.0796    0.0000 </r>
       <r>    8.8589    0.0000 </r>
       <r>    8.8589    0.0000 </r>
       <r>    8.8589    0.0000 </r>
       <r>    9.3217    0.0000 </r>
      </set>
      <set comment="kpoint 8">
       <r>   -8.6779    1.0000 </r>
       <r>   -7.8786    1.0000 </r>
       <r>   -6.8696    1.0000 </r>
       <r>   -6.8696    1.0000 </r>
       <r>   -2.7801    1.0000 </r>
       <r>   -2.7801    1.0000 </r>
       <r>   -1.5325    1.0000 </r>
       <r>   -0.3463    1.0000 </r>
       <r>    0.1487    1.0000 </r>
       <r>    0.1487    1.0000 </r>
       <r>    1.5767    1.0000 </r>
       <r>    1.7205    1.0000 </r>
       <r>    1.7205    1.0000 </r>
       <r>    2.2587    1.0000 </r>
       <r>    3.0864    1.0000 </r>
       <r>    3.1490    1.0000 </r>
       <r>    7.0855    0.0000 </r>
       <r>    7.5461    0.0000 </r>
       <r>    7.6836    0.0000 </r>
       <r>    7.6836    0.0000 </r>
       <r>    8.9435    0.0000 </r>
       <r>    9.4184    0.0000 </r>
       <r>    9.9787    0.0000 </r>
       <r>    9.9787    0.0000 </r>
      </set>
      <set comment="kpoint 9">
       <r>   -8.2159    1.0000 </r>
       <r>   -7.5407    1.0000 </r>
       <r>   -7.5407    1.0000 </r>
       <r>   -7.1372    1.0000 </r>
       <r>   -2.8643    1.0000 </r>
       <r>   -2.3897    1.0000 </r>
       <r>   -2.3897    1.0000 </r>
       <r>   -1.5336    1.0000 </r>
       <r>    0.6207    1.0000 </r>
       <r>    1.2376    1.0000 </r>
       <r>    1.2376    1.0000 </r>
       <r>    2.2426    1.0000 </r>
       <r>    2.5839    1.0000 </r>
       <r>    2.6302    1.0000 </r>
       <r>    2.6302    1.0000 </r>
       <r>    3.5533    1.0000 </r>
       <r>    7.3461    0.0000 </r>
       <r>    7.4055    0.0000 </r>
       <r>    8.0163    0.0000 </r>
       <r>    8.0163    0.0000 </r>
       <r>    8.8813    0.0000 </r>
       <r>    8.8813    0.0000 </r>
       <r>    9.5354    0.0000 </r>
       <r>    9.5870    0.0000 </r>
      </set>
      <set comment="kpoint 10">
       <r>   -7.8573    1.0000 </r>
       <r>   -7.4240    1.0000 </r>
       <r>   -7.4240    1.0000 </r>
       <r>   -7.4240    1.0000 </r>
       <r>   -3.0824    1.0000 </r>
       <r>   -3.0824    1.0000 </r>
       <r>   -3.0824    1.0000 </r>
       <r>   -2.5750    1.0000 </r>
       <r>    2.2940    1.0000 </r>
       <r>    2.2940    1.0000 </r>
       <r>    2.2940    1.0000 </r>
       <r>    2.8987    1.0000 </r>
       <r>    2.8987    1.0000 </r>
       <r>    2.8987    1.0000 </r>
       <r>    3.2780    1.0000 </r>
       <r>    3.2780    1.0000 </r>
       <r>    6.4397    0.0000 </r>
       <r>    7.1638    0.0000 </r>
       <r>    7.1638    0.0000 </r>
       <r>    7.1638    0.0000 </r>
       <r>    9.0312    0.0000 </r>
       <r>    9.0312    0.0000 </r>
       <r>    9.0312    0.0000 </r>
       <r>    9.4172    0.0000 </r>
      </set>
     </set>
    </set>
   </array>
  </eigenvalues>
  <separator name="orbital magnetization" >
   <v name="MAGDIPOLOUT">      0.00000000      0.00000000      0.00000000</v>
  </separator>
  <dielectricfunction comment="density-density">
   <imag>
    <array>
     <dimension dim="1">gridpoints</dimension>
     <field>energy</field>
     <field>xx</field>
     <field>yy</field>
     <field>zz</field>
     <field>xy</field>
     <field>yz</field>
     <field>zx</field>
     <set>
      <r>     0.0000     0.0000     0.0000     0.0000     0.0000     0.0000     0.0000 </r>
      <r>     0.0239     0.0020     0.0020     0.0020    -0.0000    -0.0000    -0.0000 </r>
      <r>     0.0477     0.0041     0.0041     0.0041    -0.0000    -0.0000    -0.0000 </r>
      <r>     0.0716     0.0061     0.0061     0.0061    -0.0000    -0.0000    -0.0000 </r>
      <r>     0.0955     0.0082     0.0082     0.0082    -0.0000    -0.0000    -0.0000 </r>
      <r>     0.1193     0.0103     0.0103     0.0103    -0.0000    -0.0000    -0.0000 </r>
      <r>     0.1432     0.0123     0.0123     0.0123    -0.0000    -0.0000    -0.0000 </r>
      <r>     0.1671     0.0144     0.0144     0.0144    -0.0000    -0.0000    -0.0000 </r>
      <r>     0.1910     0.0164     0.0164     0.0164    -0.0000    -0.0000    -0.0000 </r>
      <r>     0.2148     0.0185     0.0185     0.0185    -0.0000    -0.0000    -0.0000 </r>
      <r>     0.2387     0.0206     0.0206     0.0206    -0.0000    -0.0000    -0.0000 </r>
      <r>     0.2626     0.0227     0.0227     0.0227    -0.0000    -0.0000    -0.0000 </r>
      <r>     0.2864     0.0248     0.0248     0.0248    -0.0000    -0.0000    -0.0000 </r>
      <r>     0.3103     0.0269     0.0269     0.0269    -0.0000    -0.0000    -0.0000 </r>
      <r>     0.3342     0.0291     0.0291     0.0291    -0.0000    -0.0000    -0.0000 </r>
      <r>     0.3580     0.0312     0.0312     0.0312    -0.0000    -0.0000    -0.0000 </r>
      <r>     0.3819     0.0333     0.0333     0.0333    -0.0000    -0.0000    -0.0000 </r>
      <r>     0.4058     0.0355     0.0355     0.0355    -0.0000    -0.0000    -0.0000 </r>
      <r>     0.4296     0.0377     0.0377     0.0377    -0.0000    -0.0000    -0.0000 </r>
      <r>     0.4535     0.0399     0.0399     0.0399    -0.0000    -0.0000    -0.0000 </r>
      <r>     0.4774     0.0421     0.0421     0.0421    -0.0000    -0.0000    -0.0000 </r>
      <r>     0.5013     0.0443     0.0443     0.0443    -0.0000    -0.0000    -0.0000 </r>
      <r>     0.5251     0.0466     0.0466     0.0466    -0.0000    -0.0000    -0.0000 </r>
      <r>     0.5490     0.0489     0.0489     0.0489    -0.0000    -0.0000    -0.0000 </r>
      <r>     0.5729     0.0512     0.0512     0.0512    -0.0000    -0.0000    -0.0000 </r>
      <r>     0.5967     0.0535     0.0535     0.0535    -0.0000    -0.0000    -0.0000 </r>
      <r>     0.6206     0.0558     0.0558     0.0558    -0.0000    -0.0000    -0.0000 </r>
      <r>     0.6445     0.0582     0.0582     0.0582    -0.0000    -0.0000    -0.0000 </r>
      <r>     0.6683     0.0606     0.0606     0.0606    -0.0000    -0.0000    -0.0000 </r>
      <r>     0.6922     0.0630     0.0630     0.0630    -0.0000    -0.0000    -0.0000 </r>
      <r>     0.7161     0.0655     0.0655     0.0655    -0.0000    -0.0000    -0.0000 </r>
      <r>     0.7399     0.0680     0.0680     0.0680    -0.0000    -0.0000    -0.0000 </r>
      <r>     0.7638     0.0705     0.0705     0.0705    -0.0000    -0.0000    -0.0000 </r>
      <r>     0.7877     0.0731     0.0731     0.0731    -0.0000    -0.0000    -0.0000 </r>
      <r>     0.8116     0.0757     0.0757     0.0757    -0.0000    -0.0000    -0.0000 </r>
      <r>     0.8354     0.0783     0.0783     0.0783    -0.0000    -0.0000    -0.0000 </r>
      <r>     0.8593     0.0810     0.0810     0.0810    -0.0000    -0.0000    -0.0000 </r>
      <r>     0.8832     0.0837     0.0837     0.0837    -0.0000    -0.0000    -0.0000 </r>
      <r>     0.9070     0.0865     0.0865     0.0865    -0.0000    -0.0000    -0.0000 </r>
      <r>     0.9309     0.0893     0.0893     0.0893    -0.0000    -0.0000    -0.0000 </r>
      <r>     0.9548     0.0922     0.0922     0.0922    -0.0000    -0.0000    -0.0000 </r>
      <r>     0.9786     0.0951     0.0951     0.0951    -0.0000    -0.0000    -0.0000 </r>
      <r>     1.0025     0.0980     0.0980     0.0980    -0.0000    -0.0000    -0.0000 </r>
      <r>     1.0264     0.1011     0.1011     0.1011    -0.0000    -0.0000    -0.0000 </r>
      <r>     1.0502     0.1042     0.1042     0.1042    -0.0000    -0.0000    -0.0000 </r>
      <r>     1.0741     0.1074     0.1074     0.1074    -0.0000    -0.0000    -0.0000 </r>
      <r>     1.0980     0.1106     0.1106     0.1106    -0.0000    -0.0000    -0.0000 </r>
      <r>     1.1218     0.1139     0.1139     0.1139    -0.0000    -0.0000    -0.0000 </r>
      <r>     1.1457     0.1173     0.1173     0.1173    -0.0000    -0.0000    -0.0000 </r>
      <r>     1.1696     0.1208     0.1208     0.1208    -0.0000    -0.0000    -0.0000 </r>
      <r>     1.1935     0.1243     0.1243     0.1243    -0.0000    -0.0000    -0.0000 </r>
      <r>     1.2173     0.1280     0.1280     0.1280    -0.0000    -0.0000    -0.0000 </r>
      <r>     1.2412     0.1318     0.1318     0.1318    -0.0000    -0.0000    -0.0000 </r>
      <r>     1.2651     0.1356     0.1356     0.1356    -0.0000    -0.0000    -0.0000 </r>
      <r>     1.2889     0.1396     0.1396     0.1396    -0.0000    -0.0000    -0.0000 </r>
      <r>     1.3128     0.1437     0.1437     0.1437    -0.0000    -0.0000    -0.0000 </r>
      <r>     1.3367     0.1479     0.1479     0.1479    -0.0000    -0.0000    -0.0000 </r>
      <r>     1.3605     0.1523     0.1523     0.1523    -0.0000    -0.0000    -0.0000 </r>
      <r>     1.3844     0.1568     0.1568     0.1568    -0.0000    -0.0000    -0.0000 </r>
      <r>     1.4083     0.1615     0.1615     0.1615    -0.0000    -0.0000    -0.0000 </r>
      <r>     1.4321     0.1664     0.1664     0.1664    -0.0000    -0.0000    -0.0000 </r>
      <r>     1.4560     0.1715     0.1715     0.1715    -0.0000    -0.0000    -0.0000 </r>
      <r>     1.4799     0.1769     0.1769     0.1769    -0.0000    -0.0000    -0.0000 </r>
      <r>     1.5038     0.1825     0.1825     0.1825    -0.0000    -0.0000    -0.0000 </r>
      <r>     1.5276     0.1884     0.1884     0.1884    -0.0000    -0.0000    -0.0000 </r>
      <r>     1.5515     0.1946     0.1946     0.1946    -0.0000    -0.0000    -0.0000 </r>
      <r>     1.5754     0.2012     0.2012     0.2012    -0.0000    -0.0000    -0.0000 </r>
      <r>     1.5992     0.2082     0.2082     0.2082    -0.0000    -0.0000    -0.0000 </r>
      <r>     1.6231     0.2155     0.2155     0.2155    -0.0000    -0.0000    -0.0000 </r>
      <r>     1.6470     0.2232     0.2232     0.2232    -0.0000    -0.0000    -0.0000 </r>
      <r>     1.6708     0.2314     0.2314     0.2314    -0.0000    -0.0000    -0.0000 </r>
      <r>     1.6947     0.2399     0.2399     0.2399    -0.0000    -0.0000    -0.0000 </r>
      <r>     1.7186     0.2489     0.2489     0.2489    -0.0000    -0.0000    -0.0000 </r>
      <r>     1.7424     0.2583     0.2583     0.2583    -0.0000    -0.0000    -0.0000 </r>
      <r>     1.7663     0.2683     0.2683     0.2683    -0.0000    -0.0000    -0.0000 </r>
      <r>     1.7902     0.2787     0.2787     0.2787    -0.0000    -0.0000    -0.0000 </r>
      <r>     1.8141     0.2896     0.2896     0.2896    -0.0000    -0.0000    -0.0000 </r>
      <r>     1.8379     0.3010     0.3010     0.3010    -0.0000    -0.0000    -0.0000 </r>
      <r>     1.8618     0.3129     0.3129     0.3129    -0.0000    -0.0000    -0.0000 </r>
      <r>     1.8857     0.3255     0.3255     0.3255    -0.0000     0.0000    -0.0000 </r>
      <r>     1.9095     0.3386     0.3386     0.3386    -0.0000     0.0000    -0.0000 </r>
      <r>     1.9334     0.3523     0.3523     0.3523    -0.0000     0.0000    -0.0000 </r>
      <r>     1.9573     0.3667     0.3667     0.3667    -0.0000     0.0000    -0.0000 </r>
      <r>     1.9811     0.3818     0.3818     0.3818    -0.0000     0.0000    -0.0000 </r>
      <r>     2.0050     0.3976     0.3976     0.3976    -0.0000     0.0000    -0.0000 </r>
      <r>     2.0289     0.4142     0.4142     0.4142    -0.0000     0.0000    -0.0000 </r>
      <r>     2.0527     0.4317     0.4317     0.4317    -0.0000     0.0000    -0.0000 </r>
      <r>     2.0766     0.4501     0.4501     0.4501    -0.0000     0.0000    -0.0000 </r>
      <r>     2.1005     0.4695     0.4695     0.4695    -0.0000     0.0000    -0.0000 </r>
      <r>     2.1244     0.4901     0.4901     0.4901    -0.0000    -0.0000    -0.0000 </r>
      <r>     2.1482     0.5121     0.5121     0.5121    -0.0000    -0.0000    -0.0000 </r>
      <r>     2.1721     0.5356     0.5356     0.5356    -0.0000    -0.0000    -0.0000 </r>
      <r>     2.1960     0.5609     0.5609     0.5609     0.0000    -0.0000    -0.0000 </r>
      <r>     2.2198     0.5883     0.5883     0.5883     0.0000    -0.0000    -0.0000 </r>
      <r>     2.2437     0.6181     0.6181     0.6181     0.0000    -0.0000    -0.0000 </r>
      <r>     2.2676     0.6506     0.6506     0.6506    -0.0000    -0.0000    -0.0000 </r>
      <r>     2.2914     0.6858     0.6858     0.6858    -0.0000    -0.0000    -0.0000 </r>
      <r>     2.3153     0.7237     0.7237     0.7237    -0.0000     0.0000    -0.0000 </r>
      <r>     2.3392     0.7645     0.7645     0.7645    -0.0000     0.0000    -0.0000 </r>
      <r>     2.3630     0.8079     0.8079     0.8079    -0.0000     0.0000    -0.0000 </r>
      <r>     2.3869     0.8541     0.8541     0.8541    -0.0000     0.0000    -0.0000 </r>
      <r>     2.4108     0.9029     0.9029     0.9029    -0.0000     0.0000    -0.0000 </r>
      <r>     2.4347     0.9544     0.9544     0.9544    -0.0000     0.0000    -0.0000 </r>
      <r>     2.4585     1.0085     1.0085     1.0085    -0.0000     0.0000    -0.0000 </r>
      <r>     2.4824     1.0653     1.0653     1.0653    -0.0000     0.0000    -0.0000 </r>
      <r>     2.5063     1.1247     1.1247     1.1247    -0.0000     0.0000    -0.0000 </r>
      <r>     2.5301     1.1870     1.1870     1.1870    -0.0000     0.0000    -0.0000 </r>
      <r>     2.5540     1.2522     1.2522     1.2522    -0.0000     0.0000    -0.0000 </r>
      <r>     2.5779     1.3209     1.3209     1.3209    -0.0000     0.0000    -0.0000 </r>
      <r>     2.6017     1.3932     1.3932     1.3932    -0.0000     0.0000    -0.0000 </r>
      <r>     2.6256     1.4697     1.4697     1.4697    -0.0000     0.0000    -0.0000 </r>
      <r>     2.6495     1.5505     1.5505     1.5505    -0.0000     0.0000    -0.0000 </r>
      <r>     2.6733     1.6360     1.6360     1.6360    -0.0000     0.0000    -0.0000 </r>
      <r>     2.6972     1.7264     1.7264     1.7264    -0.0000     0.0000    -0.0000 </r>
      <r>     2.7211     1.8221     1.8221     1.8221    -0.0000     0.0000    -0.0000 </r>
      <r>     2.7449     1.9232     1.9232     1.9232    -0.0000     0.0000    -0.0000 </r>
      <r>     2.7688     2.0299     2.0299     2.0299    -0.0000     0.0000    -0.0000 </r>
      <r>     2.7927     2.1427     2.1427     2.1427    -0.0000     0.0000    -0.0000 </r>
      <r>     2.8166     2.2617     2.2617     2.2617    -0.0000     0.0000    -0.0000 </r>
      <r>     2.8404     2.3873     2.3873     2.3873    -0.0000     0.0000     0.0000 </r>
      <r>     2.8643     2.5198     2.5198     2.5198    -0.0000     0.0000     0.0000 </r>
      <r>     2.8882     2.6600     2.6600     2.6600    -0.0000     0.0000     0.0000 </r>
      <r>     2.9120     2.8084     2.8084     2.8084    -0.0000     0.0000     0.0000 </r>
      <r>     2.9359     2.9665     2.9665     2.9665    -0.0000     0.0000     0.0000 </r>
      <r>     2.9598     3.1366     3.1366     3.1366    -0.0000     0.0000     0.0000 </r>
      <r>     2.9836     3.3235     3.3235     3.3235    -0.0000    -0.0000     0.0000 </r>
      <r>     3.0075     3.5351     3.5351     3.5351    -0.0000    -0.0000     0.0000 </r>
      <r>     3.0314     3.7821     3.7821     3.7821    -0.0000    -0.0000     0.0000 </r>
      <r>     3.0552     4.0772     4.0772     4.0772    -0.0000    -0.0000     0.0000 </r>
      <r>     3.0791     4.4318     4.4318     4.4318    -0.0000    -0.0000     0.0000 </r>
      <r>     3.1030     4.8506     4.8506     4.8506    -0.0000    -0.0000     0.0000 </r>
      <r>     3.1269     5.3192     5.3192     5.3192    -0.0000    -0.0000     0.0000 </r>
      <r>     3.1507     5.7865     5.7865     5.7865    -0.0000    -0.0000     0.0000 </r>
      <r>     3.1746     6.1704     6.1704     6.1704    -0.0000    -0.0000     0.0000 </r>
      <r>     3.1985     6.4162     6.4162     6.4162    -0.0000    -0.0000    -0.0000 </r>
      <r>     3.2223     6.5470     6.5470     6.5470    -0.0000    -0.0000    -0.0000 </r>
      <r>     3.2462     6.6261     6.6261     6.6261    -0.0000    -0.0000    -0.0000 </r>
      <r>     3.2701     6.6995     6.6995     6.6995    -0.0000    -0.0000    -0.0000 </r>
      <r>     3.2939     6.7853     6.7853     6.7853    -0.0000    -0.0000    -0.0000 </r>
      <r>     3.3178     6.8856     6.8856     6.8856    -0.0000    -0.0000    -0.0000 </r>
      <r>     3.3417     6.9981     6.9981     6.9981    -0.0000    -0.0000    -0.0000 </r>
      <r>     3.3655     7.1206     7.1206     7.1206    -0.0000    -0.0000    -0.0000 </r>
      <r>     3.3894     7.2521     7.2521     7.2521    -0.0000    -0.0000    -0.0000 </r>
      <r>     3.4133     7.3930     7.3930     7.3930    -0.0000    -0.0000    -0.0000 </r>
      <r>     3.4372     7.5442     7.5442     7.5442    -0.0000    -0.0000    -0.0000 </r>
      <r>     3.4610     7.7064     7.7064     7.7064    -0.0000    -0.0000    -0.0000 </r>
      <r>     3.4849     7.8802     7.8802     7.8802    -0.0000    -0.0000    -0.0000 </r>
      <r>     3.5088     8.0659     8.0659     8.0659    -0.0000     0.0000    -0.0000 </r>
      <r>     3.5326     8.2635     8.2635     8.2635    -0.0000     0.0000    -0.0000 </r>
      <r>     3.5565     8.4731     8.4731     8.4731    -0.0000     0.0000    -0.0000 </r>
      <r>     3.5804     8.6945     8.6945     8.6945    -0.0000     0.0000     0.0000 </r>
      <r>     3.6042     8.9288     8.9288     8.9288    -0.0000    -0.0000     0.0000 </r>
      <r>     3.6281     9.1785     9.1785     9.1785    -0.0000    -0.0000     0.0000 </r>
      <r>     3.6520     9.4478     9.4478     9.4478    -0.0000    -0.0000     0.0000 </r>
      <r>     3.6758     9.7430     9.7430     9.7430    -0.0000    -0.0000     0.0000 </r>
      <r>     3.6997    10.0727    10.0727    10.0727    -0.0000    -0.0000    -0.0000 </r>
      <r>     3.7236    10.4495    10.4495    10.4495    -0.0000    -0.0000    -0.0000 </r>
      <r>     3.7475    10.8910    10.8910    10.8910    -0.0000    -0.0000    -0.0000 </r>
      <r>     3.7713    11.4210    11.4210    11.4210    -0.0000    -0.0000    -0.0000 </r>
      <r>     3.7952    12.0630    12.0630    12.0630    -0.0000    -0.0000    -0.0000 </r>
      <r>     3.8191    12.8184    12.8184    12.8184    -0.0000    -0.0000    -0.0000 </r>
      <r>     3.8429    13.6308    13.6308    13.6308    -0.0000    -0.0000    -0.0000 </r>
      <r>     3.8668    14.3845    14.3845    14.3845    -0.0000    -0.0000    -0.0000 </r>
      <r>     3.8907    14.9873    14.9873    14.9873    -0.0000    -0.0000    -0.0000 </r>
      <r>     3.9145    15.4477    15.4477    15.4477    -0.0000    -0.0000    -0.0000 </r>
      <r>     3.9384    15.8220    15.8220    15.8220    -0.0000    -0.0000    -0.0000 </r>
      <r>     3.9623    16.1350    16.1350    16.1350     0.0000    -0.0000    -0.0000 </r>
      <r>     3.9861    16.3860    16.3860    16.3860     0.0000    -0.0000    -0.0000 </r>
      <r>     4.0100    16.5872    16.5872    16.5872     0.0000    -0.0000    -0.0000 </r>
      <r>     4.0339    16.7643    16.7643    16.7643     0.0000     0.0000    -0.0000 </r>
      <r>     4.0578    16.9393    16.9393    16.9393     0.0000    -0.0000    -0.0000 </r>
      <r>     4.0816    17.1259    17.1259    17.1259     0.0000    -0.0000    -0.0000 </r>
      <r>     4.1055    17.3338    17.3338    17.3338     0.0000    -0.0000    -0.0000 </r>
      <r>     4.1294    17.5725    17.5725    17.5725     0.0000    -0.0000    -0.0000 </r>
      <r>     4.1532    17.8531    17.8531    17.8531     0.0000    -0.0000    -0.0000 </r>
      <r>     4.1771    18.1877    18.1877    18.1877     0.0000    -0.0000    -0.0000 </r>
      <r>     4.2010    18.5846    18.5846    18.5846     0.0000    -0.0000    -0.0000 </r>
      <r>     4.2248    19.0367    19.0367    19.0367     0.0000    -0.0000    -0.0000 </r>
      <r>     4.2487    19.5038    19.5038    19.5038     0.0000    -0.0000    -0.0000 </r>
      <r>     4.2726    19.9180    19.9180    19.9180     0.0000    -0.0000    -0.0000 </r>
      <r>     4.2964    20.2389    20.2389    20.2389    -0.0000    -0.0000    -0.0000 </r>
      <r>     4.3203    20.4989    20.4989    20.4989    -0.0000     0.0000    -0.0000 </r>
      <r>     4.3442    20.7637    20.7637    20.7637    -0.0000     0.0000    -0.0000 </r>
      <r>     4.3680    21.0686    21.0686    21.0686    -0.0000     0.0000    -0.0000 </r>
      <r>     4.3919    21.4040    21.4040    21.4040    -0.0000     0.0000    -0.0000 </r>
      <r>     4.4158    21.7350    21.7350    21.7350    -0.0000     0.0000    -0.0000 </r>
      <r>     4.4397    22.0283    22.0283    22.0283    -0.0000     0.0000    -0.0000 </r>
      <r>     4.4635    22.2689    22.2689    22.2689    -0.0000     0.0000    -0.0000 </r>
      <r>     4.4874    22.4629    22.4629    22.4629    -0.0000     0.0000    -0.0000 </r>
      <r>     4.5113    22.6357    22.6357    22.6357    -0.0000     0.0000    -0.0000 </r>
      <r>     4.5351    22.8254    22.8254    22.8254    -0.0000     0.0000    -0.0000 </r>
      <r>     4.5590    23.0710    23.0710    23.0710     0.0000     0.0000    -0.0000 </r>
      <r>     4.5829    23.4044    23.4044    23.4044     0.0000     0.0000    -0.0000 </r>
      <r>     4.6067    23.8510    23.8510    23.8510     0.0000    -0.0000    -0.0000 </r>
      <r>     4.6306    24.4341    24.4341    24.4341     0.0000    -0.0000    -0.0000 </r>
      <r>     4.6545    25.1729    25.1729    25.1729     0.0000    -0.0000    -0.0000 </r>
      <r>     4.6783    26.0655    26.0655    26.0655     0.0000    -0.0000    -0.0000 </r>
      <r>     4.7022    27.0565    27.0565    27.0565     0.0000    -0.0000    -0.0000 </r>
      <r>     4.7261    28.0033    28.0033    28.0033     0.0000    -0.0000    -0.0000 </r>
      <r>     4.7500    28.6943    28.6943    28.6943     0.0000    -0.0000    -0.0000 </r>
      <r>     4.7738    28.9667    28.9667    28.9667     0.0000    -0.0000    -0.0000 </r>
      <r>     4.7977    28.8118    28.8118    28.8118     0.0000    -0.0000    -0.0000 </r>
      <r>     4.8216    28.3292    28.3292    28.3292     0.0000    -0.0000    -0.0000 </r>
      <r>     4.8454    27.6293    27.6293    27.6293     0.0000    -0.0000    -0.0000 </r>
      <r>     4.8693    26.7971    26.7971    26.7971     0.0000    -0.0000    -0.0000 </r>
      <r>     4.8932    25.8949    25.8949    25.8949     0.0000    -0.0000    -0.0000 </r>
      <r>     4.9170    24.9743    24.9743    24.9743     0.0000    -0.0000    -0.0000 </r>
      <r>     4.9409    24.0859    24.0859    24.0859     0.0000    -0.0000    -0.0000 </r>
      <r>     4.9648    23.2787    23.2787    23.2787     0.0000    -0.0000     0.0000 </r>
      <r>     4.9886    22.5871    22.5871    22.5871     0.0000    -0.0000     0.0000 </r>
      <r>     5.0125    22.0212    22.0212    22.0212     0.0000    -0.0000     0.0000 </r>
      <r>     5.0364    21.5693    21.5693    21.5693     0.0000    -0.0000     0.0000 </r>
      <r>     5.0603    21.2098    21.2098    21.2098     0.0000    -0.0000     0.0000 </r>
      <r>     5.0841    20.9205    20.9205    20.9205     0.0000    -0.0000     0.0000 </r>
      <r>     5.1080    20.6828    20.6828    20.6828     0.0000    -0.0000     0.0000 </r>
      <r>     5.1319    20.4826    20.4826    20.4826    -0.0000    -0.0000     0.0000 </r>
      <r>     5.1557    20.3105    20.3105    20.3105    -0.0000    -0.0000     0.0000 </r>
      <r>     5.1796    20.1628    20.1628    20.1628    -0.0000    -0.0000     0.0000 </r>
      <r>     5.2035    20.0419    20.0419    20.0419    -0.0000    -0.0000     0.0000 </r>
      <r>     5.2273    19.9544    19.9544    19.9544     0.0000    -0.0000     0.0000 </r>
      <r>     5.2512    19.9072    19.9072    19.9072     0.0000    -0.0000     0.0000 </r>
      <r>     5.2751    19.9033    19.9033    19.9033     0.0000    -0.0000    -0.0000 </r>
      <r>     5.2989    19.9381    19.9381    19.9381    -0.0000    -0.0000    -0.0000 </r>
      <r>     5.3228    20.0006    20.0006    20.0006    -0.0000    -0.0000    -0.0000 </r>
      <r>     5.3467    20.0730    20.0730    20.0730    -0.0000    -0.0000    -0.0000 </r>
      <r>     5.3706    20.1284    20.1284    20.1284    -0.0000    -0.0000    -0.0000 </r>
      <r>     5.3944    20.1313    20.1313    20.1313    -0.0000    -0.0000    -0.0000 </r>
      <r>     5.4183    20.0573    20.0573    20.0573    -0.0000    -0.0000    -0.0000 </r>
      <r>     5.4422    19.9144    19.9144    19.9144    -0.0000    -0.0000    -0.0000 </r>
      <r>     5.4660    19.7323    19.7323    19.7323    -0.0000     0.0000    -0.0000 </r>
      <r>     5.4899    19.5365    19.5365    19.5365    -0.0000     0.0000    -0.0000 </r>
      <r>     5.5138    19.3374    19.3374    19.3374    -0.0000     0.0000    -0.0000 </r>
      <r>     5.5376    19.1355    19.1355    19.1355    -0.0000     0.0000    -0.0000 </r>
      <r>     5.5615    18.9274    18.9274    18.9274    -0.0000     0.0000    -0.0000 </r>
      <r>     5.5854    18.7101    18.7101    18.7101    -0.0000     0.0000    -0.0000 </r>
      <r>     5.6092    18.4814    18.4814    18.4814    -0.0000     0.0000    -0.0000 </r>
      <r>     5.6331    18.2413    18.2413    18.2413    -0.0000     0.0000    -0.0000 </r>
      <r>     5.6570    17.9906    17.9906    17.9906    -0.0000     0.0000    -0.0000 </r>
      <r>     5.6809    17.7296    17.7296    17.7296    -0.0000     0.0000    -0.0000 </r>
      <r>     5.7047    17.4593    17.4593    17.4593    -0.0000     0.0000    -0.0000 </r>
      <r>     5.7286    17.1856    17.1856    17.1856    -0.0000     0.0000    -0.0000 </r>
      <r>     5.7525    16.9201    16.9201    16.9201    -0.0000     0.0000    -0.0000 </r>
      <r>     5.7763    16.6756    16.6756    16.6756    -0.0000     0.0000    -0.0000 </r>
      <r>     5.8002    16.4583    16.4583    16.4583    -0.0000     0.0000    -0.0000 </r>
      <r>     5.8241    16.2640    16.2640    16.2640    -0.0000     0.0000    -0.0000 </r>
      <r>     5.8479    16.0792    16.0792    16.0792    -0.0000     0.0000    -0.0000 </r>
      <r>     5.8718    15.8888    15.8888    15.8888    -0.0000     0.0000    -0.0000 </r>
      <r>     5.8957    15.6865    15.6865    15.6865    -0.0000     0.0000    -0.0000 </r>
      <r>     5.9195    15.4800    15.4800    15.4800    -0.0000     0.0000    -0.0000 </r>
      <r>     5.9434    15.2830    15.2830    15.2830    -0.0000     0.0000    -0.0000 </r>
      <r>     5.9673    15.1058    15.1058    15.1058    -0.0000     0.0000    -0.0000 </r>
      <r>     5.9911    14.9519    14.9519    14.9519    -0.0000     0.0000    -0.0000 </r>
      <r>     6.0150    14.8162    14.8162    14.8162    -0.0000     0.0000    -0.0000 </r>
      <r>     6.0389    14.6844    14.6844    14.6844    -0.0000     0.0000    -0.0000 </r>
      <r>     6.0628    14.5410    14.5410    14.5410    -0.0000     0.0000    -0.0000 </r>
      <r>     6.0866    14.3779    14.3779    14.3779     0.0000     0.0000    -0.0000 </r>
      <r>     6.1105    14.1899    14.1899    14.1899     0.0000     0.0000    -0.0000 </r>
      <r>     6.1344    13.9639    13.9639    13.9639     0.0000     0.0000    -0.0000 </r>
      <r>     6.1582    13.6867    13.6867    13.6867     0.0000     0.0000    -0.0000 </r>
      <r>     6.1821    13.3598    13.3598    13.3598     0.0000     0.0000    -0.0000 </r>
      <r>     6.2060    12.9971    12.9971    12.9971     0.0000     0.0000    -0.0000 </r>
      <r>     6.2298    12.6120    12.6120    12.6120     0.0000     0.0000    -0.0000 </r>
      <r>     6.2537    12.2158    12.2158    12.2158     0.0000     0.0000    -0.0000 </r>
      <r>     6.2776    11.8227    11.8227    11.8227     0.0000     0.0000    -0.0000 </r>
      <r>     6.3014    11.4472    11.4472    11.4472     0.0000     0.0000    -0.0000 </r>
      <r>     6.3253    11.0981    11.0981    11.0981     0.0000     0.0000    -0.0000 </r>
      <r>     6.3492    10.7761    10.7761    10.7761     0.0000     0.0000    -0.0000 </r>
      <r>     6.3731    10.4768    10.4768    10.4768     0.0000     0.0000    -0.0000 </r>
      <r>     6.3969    10.1934    10.1934    10.1934     0.0000     0.0000    -0.0000 </r>
      <r>     6.4208     9.9195     9.9195     9.9195     0.0000     0.0000    -0.0000 </r>
      <r>     6.4447     9.6497     9.6497     9.6497     0.0000     0.0000    -0.0000 </r>
      <r>     6.4685     9.3800     9.3800     9.3800     0.0000     0.0000    -0.0000 </r>
      <r>     6.4924     9.1085     9.1085     9.1085     0.0000     0.0000    -0.0000 </r>
      <r>     6.5163     8.8360     8.8360     8.8360     0.0000     0.0000    -0.0000 </r>
      <r>     6.5401     8.5657     8.5657     8.5657     0.0000     0.0000    -0.0000 </r>
      <r>     6.5640     8.3022     8.3022     8.3022     0.0000     0.0000    -0.0000 </r>
      <r>     6.5879     8.0494     8.0494     8.0494     0.0000     0.0000    -0.0000 </r>
      <r>     6.6117     7.8095     7.8095     7.8095     0.0000     0.0000    -0.0000 </r>
      <r>     6.6356     7.5839     7.5839     7.5839     0.0000     0.0000    -0.0000 </r>
      <r>     6.6595     7.3739     7.3739     7.3739     0.0000     0.0000    -0.0000 </r>
      <r>     6.6834     7.1800     7.1800     7.1800    -0.0000     0.0000    -0.0000 </r>
      <r>     6.7072     6.9991     6.9991     6.9991    -0.0000     0.0000    -0.0000 </r>
      <r>     6.7311     6.8206     6.8206     6.8206    -0.0000     0.0000    -0.0000 </r>
      <r>     6.7550     6.6277     6.6277     6.6277    -0.0000     0.0000    -0.0000 </r>
      <r>     6.7788     6.4099     6.4099     6.4099    -0.0000    -0.0000    -0.0000 </r>
      <r>     6.8027     6.1739     6.1739     6.1739    -0.0000    -0.0000    -0.0000 </r>
      <r>     6.8266     5.9351     5.9351     5.9351    -0.0000    -0.0000     0.0000 </r>
      <r>     6.8504     5.7050     5.7050     5.7050    -0.0000    -0.0000     0.0000 </r>
      <r>     6.8743     5.4897     5.4897     5.4897    -0.0000    -0.0000     0.0000 </r>
      <r>     6.8982     5.2913     5.2913     5.2913    -0.0000     0.0000    -0.0000 </r>
      <r>     6.9220     5.1105     5.1105     5.1105    -0.0000     0.0000    -0.0000 </r>
      <r>     6.9459     4.9466     4.9466     4.9466    -0.0000     0.0000    -0.0000 </r>
      <r>     6.9698     4.7987     4.7987     4.7987     0.0000     0.0000    -0.0000 </r>
      <r>     6.9937     4.6653     4.6653     4.6653     0.0000     0.0000    -0.0000 </r>
      <r>     7.0175     4.5440     4.5440     4.5440     0.0000     0.0000    -0.0000 </r>
      <r>     7.0414     4.4321     4.4321     4.4321     0.0000     0.0000    -0.0000 </r>
      <r>     7.0653     4.3275     4.3275     4.3275     0.0000     0.0000    -0.0000 </r>
      <r>     7.0891     4.2293     4.2293     4.2293     0.0000     0.0000    -0.0000 </r>
      <r>     7.1130     4.1375     4.1375     4.1375     0.0000     0.0000    -0.0000 </r>
      <r>     7.1369     4.0529     4.0529     4.0529     0.0000     0.0000    -0.0000 </r>
      <r>     7.1607     3.9764     3.9764     3.9764     0.0000     0.0000    -0.0000 </r>
      <r>     7.1846     3.9088     3.9088     3.9088    -0.0000    -0.0000    -0.0000 </r>
      <r>     7.2085     3.8506     3.8506     3.8506    -0.0000    -0.0000    -0.0000 </r>
      <r>     7.2323     3.8016     3.8016     3.8016    -0.0000    -0.0000    -0.0000 </r>
      <r>     7.2562     3.7614     3.7614     3.7614    -0.0000    -0.0000    -0.0000 </r>
      <r>     7.2801     3.7294     3.7294     3.7294    -0.0000    -0.0000    -0.0000 </r>
      <r>     7.3040     3.7044     3.7044     3.7044    -0.0000    -0.0000    -0.0000 </r>
      <r>     7.3278     3.6848     3.6848     3.6848    -0.0000    -0.0000    -0.0000 </r>
      <r>     7.3517     3.6694     3.6694     3.6694    -0.0000    -0.0000    -0.0000 </r>
      <r>     7.3756     3.6578     3.6578     3.6578    -0.0000    -0.0000    -0.0000 </r>
      <r>     7.3994     3.6501     3.6501     3.6501    -0.0000    -0.0000    -0.0000 </r>
      <r>     7.4233     3.6455     3.6455     3.6455    -0.0000    -0.0000    -0.0000 </r>
      <r>     7.4472     3.6430     3.6430     3.6430    -0.0000    -0.0000    -0.0000 </r>
      <r>     7.4710     3.6415     3.6415     3.6415    -0.0000    -0.0000    -0.0000 </r>
      <r>     7.4949     3.6403     3.6403     3.6403    -0.0000    -0.0000    -0.0000 </r>
      <r>     7.5188     3.6396     3.6396     3.6396    -0.0000    -0.0000    -0.0000 </r>
      <r>     7.5426     3.6395     3.6395     3.6395    -0.0000    -0.0000    -0.0000 </r>
      <r>     7.5665     3.6404     3.6404     3.6404    -0.0000    -0.0000    -0.0000 </r>
      <r>     7.5904     3.6418     3.6418     3.6418    -0.0000    -0.0000    -0.0000 </r>
      <r>     7.6142     3.6431     3.6431     3.6431    -0.0000    -0.0000    -0.0000 </r>
      <r>     7.6381     3.6428     3.6428     3.6428    -0.0000     0.0000    -0.0000 </r>
      <r>     7.6620     3.6382     3.6382     3.6382    -0.0000     0.0000    -0.0000 </r>
      <r>     7.6859     3.6260     3.6260     3.6260    -0.0000     0.0000    -0.0000 </r>
      <r>     7.7097     3.6036     3.6036     3.6036    -0.0000     0.0000    -0.0000 </r>
      <r>     7.7336     3.5695     3.5695     3.5695    -0.0000     0.0000    -0.0000 </r>
      <r>     7.7575     3.5235     3.5235     3.5235    -0.0000     0.0000    -0.0000 </r>
      <r>     7.7813     3.4662     3.4662     3.4662    -0.0000     0.0000    -0.0000 </r>
      <r>     7.8052     3.3995     3.3995     3.3995    -0.0000    -0.0000    -0.0000 </r>
      <r>     7.8291     3.3271     3.3271     3.3271    -0.0000    -0.0000    -0.0000 </r>
      <r>     7.8529     3.2541     3.2541     3.2541    -0.0000    -0.0000    -0.0000 </r>
      <r>     7.8768     3.1854     3.1854     3.1854    -0.0000    -0.0000    -0.0000 </r>
      <r>     7.9007     3.1234     3.1234     3.1234    -0.0000     0.0000    -0.0000 </r>
      <r>     7.9245     3.0677     3.0677     3.0677    -0.0000     0.0000    -0.0000 </r>
      <r>     7.9484     3.0169     3.0169     3.0169    -0.0000     0.0000    -0.0000 </r>
      <r>     7.9723     2.9701     2.9701     2.9701    -0.0000     0.0000    -0.0000 </r>
      <r>     7.9962     2.9270     2.9270     2.9270    -0.0000     0.0000    -0.0000 </r>
      <r>     8.0200     2.8871     2.8871     2.8871    -0.0000     0.0000    -0.0000 </r>
      <r>     8.0439     2.8494     2.8494     2.8494    -0.0000     0.0000    -0.0000 </r>
      <r>     8.0678     2.8127     2.8127     2.8127    -0.0000     0.0000    -0.0000 </r>
      <r>     8.0916     2.7760     2.7760     2.7760    -0.0000     0.0000    -0.0000 </r>
      <r>     8.1155     2.7383     2.7383     2.7383    -0.0000     0.0000    -0.0000 </r>
      <r>     8.1394     2.6992     2.6992     2.6992    -0.0000     0.0000    -0.0000 </r>
      <r>     8.1632     2.6587     2.6587     2.6587    -0.0000     0.0000    -0.0000 </r>
      <r>     8.1871     2.6178     2.6178     2.6178    -0.0000     0.0000    -0.0000 </r>
      <r>     8.2110     2.5777     2.5777     2.5777    -0.0000     0.0000    -0.0000 </r>
      <r>     8.2348     2.5399     2.5399     2.5399    -0.0000     0.0000    -0.0000 </r>
      <r>     8.2587     2.5058     2.5058     2.5058    -0.0000     0.0000    -0.0000 </r>
      <r>     8.2826     2.4755     2.4755     2.4755    -0.0000     0.0000    -0.0000 </r>
      <r>     8.3065     2.4474     2.4474     2.4474    -0.0000     0.0000    -0.0000 </r>
      <r>     8.3303     2.4176     2.4176     2.4176    -0.0000     0.0000    -0.0000 </r>
      <r>     8.3542     2.3827     2.3827     2.3827    -0.0000    -0.0000    -0.0000 </r>
      <r>     8.3781     2.3420     2.3420     2.3420    -0.0000    -0.0000    -0.0000 </r>
      <r>     8.4019     2.2977     2.2977     2.2977    -0.0000    -0.0000    -0.0000 </r>
      <r>     8.4258     2.2522     2.2522     2.2522    -0.0000    -0.0000    -0.0000 </r>
      <r>     8.4497     2.2075     2.2075     2.2075    -0.0000    -0.0000    -0.0000 </r>
      <r>     8.4735     2.1646     2.1646     2.1646    -0.0000    -0.0000    -0.0000 </r>
      <r>     8.4974     2.1241     2.1241     2.1241    -0.0000    -0.0000    -0.0000 </r>
      <r>     8.5213     2.0862     2.0862     2.0862     0.0000    -0.0000     0.0000 </r>
      <r>     8.5451     2.0511     2.0511     2.0511     0.0000    -0.0000     0.0000 </r>
      <r>     8.5690     2.0188     2.0188     2.0188     0.0000    -0.0000     0.0000 </r>
      <r>     8.5929     1.9887     1.9887     1.9887     0.0000    -0.0000     0.0000 </r>
      <r>     8.6168     1.9602     1.9602     1.9602    -0.0000    -0.0000     0.0000 </r>
      <r>     8.6406     1.9325     1.9325     1.9325    -0.0000    -0.0000    -0.0000 </r>
      <r>     8.6645     1.9049     1.9049     1.9049    -0.0000    -0.0000    -0.0000 </r>
      <r>     8.6884     1.8767     1.8767     1.8767    -0.0000    -0.0000    -0.0000 </r>
      <r>     8.7122     1.8471     1.8471     1.8471    -0.0000    -0.0000    -0.0000 </r>
      <r>     8.7361     1.8154     1.8154     1.8154    -0.0000    -0.0000    -0.0000 </r>
      <r>     8.7600     1.7810     1.7810     1.7810    -0.0000     0.0000    -0.0000 </r>
      <r>     8.7838     1.7438     1.7438     1.7438    -0.0000     0.0000    -0.0000 </r>
      <r>     8.8077     1.7044     1.7044     1.7044    -0.0000     0.0000    -0.0000 </r>
      <r>     8.8316     1.6648     1.6648     1.6648    -0.0000     0.0000    -0.0000 </r>
      <r>     8.8554     1.6278     1.6278     1.6278    -0.0000     0.0000    -0.0000 </r>
      <r>     8.8793     1.5931     1.5931     1.5931    -0.0000     0.0000    -0.0000 </r>
      <r>     8.9032     1.5564     1.5564     1.5564    -0.0000    -0.0000    -0.0000 </r>
      <r>     8.9271     1.5108     1.5108     1.5108    -0.0000     0.0000    -0.0000 </r>
      <r>     8.9509     1.4543     1.4543     1.4543    -0.0000     0.0000    -0.0000 </r>
      <r>     8.9748     1.3916     1.3916     1.3916    -0.0000     0.0000    -0.0000 </r>
      <r>     8.9987     1.3297     1.3297     1.3297    -0.0000     0.0000    -0.0000 </r>
      <r>     9.0225     1.2726     1.2726     1.2726     0.0000     0.0000    -0.0000 </r>
      <r>     9.0464     1.2220     1.2220     1.2220     0.0000     0.0000    -0.0000 </r>
      <r>     9.0703     1.1784     1.1784     1.1784     0.0000     0.0000    -0.0000 </r>
      <r>     9.0941     1.1422     1.1422     1.1422     0.0000     0.0000    -0.0000 </r>
      <r>     9.1180     1.1133     1.1133     1.1133     0.0000     0.0000    -0.0000 </r>
      <r>     9.1419     1.0913     1.0913     1.0913     0.0000     0.0000    -0.0000 </r>
      <r>     9.1657     1.0754     1.0754     1.0754     0.0000     0.0000    -0.0000 </r>
      <r>     9.1896     1.0649     1.0649     1.0649     0.0000     0.0000    -0.0000 </r>
      <r>     9.2135     1.0587     1.0587     1.0587     0.0000     0.0000    -0.0000 </r>
      <r>     9.2373     1.0550     1.0550     1.0550     0.0000     0.0000    -0.0000 </r>
      <r>     9.2612     1.0515     1.0515     1.0515     0.0000     0.0000    -0.0000 </r>
      <r>     9.2851     1.0461     1.0461     1.0461    -0.0000     0.0000    -0.0000 </r>
      <r>     9.3090     1.0375     1.0375     1.0375    -0.0000     0.0000    -0.0000 </r>
      <r>     9.3328     1.0259     1.0259     1.0259    -0.0000     0.0000    -0.0000 </r>
      <r>     9.3567     1.0128     1.0128     1.0128    -0.0000     0.0000    -0.0000 </r>
      <r>     9.3806     0.9996     0.9996     0.9996    -0.0000     0.0000    -0.0000 </r>
      <r>     9.4044     0.9869     0.9869     0.9869    -0.0000     0.0000    -0.0000 </r>
      <r>     9.4283     0.9746     0.9746     0.9746    -0.0000     0.0000    -0.0000 </r>
      <r>     9.4522     0.9624     0.9624     0.9624    -0.0000     0.0000    -0.0000 </r>
      <r>     9.4760     0.9496     0.9496     0.9496    -0.0000     0.0000    -0.0000 </r>
      <r>     9.4999     0.9359     0.9359     0.9359    -0.0000     0.0000    -0.0000 </r>
      <r>     9.5238     0.9210     0.9210     0.9210    -0.0000     0.0000    -0.0000 </r>
      <r>     9.5476     0.9049     0.9049     0.9049    -0.0000     0.0000    -0.0000 </r>
      <r>     9.5715     0.8876     0.8876     0.8876     0.0000     0.0000    -0.0000 </r>
      <r>     9.5954     0.8694     0.8694     0.8694     0.0000     0.0000    -0.0000 </r>
      <r>     9.6193     0.8505     0.8505     0.8505     0.0000     0.0000    -0.0000 </r>
      <r>     9.6431     0.8308     0.8308     0.8308     0.0000     0.0000    -0.0000 </r>
      <r>     9.6670     0.8103     0.8103     0.8103     0.0000    -0.0000    -0.0000 </r>
      <r>     9.6909     0.7886     0.7886     0.7886     0.0000    -0.0000    -0.0000 </r>
      <r>     9.7147     0.7649     0.7649     0.7649     0.0000    -0.0000    -0.0000 </r>
      <r>     9.7386     0.7390     0.7390     0.7390     0.0000    -0.0000    -0.0000 </r>
      <r>     9.7625     0.7113     0.7113     0.7113     0.0000    -0.0000    -0.0000 </r>
      <r>     9.7863     0.6831     0.6831     0.6831     0.0000    -0.0000    -0.0000 </r>
      <r>     9.8102     0.6553     0.6553     0.6553     0.0000    -0.0000    -0.0000 </r>
      <r>     9.8341     0.6288     0.6288     0.6288     0.0000    -0.0000    -0.0000 </r>
      <r>     9.8579     0.6042     0.6042     0.6042     0.0000    -0.0000    -0.0000 </r>
      <r>     9.8818     0.5816     0.5816     0.5816     0.0000    -0.0000    -0.0000 </r>
      <r>     9.9057     0.5607     0.5607     0.5607     0.0000     0.0000    -0.0000 </r>
      <r>     9.9296     0.5414     0.5414     0.5414     0.0000     0.0000    -0.0000 </r>
      <r>     9.9534     0.5234     0.5234     0.5234     0.0000     0.0000    -0.0000 </r>
      <r>     9.9773     0.5066     0.5066     0.5066     0.0000     0.0000    -0.0000 </r>
      <r>    10.0012     0.4908     0.4908     0.4908     0.0000     0.0000    -0.0000 </r>
      <r>    10.0250     0.4759     0.4759     0.4759     0.0000     0.0000    -0.0000 </r>
      <r>    10.0489     0.4617     0.4617     0.4617     0.0000     0.0000    -0.0000 </r>
      <r>    10.0728     0.4482     0.4482     0.4482     0.0000     0.0000    -0.0000 </r>
      <r>    10.0966     0.4355     0.4355     0.4355     0.0000     0.0000    -0.0000 </r>
      <r>    10.1205     0.4239     0.4239     0.4239     0.0000     0.0000    -0.0000 </r>
      <r>    10.1444     0.4136     0.4136     0.4136     0.0000     0.0000    -0.0000 </r>
      <r>    10.1682     0.4053     0.4053     0.4053     0.0000     0.0000    -0.0000 </r>
      <r>    10.1921     0.3992     0.3992     0.3992     0.0000     0.0000    -0.0000 </r>
      <r>    10.2160     0.3956     0.3956     0.3956     0.0000     0.0000    -0.0000 </r>
      <r>    10.2399     0.3942     0.3942     0.3942     0.0000     0.0000    -0.0000 </r>
      <r>    10.2637     0.3938     0.3938     0.3938     0.0000     0.0000    -0.0000 </r>
      <r>    10.2876     0.3929     0.3929     0.3929     0.0000     0.0000    -0.0000 </r>
      <r>    10.3115     0.3903     0.3903     0.3903     0.0000     0.0000    -0.0000 </r>
      <r>    10.3353     0.3856     0.3856     0.3856     0.0000     0.0000    -0.0000 </r>
      <r>    10.3592     0.3789     0.3789     0.3789     0.0000     0.0000    -0.0000 </r>
      <r>    10.3831     0.3700     0.3700     0.3700     0.0000     0.0000    -0.0000 </r>
      <r>    10.4069     0.3589     0.3589     0.3589     0.0000     0.0000    -0.0000 </r>
      <r>    10.4308     0.3458     0.3458     0.3458     0.0000     0.0000    -0.0000 </r>
      <r>    10.4547     0.3312     0.3312     0.3312     0.0000     0.0000    -0.0000 </r>
      <r>    10.4785     0.3164     0.3164     0.3164     0.0000     0.0000    -0.0000 </r>
      <r>    10.5024     0.3026     0.3026     0.3026     0.0000     0.0000    -0.0000 </r>
      <r>    10.5263     0.2905     0.2905     0.2905     0.0000     0.0000    -0.0000 </r>
      <r>    10.5502     0.2802     0.2802     0.2802     0.0000     0.0000    -0.0000 </r>
      <r>    10.5740     0.2716     0.2716     0.2716     0.0000     0.0000    -0.0000 </r>
      <r>    10.5979     0.2643     0.2643     0.2643     0.0000     0.0000    -0.0000 </r>
      <r>    10.6218     0.2582     0.2582     0.2582     0.0000    -0.0000    -0.0000 </r>
      <r>    10.6456     0.2529     0.2529     0.2529     0.0000    -0.0000    -0.0000 </r>
      <r>    10.6695     0.2483     0.2483     0.2483     0.0000    -0.0000     0.0000 </r>
      <r>    10.6934     0.2442     0.2442     0.2442     0.0000     0.0000     0.0000 </r>
      <r>    10.7172     0.2406     0.2406     0.2406     0.0000     0.0000     0.0000 </r>
      <r>    10.7411     0.2375     0.2375     0.2375     0.0000     0.0000     0.0000 </r>
      <r>    10.7650     0.2347     0.2347     0.2347     0.0000     0.0000     0.0000 </r>
      <r>    10.7888     0.2322     0.2322     0.2322     0.0000     0.0000     0.0000 </r>
      <r>    10.8127     0.2298     0.2298     0.2298     0.0000     0.0000     0.0000 </r>
      <r>    10.8366     0.2274     0.2274     0.2274     0.0000     0.0000     0.0000 </r>
      <r>    10.8604     0.2249     0.2249     0.2249     0.0000     0.0000     0.0000 </r>
      <r>    10.8843     0.2224     0.2224     0.2224     0.0000     0.0000     0.0000 </r>
      <r>    10.9082     0.2199     0.2199     0.2199     0.0000     0.0000     0.0000 </r>
      <r>    10.9321     0.2178     0.2178     0.2178     0.0000     0.0000     0.0000 </r>
      <r>    10.9559     0.2161     0.2161     0.2161     0.0000     0.0000     0.0000 </r>
      <r>    10.9798     0.2148     0.2148     0.2148     0.0000     0.0000     0.0000 </r>
      <r>    11.0037     0.2139     0.2139     0.2139     0.0000     0.0000     0.0000 </r>
[...]
     <r>     9.3351     0.2120     0.2120     0.2120     0.0000     0.0000     0.0000 </r>
     <r>     9.3451     0.2124     0.2124     0.2124    -0.0000    -0.0000    -0.0000 </r>
     <r>     9.3551     0.2128     0.2128     0.2128    -0.0000    -0.0000     0.0000 </r>
     <r>     9.3651     0.2131     0.2131     0.2131    -0.0000    -0.0000    -0.0000 </r>
     <r>     9.3751     0.2133     0.2133     0.2133    -0.0000    -0.0000     0.0000 </r>
     <r>     9.3851     0.2134     0.2134     0.2134    -0.0000    -0.0000     0.0000 </r>
     <r>     9.3951     0.2135     0.2135     0.2135     0.0000     0.0000    -0.0000 </r>
     <r>     9.4051     0.1951     0.1951     0.1951    -0.0000    -0.0000    -0.0000 </r>
     <r>     9.4151     0.1719     0.1719     0.1719     0.0000     0.0000     0.0000 </r>
     <r>     9.4252     0.1706     0.1706     0.1706     0.0000     0.0000     0.0000 </r>
     <r>     9.4352     0.1725     0.1725     0.1725     0.0000     0.0000    -0.0000 </r>
     <r>     9.4452     0.1582     0.1582     0.1582    -0.0000    -0.0000     0.0000 </r>
     <r>     9.4552     0.1648     0.1648     0.1648    -0.0000     0.0000     0.0000 </r>
     <r>     9.4652     0.1713     0.1713     0.1713    -0.0000     0.0000     0.0000 </r>
     <r>     9.4752     0.1776     0.1776     0.1776    -0.0000    -0.0000    -0.0000 </r>
     <r>     9.4852     0.1838     0.1838     0.1838    -0.0000    -0.0000     0.0000 </r>
     <r>     9.4952     0.1897     0.1897     0.1897     0.0000    -0.0000     0.0000 </r>
     <r>     9.5052     0.1955     0.1955     0.1955     0.0000    -0.0000     0.0000 </r>
     <r>     9.5152     0.2012     0.2012     0.2012     0.0000     0.0000     0.0000 </r>
     <r>     9.5253     0.2067     0.2067     0.2067     0.0000     0.0000    -0.0000 </r>
     <r>     9.5353     0.2120     0.2120     0.2120     0.0000     0.0000     0.0000 </r>
     <r>     9.5453     0.2205     0.2205     0.2205    -0.0000    -0.0000     0.0000 </r>
     <r>     9.5553     0.2224     0.2224     0.2224     0.0000     0.0000    -0.0000 </r>
     <r>     9.5653     0.2242     0.2242     0.2242     0.0000     0.0000    -0.0000 </r>
     <r>     9.5753     0.2259     0.2259     0.2259    -0.0000    -0.0000     0.0000 </r>
     <r>     9.5853     0.2276     0.2276     0.2276     0.0000     0.0000     0.0000 </r>
     <r>     9.5953     0.2323     0.2323     0.2323    -0.0000    -0.0000    -0.0000 </r>
     <r>     9.6053     0.2336     0.2336     0.2336    -0.0000    -0.0000     0.0000 </r>
     <r>     9.6153     0.2348     0.2348     0.2348     0.0000     0.0000     0.0000 </r>
     <r>     9.6254     0.2359     0.2359     0.2359    -0.0000     0.0000    -0.0000 </r>
     <r>     9.6354     0.2368     0.2368     0.2368     0.0000     0.0000    -0.0000 </r>
     <r>     9.6454     0.2376     0.2376     0.2376    -0.0000    -0.0000     0.0000 </r>
     <r>     9.6554     0.2383     0.2383     0.2383     0.0000    -0.0000     0.0000 </r>
     <r>     9.6654     0.2389     0.2389     0.2389    -0.0000     0.0000     0.0000 </r>
     <r>     9.6754     0.2394     0.2394     0.2394     0.0000    -0.0000    -0.0000 </r>
     <r>     9.6854     0.2398     0.2398     0.2398    -0.0000     0.0000    -0.0000 </r>
     <r>     9.6954     0.2400     0.2400     0.2400     0.0000    -0.0000     0.0000 </r>
     <r>     9.7054     0.2402     0.2402     0.2402    -0.0000     0.0000     0.0000 </r>
     <r>     9.7154     0.2402     0.2402     0.2402    -0.0000    -0.0000    -0.0000 </r>
     <r>     9.7255     0.2401     0.2401     0.2401    -0.0000    -0.0000     0.0000 </r>
    </set>
   </array>
  </conductivity>
  <dos>
   <i name="efermi">      4.72545096 </i>
   <total>
    <array>
     <dimension dim="1">gridpoints</dimension>
     <dimension dim="2">spin</dimension>
     <field>energy</field>
     <field>total</field>
     <field>integrated</field>
     <set>
      <set comment="spin 1">
       <r>   -10.7324     0.0000     0.0000 </r>
       <r>   -10.6595     0.0000     0.0000 </r>
       <r>   -10.5866     0.0000     0.0000 </r>
       <r>   -10.5137     0.0000     0.0000 </r>
       <r>   -10.4407     0.0000     0.0000 </r>
       <r>   -10.3678     0.0000     0.0000 </r>
       <r>   -10.2949     0.0000     0.0000 </r>
       <r>   -10.2220     0.0000     0.0000 </r>
       <r>   -10.1491     0.0000     0.0000 </r>
       <r>   -10.0762     0.0000     0.0000 </r>
       <r>   -10.0033     0.0000     0.0000 </r>
       <r>    -9.9304     0.0000     0.0000 </r>
       <r>    -9.8575     0.0000     0.0000 </r>
       <r>    -9.7846     0.0000     0.0000 </r>
       <r>    -9.7117     0.0045     0.0000 </r>
       <r>    -9.6388     0.0921     0.0029 </r>
       <r>    -9.5659     0.2917     0.0162 </r>
       <r>    -9.4930     0.5422     0.0470 </r>
       <r>    -9.4201     0.6869     0.0925 </r>
       <r>    -9.3472     0.7229     0.1445 </r>
       <r>    -9.2743     0.7588     0.1982 </r>
       <r>    -9.2014     0.8380     0.2562 </r>
       <r>    -9.1285     0.9459     0.3211 </r>
       <r>    -9.0556     1.0600     0.3942 </r>
       <r>    -8.9827     1.3459     0.4780 </r>
       <r>    -8.9098     1.8499     0.5953 </r>
       <r>    -8.8369     2.2241     0.7445 </r>
       <r>    -8.7640     1.9035     0.8947 </r>
       <r>    -8.6911     1.6367     1.0234 </r>
       <r>    -8.6182     1.5879     1.1397 </r>
       <r>    -8.5453     1.5671     1.2548 </r>
       <r>    -8.4724     1.5319     1.3679 </r>
       <r>    -8.3995     1.4823     1.4778 </r>
       <r>    -8.3265     1.9960     1.5988 </r>
       <r>    -8.2536     1.5281     1.7269 </r>
       <r>    -8.1807     0.8408     1.8112 </r>
       <r>    -8.1078     1.1034     1.8754 </r>
       <r>    -8.0349     1.7776     1.9797 </r>
       <r>    -7.9620     2.2812     2.1333 </r>
       <r>    -7.8891     2.3951     2.3043 </r>
       <r>    -7.8162     2.5596     2.4904 </r>
       <r>    -7.7433     2.5778     2.6699 </r>
       <r>    -7.6704     2.7757     2.8653 </r>
       <r>    -7.5975     5.7845     3.0993 </r>
       <r>    -7.5246     5.4020     3.5067 </r>
       <r>    -7.4517     4.2755     3.8594 </r>
       <r>    -7.3788     3.2917     4.1369 </r>
       <r>    -7.3059     2.8064     4.3350 </r>
       <r>    -7.2330     3.0118     4.5469 </r>
       <r>    -7.1601     3.2497     4.7749 </r>
       <r>    -7.0872     5.4372     5.0852 </r>
       <r>    -7.0143     5.0791     5.4828 </r>
       <r>    -6.9414     5.4518     5.8599 </r>
       <r>    -6.8685     5.8176     6.2741 </r>
       <r>    -6.7956     5.1904     6.6775 </r>
       <r>    -6.7227     3.8714     6.9705 </r>
       <r>    -6.6498     3.6174     7.2434 </r>
       <r>    -6.5769     3.3748     7.4982 </r>
       <r>    -6.5040     3.0550     7.7378 </r>
       <r>    -6.4311     1.8127     7.9818 </r>
       <r>    -6.3582     0.0000     8.0000 </r>
       <r>    -6.2853     0.0000     8.0000 </r>
       <r>    -6.2123     0.0000     8.0000 </r>
       <r>    -6.1394     0.0000     8.0000 </r>
       <r>    -6.0665     0.0000     8.0000 </r>
       <r>    -5.9936     0.0000     8.0000 </r>
       <r>    -5.9207     0.0000     8.0000 </r>
       <r>    -5.8478     0.0000     8.0000 </r>
       <r>    -5.7749     0.0000     8.0000 </r>
       <r>    -5.7020     0.0000     8.0000 </r>
       <r>    -5.6291     0.0000     8.0000 </r>
       <r>    -5.5562     0.0000     8.0000 </r>
       <r>    -5.4833     0.0000     8.0000 </r>
       <r>    -5.4104     0.0000     8.0000 </r>
       <r>    -5.3375     0.0000     8.0000 </r>
       <r>    -5.2646     0.0000     8.0000 </r>
       <r>    -5.1917     0.0000     8.0000 </r>
       <r>    -5.1188     0.0000     8.0000 </r>
       <r>    -5.0459     0.0000     8.0000 </r>
       <r>    -4.9730     0.0000     8.0000 </r>
       <r>    -4.9001     0.0000     8.0000 </r>
       <r>    -4.8272     0.0000     8.0000 </r>
       <r>    -4.7543     0.0000     8.0000 </r>
       <r>    -4.6814     0.0000     8.0000 </r>
       <r>    -4.6085     0.0000     8.0000 </r>
       <r>    -4.5356     0.0000     8.0000 </r>
       <r>    -4.4627     0.0000     8.0000 </r>
       <r>    -4.3898     0.0000     8.0000 </r>
       <r>    -4.3169     0.0000     8.0000 </r>
       <r>    -4.2440     0.0000     8.0000 </r>
       <r>    -4.1711     0.0000     8.0000 </r>
       <r>    -4.0981     0.0000     8.0000 </r>
       <r>    -4.0252     0.0000     8.0000 </r>
       <r>    -3.9523     0.0000     8.0000 </r>
       <r>    -3.8794     0.0000     8.0000 </r>
       <r>    -3.8065     0.0000     8.0000 </r>
       <r>    -3.7336     0.0000     8.0000 </r>
       <r>    -3.6607     0.0000     8.0000 </r>
       <r>    -3.5878     0.0000     8.0000 </r>
       <r>    -3.5149     0.0000     8.0000 </r>
       <r>    -3.4420     0.0000     8.0000 </r>
       <r>    -3.3691     0.0000     8.0000 </r>
       <r>    -3.2962     0.0000     8.0000 </r>
       <r>    -3.2233     0.0000     8.0000 </r>
       <r>    -3.1504     0.2635     8.0051 </r>
       <r>    -3.0775     2.5144     8.1073 </r>
       <r>    -3.0046     2.6733     8.2710 </r>
       <r>    -2.9317     4.1966     8.5185 </r>
       <r>    -2.8588     8.1230     8.9429 </r>
       <r>    -2.7859     8.3407     9.7183 </r>
       <r>    -2.7130     6.4172    10.1922 </r>
       <r>    -2.6401     6.4327    10.6604 </r>
       <r>    -2.5672     6.7974    11.1477 </r>
       <r>    -2.4943     4.8229    11.5493 </r>
       <r>    -2.4214     3.7624    11.8610 </r>
       <r>    -2.3485     3.2693    12.0970 </r>
       <r>    -2.2756     2.1585    12.2712 </r>
       <r>    -2.2027     2.1034    12.4265 </r>
       <r>    -2.1298     2.0511    12.5780 </r>
       <r>    -2.0569     2.0018    12.7257 </r>
       <r>    -1.9839     1.9554    12.8699 </r>
       <r>    -1.9110     1.9120    13.0109 </r>
       <r>    -1.8381     1.8714    13.1488 </r>
       <r>    -1.7652     1.8338    13.2838 </r>
       <r>    -1.6923     1.5174    13.4057 </r>
       <r>    -1.6194     1.4987    13.5157 </r>
       <r>    -1.5465     1.4768    13.6241 </r>
       <r>    -1.4736     1.4534    13.7311 </r>
       <r>    -1.4007     1.4212    13.8359 </r>
       <r>    -1.3278     1.3875    13.9383 </r>
       <r>    -1.2549     1.3523    14.0382 </r>
       <r>    -1.1820     1.3156    14.1355 </r>
       <r>    -1.1091     1.2773    14.2300 </r>
       <r>    -1.0362     1.2375    14.3217 </r>
       <r>    -0.9633     1.1962    14.4104 </r>
       <r>    -0.8904     1.2114    14.5009 </r>
       <r>    -0.8175     1.1577    14.5872 </r>
       <r>    -0.7446     1.1156    14.6700 </r>
       <r>    -0.6717     1.0849    14.7502 </r>
       <r>    -0.5988     1.0534    14.8248 </r>
       <r>    -0.5259     1.2927    14.9092 </r>
       <r>    -0.4530     2.6614    15.0181 </r>
       <r>    -0.3801     2.0425    15.1916 </r>
       <r>    -0.3072     1.7601    15.3229 </r>
       <r>    -0.2343     1.8389    15.4536 </r>
       <r>    -0.1614     1.9913    15.5928 </r>
       <r>    -0.0885     2.1414    15.7439 </r>
       <r>    -0.0156     3.5312    15.9249 </r>
       <r>     0.0574     3.7116    16.1875 </r>
       <r>     0.1303     3.3631    16.4613 </r>
       <r>     0.2032     3.3876    16.6909 </r>
       <r>     0.2761     4.1938    16.9659 </r>
       <r>     0.3490     4.9528    17.3031 </r>
       <r>     0.4219     5.2509    17.6834 </r>
       <r>     0.4948     5.2336    18.0662 </r>
       <r>     0.5677     4.5000    18.4416 </r>
       <r>     0.6406     3.9051    18.7502 </r>
       <r>     0.7135     3.6352    19.0245 </r>
       <r>     0.7864     3.9530    19.3047 </r>
       <r>     0.8593     3.4021    19.5838 </r>
       <r>     0.9322     3.0126    19.8012 </r>
       <r>     1.0051     3.1409    20.0250 </r>
       <r>     1.0780     3.3684    20.2614 </r>
       <r>     1.1509     3.9337    20.5231 </r>
       <r>     1.2238     4.1066    20.8024 </r>
       <r>     1.2967     5.9396    21.1804 </r>
       <r>     1.3696     8.6272    21.6794 </r>
       <r>     1.4425     7.1648    22.1787 </r>
       <r>     1.5154     7.0874    22.7145 </r>
       <r>     1.5883     5.7965    23.1810 </r>
       <r>     1.6612     4.9242    23.5723 </r>
       <r>     1.7341     3.7703    23.8930 </r>
       <r>     1.8070     3.3139    24.1500 </r>
       <r>     1.8799     3.0578    24.3811 </r>
       <r>     1.9528     3.0020    24.6007 </r>
       <r>     2.0257     3.4634    24.8307 </r>
       <r>     2.0986     4.2713    25.1119 </r>
       <r>     2.1716     5.5201    25.4592 </r>
       <r>     2.2445     4.6149    25.8590 </r>
       <r>     2.3174     5.1743    26.2402 </r>
       <r>     2.3903     4.6766    26.5754 </r>
       <r>     2.4632     4.8216    26.9217 </r>
       <r>     2.5361     5.5213    27.3271 </r>
       <r>     2.6090     6.0816    27.8261 </r>
       <r>     2.6819     4.3491    28.1851 </r>
       <r>     2.7548     3.8880    28.4853 </r>
       <r>     2.8277     3.4315    28.7521 </r>
       <r>     2.9006     2.8377    29.0323 </r>
       <r>     2.9735     2.0420    29.1863 </r>
       <r>     3.0464     1.8736    29.3292 </r>
       <r>     3.1193     1.7492    29.4599 </r>
       <r>     3.1922     2.1524    29.5956 </r>
       <r>     3.2651     2.8878    29.7791 </r>
       <r>     3.3380     4.1167    30.0566 </r>
       <r>     3.4109     4.1536    30.3425 </r>
       <r>     3.4838     4.5312    30.6597 </r>
       <r>     3.5567     4.7959    30.9904 </r>
       <r>     3.6296     2.9280    31.2713 </r>
       <r>     3.7025     1.3745    31.3958 </r>
       <r>     3.7754     1.2157    31.4901 </r>
       <r>     3.8483     1.0632    31.5732 </r>
       <r>     3.9212     0.9168    31.6453 </r>
       <r>     3.9941     0.7766    31.7070 </r>
       <r>     4.0670     0.7709    31.7620 </r>
       <r>     4.1399     0.7832    31.8190 </r>
       <r>     4.2128     0.7329    31.8747 </r>
       <r>     4.2858     0.6201    31.9244 </r>
       <r>     4.3587     0.4449    31.9636 </r>
       <r>     4.4316     0.2071    31.9877 </r>
       <r>     4.5045     0.0694    31.9961 </r>
       <r>     4.5774     0.0225    31.9993 </r>
       <r>     4.6503     0.0013    32.0000 </r>
       <r>     4.7232     0.0000    32.0000 </r>
       <r>     4.7961     0.0000    32.0000 </r>
       <r>     4.8690     0.0000    32.0000 </r>
       <r>     4.9419     0.0000    32.0000 </r>
       <r>     5.0148     0.0000    32.0000 </r>
       <r>     5.0877     0.0000    32.0000 </r>
       <r>     5.1606     0.0000    32.0000 </r>
       <r>     5.2335     0.0000    32.0000 </r>
       <r>     5.3064     0.0000    32.0000 </r>
       <r>     5.3793     0.0000    32.0000 </r>
       <r>     5.4522     0.0000    32.0000 </r>
       <r>     5.5251     0.0000    32.0000 </r>
       <r>     5.5980     0.0000    32.0000 </r>
       <r>     5.6709     0.0027    32.0000 </r>
       <r>     5.7438     0.1988    32.0076 </r>
       <r>     5.8167     0.2498    32.0239 </r>
       <r>     5.8896     0.3126    32.0443 </r>
       <r>     5.9625     0.3870    32.0698 </r>
       <r>     6.0354     0.4731    32.1011 </r>
       <r>     6.1083     0.5710    32.1391 </r>
       <r>     6.1812     0.6763    32.1847 </r>
       <r>     6.2541     0.7386    32.2366 </r>
       <r>     6.3270     0.8105    32.2928 </r>
       <r>     6.4000     0.9202    32.3557 </r>
       <r>     6.4729     1.4305    32.4479 </r>
       <r>     6.5458     1.7430    32.5531 </r>
       <r>     6.6187     3.1562    32.7222 </r>
       <r>     6.6916     2.5820    32.9535 </r>
       <r>     6.7645     2.5603    33.1337 </r>
       <r>     6.8374     2.7705    33.3279 </r>
       <r>     6.9103     3.0201    33.5384 </r>
       <r>     6.9832     3.2969    33.7687 </r>
       <r>     7.0561     3.5694    34.0191 </r>
       <r>     7.1290     7.9047    34.4139 </r>
       <r>     7.2019     7.8512    34.9601 </r>
       <r>     7.2748     6.3361    35.4523 </r>
       <r>     7.3477     4.4418    35.8857 </r>
       <r>     7.4206     5.3181    36.2341 </r>
       <r>     7.4935     7.3245    36.7001 </r>
       <r>     7.5664     3.9406    37.0827 </r>
       <r>     7.6393     4.0010    37.3721 </r>
       <r>     7.7122     5.2937    37.7018 </r>
       <r>     7.7851     5.8487    38.1094 </r>
       <r>     7.8580     6.1642    38.5488 </r>
       <r>     7.9309     5.0030    38.9412 </r>
       <r>     8.0038     4.6247    39.2927 </r>
       <r>     8.0767     3.6987    39.5788 </r>
       <r>     8.1496     3.4980    39.8410 </r>
       <r>     8.2225     3.3281    40.0850 </r>
       <r>     8.2954     3.3174    40.3274 </r>
       <r>     8.3683     3.3616    40.5701 </r>
       <r>     8.4412     2.8550    40.7963 </r>
       <r>     8.5142     2.4205    40.9881 </r>
       <r>     8.5871     1.8399    41.1431 </r>
       <r>     8.6600     1.9689    41.2779 </r>
       <r>     8.7329     2.9873    41.4583 </r>
       <r>     8.8058     5.0311    41.7372 </r>
       <r>     8.8787     6.4294    42.1356 </r>
       <r>     8.9516     9.9840    42.9444 </r>
       <r>     9.0245     6.5525    43.5027 </r>
       <r>     9.0974     5.5823    43.9320 </r>
       <r>     9.1703     4.5142    44.2761 </r>
       <r>     9.2432     4.2051    44.5920 </r>
       <r>     9.3161     3.9743    44.8904 </r>
       <r>     9.3890     3.7306    45.1712 </r>
       <r>     9.4619     3.7986    45.4344 </r>
       <r>     9.5348     4.8668    45.7420 </r>
       <r>     9.6077     4.6151    46.1056 </r>
       <r>     9.6806     4.5896    46.4418 </r>
       <r>     9.7535     4.4613    46.7723 </r>
       <r>     9.8264     4.2303    47.0898 </r>
       <r>     9.8993     3.8965    47.3866 </r>
       <r>     9.9722     2.5293    47.6262 </r>
       <r>    10.0451     3.3580    47.8297 </r>
       <r>    10.1180     0.7286    47.9909 </r>
       <r>    10.1909     0.0000    48.0000 </r>
       <r>    10.2638     0.0000    48.0000 </r>
       <r>    10.3367     0.0000    48.0000 </r>
       <r>    10.4096     0.0000    48.0000 </r>
       <r>    10.4825     0.0000    48.0000 </r>
       <r>    10.5555     0.0000    48.0000 </r>
       <r>    10.6284     0.0000    48.0000 </r>
       <r>    10.7013     0.0000    48.0000 </r>
       <r>    10.7742     0.0000    48.0000 </r>
       <r>    10.8471     0.0000    48.0000 </r>
       <r>    10.9200     0.0000    48.0000 </r>
       <r>    10.9929     0.0000    48.0000 </r>
       <r>    11.0658     0.0000    48.0000 </r>
       <r>    11.1387     0.0000    48.0000 </r>
      </set>
     </set>
    </array>
   </total>
  </dos>
 </calculation>
 <structure name="finalpos" >
  <crystal>
   <varray name="basis" >
    <v>       5.27910524       0.00000000       0.00000000 </v>
    <v>       0.00000000       5.27910524       0.00000000 </v>
    <v>       0.00000000       0.00000000       5.27910524 </v>
   </varray>
   <i name="volume">    147.12313096 </i>
   <varray name="rec_basis" >
    <v>       0.18942604       0.00000000       0.00000000 </v>
    <v>       0.00000000       0.18942604       0.00000000 </v>
    <v>       0.00000000       0.00000000       0.18942604 </v>
   </varray>
  </crystal>
  <varray name="positions" >
   <v>       0.00000000       0.00000000       0.00000000 </v>
   <v>       0.50000000       0.50000000       0.00000000 </v>
   <v>       0.50000000       0.00000000       0.50000000 </v>
   <v>       0.00000000       0.50000000       0.50000000 </v>
   <v>       0.25000000       0.25000000       0.25000000 </v>
   <v>       0.75000000       0.25000000       0.75000000 </v>
   <v>       0.75000000       0.75000000       0.25000000 </v>
   <v>       0.25000000       0.75000000       0.75000000 </v>
  </varray>
 </structure>
</modeling>
