  64  64   0   0
  0.2399769E+02  0.1161325E-08  0.1150000E-08  0.1150000E-08  0.1000000E-15
  1.000000000000000E-004
  CAR 
 GaAs                                    
      7.62495909    -11.02367395  301      2.29455815      1.00000000
    -11.024  0.0000E+00  0.0000E+00
    -10.962  0.0000E+00  0.0000E+00
    -10.899  0.0000E+00  0.0000E+00
    -10.837  0.0000E+00  0.0000E+00
    -10.775  0.0000E+00  0.0000E+00
    -10.713  0.0000E+00  0.0000E+00
    -10.651  0.0000E+00  0.0000E+00
    -10.589  0.0000E+00  0.0000E+00
    -10.526  0.0000E+00  0.0000E+00
    -10.464  0.0000E+00  0.0000E+00
    -10.402  0.0000E+00  0.0000E+00
    -10.340  0.0000E+00  0.0000E+00
    -10.278  0.0000E+00  0.0000E+00
    -10.216  0.0000E+00  0.0000E+00
    -10.153  0.0000E+00  0.0000E+00
    -10.091  0.0000E+00  0.0000E+00
    -10.029  0.0000E+00  0.0000E+00
     -9.967  0.3675E-01  0.8998E-03
     -9.905  0.5299E-01  0.3565E-02
     -9.843  0.1040E+00  0.8885E-02
     -9.780  0.7371E-01  0.1385E-01
     -9.718  0.6482E-01  0.1817E-01
     -9.656  0.1142E+00  0.2382E-01
     -9.594  0.1692E+00  0.3106E-01
     -9.532  0.1159E+00  0.3943E-01
     -9.470  0.1207E+00  0.4705E-01
     -9.407  0.1956E+00  0.5732E-01
     -9.345  0.9988E-01  0.6659E-01
     -9.283  0.1579E+00  0.7498E-01
     -9.221  0.1509E+00  0.8421E-01
     -9.159  0.2935E+00  0.9880E-01
     -9.097  0.3061E+00  0.1168E+00
     -9.034  0.9521E-01  0.1279E+00
     -8.972  0.4078E+00  0.1379E+00
     -8.910  0.2192E+00  0.1542E+00
     -8.848  0.1870E+00  0.1655E+00
     -8.786  0.4076E+00  0.1873E+00
     -8.724  0.2762E+00  0.2072E+00
     -8.662  0.3240E+00  0.2262E+00
     -8.599  0.3796E+00  0.2485E+00
     -8.537  0.5899E+00  0.2754E+00
     -8.475  0.5699E+00  0.3122E+00
     -8.413  0.8815E+00  0.3458E+00
     -8.351  0.6916E+00  0.3800E+00
     -8.289  0.4005E+00  0.4085E+00
     -8.226  0.5203E+00  0.4316E+00
     -8.164  0.7572E+00  0.4647E+00
     -8.102  0.6245E+00  0.5038E+00
     -8.040  0.5452E+00  0.5346E+00
     -7.978  0.7330E+00  0.5696E+00
     -7.916  0.7223E+00  0.6180E+00
     -7.853  0.7722E-01  0.6400E+00
     -7.791  0.0000E+00  0.6400E+00
     -7.729  0.0000E+00  0.6400E+00
     -7.667  0.0000E+00  0.6400E+00
     -7.605  0.0000E+00  0.6400E+00
     -7.543  0.0000E+00  0.6400E+00
     -7.480  0.0000E+00  0.6400E+00
     -7.418  0.0000E+00  0.6400E+00
     -7.356  0.0000E+00  0.6400E+00
     -7.294  0.0000E+00  0.6400E+00
     -7.232  0.0000E+00  0.6400E+00
     -7.170  0.0000E+00  0.6400E+00
     -7.107  0.0000E+00  0.6400E+00
     -7.045  0.0000E+00  0.6400E+00
     -6.983  0.0000E+00  0.6400E+00
     -6.921  0.0000E+00  0.6400E+00
     -6.859  0.0000E+00  0.6400E+00
     -6.797  0.0000E+00  0.6400E+00
     -6.734  0.0000E+00  0.6400E+00
     -6.672  0.0000E+00  0.6400E+00
     -6.610  0.0000E+00  0.6400E+00
     -6.548  0.0000E+00  0.6400E+00
     -6.486  0.0000E+00  0.6400E+00
     -6.424  0.0000E+00  0.6400E+00
     -6.362  0.0000E+00  0.6400E+00
     -6.299  0.0000E+00  0.6400E+00
     -6.237  0.0000E+00  0.6400E+00
     -6.175  0.0000E+00  0.6400E+00
     -6.113  0.0000E+00  0.6400E+00
     -6.051  0.0000E+00  0.6400E+00
     -5.989  0.0000E+00  0.6400E+00
     -5.926  0.0000E+00  0.6400E+00
     -5.864  0.0000E+00  0.6400E+00
     -5.802  0.0000E+00  0.6400E+00
     -5.740  0.0000E+00  0.6400E+00
     -5.678  0.0000E+00  0.6400E+00
     -5.616  0.0000E+00  0.6400E+00
     -5.553  0.0000E+00  0.6400E+00
     -5.491  0.0000E+00  0.6400E+00
     -5.429  0.0000E+00  0.6400E+00
     -5.367  0.0000E+00  0.6400E+00
     -5.305  0.0000E+00  0.6400E+00
     -5.243  0.0000E+00  0.6400E+00
     -5.180  0.0000E+00  0.6400E+00
     -5.118  0.0000E+00  0.6400E+00
     -5.056  0.0000E+00  0.6400E+00
     -4.994  0.0000E+00  0.6400E+00
     -4.932  0.0000E+00  0.6400E+00
     -4.870  0.0000E+00  0.6400E+00
     -4.807  0.0000E+00  0.6400E+00
     -4.745  0.0000E+00  0.6400E+00
     -4.683  0.0000E+00  0.6400E+00
     -4.621  0.0000E+00  0.6400E+00
     -4.559  0.0000E+00  0.6400E+00
     -4.497  0.0000E+00  0.6400E+00
     -4.434  0.0000E+00  0.6400E+00
     -4.372  0.0000E+00  0.6400E+00
     -4.310  0.0000E+00  0.6400E+00
     -4.248  0.2730E-01  0.6405E+00
     -4.186  0.1077E+00  0.6445E+00
     -4.124  0.2710E+00  0.6557E+00
     -4.062  0.7391E+00  0.6853E+00
     -3.999  0.6727E+00  0.7251E+00
     -3.937  0.1182E+01  0.7739E+00
     -3.875  0.1271E+01  0.8416E+00
     -3.813  0.4352E+00  0.8750E+00
     -3.751  0.1030E+01  0.9230E+00
     -3.689  0.2196E+00  0.9437E+00
     -3.626  0.1797E+00  0.9547E+00
     -3.564  0.5898E+00  0.9731E+00
     -3.502  0.3137E+00  0.9975E+00
     -3.440  0.2042E+00  0.1013E+01
     -3.378  0.1481E+00  0.1023E+01
     -3.316  0.2737E+00  0.1034E+01
     -3.253  0.3621E+00  0.1062E+01
     -3.191  0.1321E+00  0.1073E+01
     -3.129  0.1244E+00  0.1081E+01
     -3.067  0.7543E-01  0.1087E+01
     -3.005  0.1152E+00  0.1093E+01
     -2.943  0.1251E+00  0.1100E+01
     -2.880  0.1815E+00  0.1110E+01
     -2.818  0.1400E+00  0.1119E+01
     -2.756  0.1340E+00  0.1128E+01
     -2.694  0.1295E+00  0.1136E+01
     -2.632  0.1306E+00  0.1144E+01
     -2.570  0.1123E+00  0.1152E+01
     -2.507  0.6940E-01  0.1158E+01
     -2.445  0.6269E-01  0.1162E+01
     -2.383  0.7111E-01  0.1166E+01
     -2.321  0.8139E-01  0.1171E+01
     -2.259  0.1188E+00  0.1176E+01
     -2.197  0.1097E+00  0.1183E+01
     -2.134  0.7990E-01  0.1190E+01
     -2.072  0.8062E-01  0.1194E+01
     -2.010  0.6221E-01  0.1199E+01
     -1.948  0.4810E-01  0.1202E+01
     -1.886  0.4229E-01  0.1205E+01
     -1.824  0.3735E-01  0.1207E+01
     -1.762  0.3782E-01  0.1210E+01
     -1.699  0.4019E-01  0.1212E+01
     -1.637  0.7442E-01  0.1216E+01
     -1.575  0.9808E-01  0.1221E+01
     -1.513  0.8435E-01  0.1227E+01
     -1.451  0.6936E-01  0.1232E+01
     -1.389  0.6290E-01  0.1236E+01
     -1.326  0.1159E+00  0.1241E+01
     -1.264  0.2951E+00  0.1254E+01
     -1.202  0.4239E+00  0.1273E+01
     -1.140  0.4532E+00  0.1304E+01
     -1.078  0.4249E+00  0.1331E+01
     -1.016  0.6443E+00  0.1362E+01
     -0.953  0.4029E+00  0.1391E+01
     -0.891  0.4102E+00  0.1415E+01
     -0.829  0.3442E+00  0.1437E+01
     -0.767  0.3763E+00  0.1458E+01
     -0.705  0.3238E+00  0.1475E+01
     -0.643  0.3022E+00  0.1496E+01
     -0.580  0.4477E+00  0.1519E+01
     -0.518  0.3948E+00  0.1545E+01
     -0.456  0.4376E+00  0.1569E+01
     -0.394  0.5274E+00  0.1600E+01
     -0.332  0.5069E+00  0.1630E+01
     -0.270  0.4927E+00  0.1662E+01
     -0.207  0.4564E+00  0.1691E+01
     -0.145  0.5005E+00  0.1719E+01
     -0.083  0.5787E+00  0.1755E+01
     -0.021  0.5331E+00  0.1791E+01
      0.041  0.5231E+00  0.1825E+01
      0.103  0.4696E+00  0.1854E+01
      0.166  0.5512E+00  0.1887E+01
      0.228  0.4261E+00  0.1921E+01
      0.290  0.4598E+00  0.1944E+01
      0.352  0.4400E+00  0.1974E+01
      0.414  0.6118E+00  0.2007E+01
      0.476  0.6143E+00  0.2040E+01
      0.538  0.7657E+00  0.2077E+01
      0.601  0.5047E+00  0.2109E+01
      0.663  0.5051E+00  0.2136E+01
      0.725  0.4903E+00  0.2166E+01
      0.787  0.4703E+00  0.2196E+01
      0.849  0.4902E+00  0.2221E+01
      0.911  0.5130E+00  0.2252E+01
      0.974  0.3464E+00  0.2277E+01
      1.036  0.4100E+00  0.2300E+01
      1.098  0.4587E+00  0.2328E+01
      1.160  0.4189E+00  0.2356E+01
      1.222  0.5133E+00  0.2387E+01
      1.284  0.4442E+00  0.2416E+01
      1.347  0.2722E+00  0.2436E+01
      1.409  0.2006E+00  0.2451E+01
      1.471  0.2474E+00  0.2465E+01
      1.533  0.2186E+00  0.2479E+01
      1.595  0.2132E+00  0.2493E+01
      1.657  0.1228E+00  0.2503E+01
      1.720  0.1137E+00  0.2509E+01
      1.782  0.1530E+00  0.2518E+01
      1.844  0.1932E+00  0.2530E+01
      1.906  0.6443E-01  0.2536E+01
      1.968  0.1040E+00  0.2540E+01
      2.030  0.1242E+00  0.2549E+01
      2.093  0.7130E-01  0.2555E+01
      2.155  0.2958E-01  0.2558E+01
      2.217  0.1902E-01  0.2560E+01
      2.279  0.1454E-04  0.2560E+01
      2.341  0.0000E+00  0.2560E+01
      2.403  0.5607E-06  0.2560E+01
      2.466  0.1724E-04  0.2560E+01
      2.528  0.5710E-04  0.2560E+01
      2.590  0.1201E-03  0.2560E+01
      2.652  0.2063E-03  0.2560E+01
      2.714  0.3157E-03  0.2560E+01
      2.776  0.4482E-03  0.2560E+01
      2.838  0.6039E-03  0.2560E+01
      2.901  0.7828E-03  0.2560E+01
      2.963  0.9848E-03  0.2560E+01
      3.025  0.1210E-02  0.2560E+01
      3.087  0.1458E-02  0.2560E+01
      3.149  0.1776E-02  0.2560E+01
      3.211  0.5104E-02  0.2561E+01
      3.274  0.1309E-01  0.2561E+01
      3.336  0.2065E-01  0.2562E+01
      3.398  0.2798E-01  0.2564E+01
      3.460  0.6321E-01  0.2567E+01
      3.522  0.6688E-01  0.2571E+01
      3.584  0.8507E-01  0.2576E+01
      3.647  0.6817E-01  0.2580E+01
      3.709  0.8373E-01  0.2585E+01
      3.771  0.1106E+00  0.2591E+01
      3.833  0.1321E+00  0.2598E+01
      3.895  0.2344E+00  0.2612E+01
      3.957  0.2792E+00  0.2624E+01
      4.020  0.3544E+00  0.2643E+01
      4.082  0.2535E+00  0.2664E+01
      4.144  0.2001E+00  0.2676E+01
      4.206  0.2353E+00  0.2690E+01
      4.268  0.3383E+00  0.2707E+01
      4.330  0.5029E+00  0.2735E+01
      4.393  0.4136E+00  0.2761E+01
      4.455  0.4625E+00  0.2787E+01
      4.517  0.5626E+00  0.2817E+01
      4.579  0.5652E+00  0.2855E+01
      4.641  0.6997E+00  0.2892E+01
      4.703  0.6961E+00  0.2934E+01
      4.766  0.7090E+00  0.2975E+01
      4.828  0.4448E+00  0.3012E+01
      4.890  0.4398E+00  0.3038E+01
      4.952  0.4070E+00  0.3063E+01
      5.014  0.3870E+00  0.3088E+01
      5.076  0.3908E+00  0.3112E+01
      5.138  0.3225E+00  0.3133E+01
      5.201  0.3453E+00  0.3153E+01
      5.263  0.3010E+00  0.3173E+01
      5.325  0.1827E+00  0.3187E+01
      5.387  0.3345E+00  0.3203E+01
      5.449  0.3562E+00  0.3223E+01
      5.511  0.3349E+00  0.3243E+01
      5.574  0.3251E+00  0.3260E+01
      5.636  0.2125E+00  0.3277E+01
      5.698  0.1859E+00  0.3288E+01
      5.760  0.2297E+00  0.3300E+01
      5.822  0.2100E+00  0.3314E+01
      5.884  0.1584E+00  0.3325E+01
      5.947  0.1301E+00  0.3334E+01
      6.009  0.1055E+00  0.3342E+01
      6.071  0.9186E-01  0.3348E+01
      6.133  0.5792E-01  0.3352E+01
      6.195  0.3764E-01  0.3356E+01
      6.257  0.2180E-01  0.3357E+01
      6.320  0.1546E-01  0.3358E+01
      6.382  0.9438E-02  0.3359E+01
      6.444  0.6412E-02  0.3360E+01
      6.506  0.2832E-02  0.3360E+01
      6.568  0.4394E-04  0.3360E+01
      6.630  0.0000E+00  0.3360E+01
      6.693  0.0000E+00  0.3360E+01
      6.755  0.0000E+00  0.3360E+01
      6.817  0.0000E+00  0.3360E+01
      6.879  0.0000E+00  0.3360E+01
      6.941  0.0000E+00  0.3360E+01
      7.003  0.0000E+00  0.3360E+01
      7.066  0.0000E+00  0.3360E+01
      7.128  0.0000E+00  0.3360E+01
      7.190  0.0000E+00  0.3360E+01
      7.252  0.0000E+00  0.3360E+01
      7.314  0.0000E+00  0.3360E+01
      7.376  0.0000E+00  0.3360E+01
      7.438  0.0000E+00  0.3360E+01
      7.501  0.0000E+00  0.3360E+01
      7.563  0.0000E+00  0.3360E+01
      7.625  0.0000E+00  0.3360E+01
