 running    8 mpi-ranks, on    1 nodes
 distrk:  each k-point on    8 cores,    1 groups
 distr:  one band on    1 cores,    8 groups
 vasp.6.4.3 19Mar24 (build Aug 29 2024 15:27:20) complex                        
  
 POSCAR found type information on POSCAR AsGa
 POSCAR found :  2 types and      64 ions
 scaLAPACK will be used
 -----------------------------------------------------------------------------
|                                                                             |
|           W    W    AA    RRRRR   N    N  II  N    N   GGGG   !!!           |
|           W    W   A  A   R    R  NN   N  II  NN   N  G    G  !!!           |
|           W    W  A    A  R    R  N N  N  II  N N  N  G       !!!           |
|           W WW W  AAAAAA  RRRRR   N  N N  II  N  N N  G  GGG   !            |
|           WW  WW  A    A  R   R   N   NN  II  N   NN  G    G                |
|           W    W  A    A  R    R  N    N  II  N    N   GGGG   !!!           |
|                                                                             |
|     For optimal performance we recommend to set                             |
|       NCORE = 2 up to number-of-cores-per-socket                            |
|     NCORE specifies how many cores store one orbital (NPAR=cpu/NCORE).      |
|     This setting can greatly improve the performance of VASP for DFT.       |
|     The default, NCORE=1 might be grossly inefficient on modern             |
|     multi-core architectures or massively parallel machines. Do your        |
|     own testing! More info at https://www.vasp.at/wiki/index.php/NCORE      |
|     Unfortunately you need to use the default for GW and RPA                |
|     calculations (for HF NCORE is supported but not extensively tested      |
|     yet).                                                                   |
|                                                                             |
 -----------------------------------------------------------------------------

 -----------------------------------------------------------------------------
|                                                                             |
|               ----> ADVICE to this user running VASP <----                  |
|                                                                             |
|     You have a (more or less) 'large supercell' and for larger cells it     |
|     might be more efficient to use real-space projection operators.         |
|     Therefore, try LREAL= Auto in the INCAR file.                           |
|     Mind: For very accurate calculation, you might also keep the            |
|     reciprocal projection scheme (i.e. LREAL=.FALSE.).                      |
|                                                                             |
 -----------------------------------------------------------------------------

 LDA part: xc-table for (Slater+PW92), standard interpolation
 POSCAR, INCAR and KPOINTS ok, starting setup
 FFT: planning ... GRIDC
 FFT: planning ... GRID_SOFT
 FFT: planning ... GRID
 WAVECAR not read
 entering main loop
       N       E                     dE             d eps       ncg     rms          rms(c)
DAV:   1     0.933546722785E+03    0.93355E+03   -0.80865E+04  6048   0.101E+03
DAV:   2    -0.167572729941E+03   -0.11011E+04   -0.10503E+04  7216   0.169E+02
DAV:   3    -0.267664006307E+03   -0.10009E+03   -0.98729E+02  7416   0.520E+01
DAV:   4    -0.270142539233E+03   -0.24785E+01   -0.24511E+01  7280   0.855E+00
DAV:   5    -0.270210156185E+03   -0.67617E-01   -0.67398E-01  7336   0.127E+00    0.201E+01
DAV:   6    -0.266027043227E+03    0.41831E+01   -0.65234E+00  7056   0.358E+00    0.118E+01
DAV:   7    -0.265201718862E+03    0.82532E+00   -0.43124E+00  7320   0.299E+00    0.245E+00
DAV:   8    -0.265160356030E+03    0.41363E-01   -0.50534E-01  7040   0.109E+00    0.615E-01
DAV:   9    -0.265172151512E+03   -0.11795E-01   -0.35839E-02  6952   0.393E-01    0.232E-01
DAV:  10    -0.265173217302E+03   -0.10658E-02   -0.97546E-04  7576   0.593E-02    0.108E-01
DAV:  11    -0.265174531939E+03   -0.13146E-02   -0.22088E-03  6504   0.874E-02    0.502E-02
DAV:  12    -0.265174539033E+03   -0.70940E-05   -0.30784E-05  7392   0.115E-02    0.225E-02
DAV:  13    -0.265174548069E+03   -0.90359E-05   -0.78718E-05  6936   0.133E-02    0.978E-03
DAV:  14    -0.265174547441E+03    0.62771E-06   -0.40856E-06  5912   0.390E-03
 Linear response reoptimize wavefunctions to high precision
DAV:   1    -0.265174547965E+03   -0.52347E-06   -0.22179E-06  7208   0.198E-03
DAV:   2    -0.265174547974E+03   -0.90749E-08   -0.90758E-08  6112   0.558E-04
DAV:   3    -0.265174547974E+03   -0.22828E-09   -0.16807E-09  3760   0.800E-05
 Linear response G [H, r] |phi>, progress :
  Direction:   1
       N       E                     dE             d eps       ncg     rms
RMM:   1    -0.127135858468E+04   -0.12714E+04    0.18327E+03 14183   0.840E+01
RMM:   2    -0.109916204139E+04    0.17220E+03   -0.20537E+02  9788   0.227E+01
RMM:   3    -0.110150934378E+04   -0.23473E+01   -0.10080E+01 10088   0.379E+00
RMM:   4    -0.110163429886E+04   -0.12496E+00   -0.33574E-01 10491   0.670E-01
RMM:   5    -0.110163540909E+04   -0.11102E-02   -0.29335E-02 10515   0.144E-01
RMM:   6    -0.110163494415E+04    0.46495E-03   -0.63144E-03 11084   0.391E-02
RMM:   7    -0.110163477846E+04    0.16569E-03   -0.36981E-03 11660   0.199E-02
RMM:   8    -0.110163479413E+04   -0.15672E-04   -0.38128E-03 12341   0.168E-02
RMM:   9    -0.110163471942E+04    0.74711E-04   -0.31838E-03 12553   0.164E-02
RMM:  10    -0.110163473225E+04   -0.12828E-04   -0.24844E-03 12823   0.163E-02
RMM:  11    -0.110163472757E+04    0.46817E-05   -0.26886E-03 13125   0.163E-02
 Linear response G [H, r] |phi>, progress :
  Direction:   2
       N       E                     dE             d eps       ncg     rms
RMM:   1    -0.125887887060E+04   -0.12589E+04    0.17767E+03 14282   0.837E+01
RMM:   2    -0.109966547764E+04    0.15921E+03   -0.20568E+02  9768   0.227E+01
RMM:   3    -0.110161649274E+04   -0.19510E+01   -0.99574E+00 10088   0.376E+00
RMM:   4    -0.110171815915E+04   -0.10167E+00   -0.41270E-01 10474   0.662E-01
RMM:   5    -0.110171376113E+04    0.43980E-02   -0.53922E-02 10483   0.144E-01
RMM:   6    -0.110171154739E+04    0.22137E-02   -0.12615E-02 11081   0.398E-02
RMM:   7    -0.110171088006E+04    0.66732E-03   -0.46934E-03 11582   0.203E-02
RMM:   8    -0.110171077025E+04    0.10981E-03   -0.36120E-03 12422   0.172E-02
RMM:   9    -0.110171074350E+04    0.26756E-04   -0.34340E-03 12576   0.167E-02
RMM:  10    -0.110171073283E+04    0.10669E-04   -0.31673E-03 12882   0.167E-02
RMM:  11    -0.110171073835E+04   -0.55160E-05   -0.32638E-03 13115   0.167E-02
 Linear response G [H, r] |phi>, progress :
  Direction:   3
       N       E                     dE             d eps       ncg     rms
RMM:   1    -0.138252773183E+04   -0.13825E+04    0.13982E+03 14638   0.858E+01
RMM:   2    -0.110493321706E+04    0.27759E+03   -0.23557E+02  9827   0.240E+01
RMM:   3    -0.110709972567E+04   -0.21665E+01   -0.11265E+01 10090   0.399E+00
RMM:   4    -0.110722239323E+04   -0.12267E+00   -0.44930E-01 10512   0.695E-01
RMM:   5    -0.110721636217E+04    0.60311E-02   -0.59061E-02 10481   0.150E-01
RMM:   6    -0.110721389111E+04    0.24711E-02   -0.13387E-02 11036   0.405E-02
RMM:   7    -0.110721319605E+04    0.69506E-03   -0.53015E-03 11624   0.205E-02
RMM:   8    -0.110721306742E+04    0.12863E-03   -0.38486E-03 12404   0.173E-02
RMM:   9    -0.110721306323E+04    0.41920E-05   -0.40192E-03 12551   0.168E-02
RMM:  10    -0.110721305527E+04    0.79651E-05   -0.34691E-03 12838   0.168E-02
RMM:  11    -0.110721306081E+04   -0.55416E-05   -0.37464E-03 13107   0.168E-02
 Linear response to external field, progress :
  Direction:   1
       N       E                     dE             d eps       ncg     rms          rms(c)
RMM:   1    -0.112254949101E+03   -0.11225E+03   -0.84463E+02 15497   0.668E+00
RMM:   2    -0.288583470355E+03   -0.17633E+03   -0.10766E+01 14805   0.148E+00    0.124E+01
RMM:   3    -0.285438941990E+03    0.31445E+01   -0.99783E-01 14743   0.162E+00    0.724E+00
RMM:   4    -0.277149592839E+03    0.82893E+01   -0.15667E+00 14226   0.224E+00    0.762E-01
RMM:   5    -0.276449985770E+03    0.69961E+00   -0.61673E-02 15054   0.454E-01    0.129E-01
RMM:   6    -0.276382337809E+03    0.67648E-01   -0.18961E-03 15333   0.878E-02    0.717E-02
RMM:   7    -0.276320751227E+03    0.61587E-01   -0.11254E-03 15056   0.629E-02    0.253E-02
RMM:   8    -0.276306918809E+03    0.13832E-01    0.32688E-05 15810   0.109E-02    0.696E-03
RMM:   9    -0.276312584103E+03   -0.56653E-02   -0.56242E-05 15909   0.680E-03    0.143E-03
RMM:  10    -0.276312151708E+03    0.43240E-03   -0.14066E-04 16102   0.230E-03    0.419E-04
RMM:  11    -0.276312025248E+03    0.12646E-03   -0.12906E-04 15746   0.211E-03    0.686E-05
RMM:  12    -0.276312035560E+03   -0.10312E-04   -0.10193E-04 14355   0.198E-03    0.342E-05
RMM:  13    -0.276312022557E+03    0.13003E-04   -0.10344E-04 14519   0.198E-03    0.712E-06
 change of polarisation eV/A/(eV/A) component  1 :   572.627    -8.473   -12.832
 dielectric tensor                  component  1 :    68.466    -0.998    -1.512
 Linear response to external field, progress :
  Direction:   2
       N       E                     dE             d eps       ncg     rms          rms(c)
RMM:   1    -0.155742107867E+03   -0.15574E+03   -0.12377E+03 22600   0.678E+00
RMM:   2    -0.804614292326E+03   -0.64887E+03   -0.20345E+01 21395   0.152E+00    0.154E+01
RMM:   3    -0.800201433400E+03    0.44129E+01   -0.14179E+00 21384   0.174E+00    0.901E+00
RMM:   4    -0.788555148727E+03    0.11646E+02   -0.15753E+00 20297   0.250E+00    0.776E-01
RMM:   5    -0.787568438080E+03    0.98671E+00   -0.16879E-01 21829   0.587E-01    0.185E-01
RMM:   6    -0.787514184390E+03    0.54254E-01   -0.10237E-02 22304   0.923E-02    0.840E-02
RMM:   7    -0.787472196698E+03    0.41988E-01   -0.34560E-03 21605   0.585E-02    0.220E-02
RMM:   8    -0.787452700805E+03    0.19496E-01    0.69229E-04 22236   0.122E-02    0.718E-03
RMM:   9    -0.787455870967E+03   -0.31702E-02   -0.13454E-04 23145   0.765E-03    0.128E-03
RMM:  10    -0.787455162715E+03    0.70825E-03   -0.23147E-04 24010   0.262E-03    0.579E-04
RMM:  11    -0.787455351530E+03   -0.18881E-03   -0.15092E-04 23793   0.238E-03    0.104E-04
RMM:  12    -0.787455393637E+03   -0.42107E-04    0.22636E-05 22966   0.221E-03    0.526E-05
RMM:  13    -0.787455369709E+03    0.23928E-04   -0.10595E-04 23143   0.220E-03    0.854E-06
 change of polarisation eV/A/(eV/A) component  2 :    -4.545  1602.971   -12.924
 dielectric tensor                  component  2 :    -0.536   189.861    -1.523
 Linear response to external field, progress :
  Direction:   3
       N       E                     dE             d eps       ncg     rms          rms(c)
RMM:   1    -0.155738735145E+03   -0.15574E+03   -0.12377E+03 22605   0.678E+00
RMM:   2    -0.804614156353E+03   -0.64888E+03   -0.20344E+01 21418   0.152E+00    0.154E+01
RMM:   3    -0.800201568354E+03    0.44126E+01   -0.14182E+00 21402   0.174E+00    0.901E+00
RMM:   4    -0.788555692342E+03    0.11646E+02   -0.15785E+00 20293   0.250E+00    0.776E-01
RMM:   5    -0.787568220395E+03    0.98747E+00   -0.16886E-01 21832   0.587E-01    0.185E-01
RMM:   6    -0.787514226164E+03    0.53994E-01   -0.10480E-02 22304   0.923E-02    0.840E-02
RMM:   7    -0.787472305369E+03    0.41921E-01   -0.42306E-03 21616   0.585E-02    0.220E-02
RMM:   8    -0.787452732547E+03    0.19573E-01   -0.10449E-03 22242   0.122E-02    0.718E-03
RMM:   9    -0.787455912973E+03   -0.31804E-02   -0.24772E-04 23142   0.765E-03    0.128E-03
RMM:  10    -0.787455200290E+03    0.71268E-03   -0.62227E-04 23997   0.262E-03    0.581E-04
RMM:  11    -0.787455392506E+03   -0.19222E-03   -0.12056E-04 23811   0.238E-03    0.104E-04
RMM:  12    -0.787455434900E+03   -0.42393E-04   -0.80668E-06 23009   0.220E-03    0.525E-05
RMM:  13    -0.787455408394E+03    0.26506E-04   -0.70320E-05 23176   0.219E-03    0.845E-06
 change of polarisation eV/A/(eV/A) component  3 :   -11.783    -3.589  1602.971
 dielectric tensor                  component  3 :    -1.388    -0.423   189.861
 Born effective charges drift removed
   1 F= -.26517455E+03 E0= -.26517455E+03  d E =-.265175E+03
 curvature:   0.00 expect dE= 0.000E+00 dE for cont linesearch  0.000E+00
 trial: gam= 0.00000 g(F)=  0.464E-58 g(S)=  0.000E+00 ort = 0.000E+00 (trialstep = 0.100E+01)
 search vector abs. value=  0.100E-09
 reached required accuracy - stopping structural energy minimisation
 writing wavefunctions
 optical routines
 imaginary and real dielectric function
 recalculating local potential from charge density
 direction            1
 direction            2
 direction            3
