<?xml version="1.0" encoding="ISO-8859-1"?>
<modeling>
 <generator>
  <i name="program" type="string">vasp </i>
  <i name="version" type="string">6.4.3  </i>
  <i name="subversion" type="string">19Mar24 (build Aug 29 2024 15:27:20) complex                          parallel </i>
  <i name="platform" type="string">LinuxIFC </i>
  <i name="date" type="string">2025 03 24 </i>
  <i name="time" type="string">12:04:36 </i>
 </generator>
 <incar>
  <i type="string" name="SYSTEM">GaAs</i>
  <i type="string" name="PREC">Normal</i>
  <i type="int" name="IBRION">     2</i>
  <i type="int" name="NFREE">     2</i>
  <i type="int" name="NSW">   100</i>
  <i type="int" name="ISIF">     2</i>
  <i name="ENCUT">    400.00000000</i>
  <i name="POTIM">      0.10000000</i>
  <i type="int" name="ISMEAR">    -5</i>
  <i name="SIGMA">      0.10000000</i>
  <i type="logical" name="LOPTICS"> T  </i>
  <i type="logical" name="LEPSILON"> T  </i>
 </incar>
 <primitive_cell>
  <structure name="primitive_cell" >
   <crystal>
    <varray name="basis" >
     <v>       2.90331271       0.00000000       2.87500001 </v>
     <v>       2.90331271       0.00000000      -2.87500001 </v>
     <v>      -2.90331271       2.87500001       0.00000000 </v>
    </varray>
    <i name="volume">     47.99538841 </i>
    <varray name="rec_basis" >
     <v>       0.17221707       0.17391304       0.17391304 </v>
     <v>       0.17221707       0.17391304      -0.17391304 </v>
     <v>       0.00000000       0.34782609       0.00000000 </v>
    </varray>
   </crystal>
   <varray name="positions" >
    <v>       0.00000000       0.00000000       0.00000000 </v>
    <v>       0.75000000       0.25000000       0.50000000 </v>
   </varray>
  </structure>
  <varray name="primitive_index" >
   <v type="int" >        1 </v>
   <v type="int" >       33 </v>
  </varray>
 </primitive_cell>
 <kpoints>
  <generation param="Gamma">
   <v type="int" name="divisions">       5        5        5 </v>
   <v name="usershift">      0.00000000       0.00000000       0.00000000 </v>
   <v name="genvec1">      0.20000000       0.00000000       0.00000000 </v>
   <v name="genvec2">      0.00000000       0.20000000       0.00000000 </v>
   <v name="genvec3">      0.00000000       0.00000000       0.20000000 </v>
   <v name="shift">      0.00000000       0.00000000       0.00000000 </v>
  </generation>
  <varray name="kpointlist" >
   <v>       0.00000000       0.00000000       0.00000000 </v>
   <v>       0.20000000       0.00000000       0.00000000 </v>
   <v>       0.40000000       0.00000000       0.00000000 </v>
   <v>       0.00000000       0.20000000       0.00000000 </v>
   <v>       0.20000000       0.20000000       0.00000000 </v>
   <v>       0.40000000       0.20000000       0.00000000 </v>
   <v>       0.00000000       0.40000000       0.00000000 </v>
   <v>       0.20000000       0.40000000       0.00000000 </v>
   <v>       0.40000000       0.40000000       0.00000000 </v>
   <v>       0.00000000       0.20000000       0.20000000 </v>
   <v>       0.20000000       0.20000000       0.20000000 </v>
   <v>       0.40000000       0.20000000       0.20000000 </v>
   <v>       0.00000000       0.40000000       0.20000000 </v>
   <v>       0.20000000       0.40000000       0.20000000 </v>
   <v>       0.40000000       0.40000000       0.20000000 </v>
   <v>       0.00000000       0.40000000       0.40000000 </v>
   <v>       0.20000000       0.40000000       0.40000000 </v>
   <v>       0.40000000       0.40000000       0.40000000 </v>
  </varray>
  <varray name="weights" >
   <v>       0.00800000 </v>
   <v>       0.01600000 </v>
   <v>       0.01600000 </v>
   <v>       0.03200000 </v>
   <v>       0.06400000 </v>
   <v>       0.06400000 </v>
   <v>       0.03200000 </v>
   <v>       0.06400000 </v>
   <v>       0.06400000 </v>
   <v>       0.03200000 </v>
   <v>       0.06400000 </v>
   <v>       0.06400000 </v>
   <v>       0.06400000 </v>
   <v>       0.12800000 </v>
   <v>       0.12800000 </v>
   <v>       0.03200000 </v>
   <v>       0.06400000 </v>
   <v>       0.06400000 </v>
  </varray>
  <varray name="tetrahedronlist"  type="int" >
   <v type="int" >        4       11       12       14       15 </v>
   <v type="int" >        4       11       14       14       15 </v>
   <v type="int" >        8       14       14       15       17 </v>
   <v type="int" >        4       12       14       15       15 </v>
   <v type="int" >        8       14       15       15       18 </v>
   <v type="int" >        4       14       15       17       18 </v>
   <v type="int" >        2       12       12       15       15 </v>
   <v type="int" >        4       12       15       15       15 </v>
   <v type="int" >       12       15       15       15       18 </v>
   <v type="int" >       10       15       15       18       18 </v>
   <v type="int" >        4       10       11       13       14 </v>
   <v type="int" >        4       11       13       14       14 </v>
   <v type="int" >        8       13       14       14       17 </v>
   <v type="int" >        4       10       13       13       14 </v>
   <v type="int" >        8       13       13       14       16 </v>
   <v type="int" >        4       13       14       16       17 </v>
   <v type="int" >        4       14       15       15       17 </v>
   <v type="int" >        4       14       15       17       17 </v>
   <v type="int" >        4       15       15       17       18 </v>
   <v type="int" >        4       15       17       18       18 </v>
   <v type="int" >        4       15       17       17       18 </v>
   <v type="int" >        8       15       18       18       18 </v>
   <v type="int" >        4       14       14       15       18 </v>
   <v type="int" >        4       14       15       18       18 </v>
   <v type="int" >        4       14       14       17       18 </v>
   <v type="int" >        4       14       17       17       18 </v>
   <v type="int" >        4       14       17       18       18 </v>
   <v type="int" >        4       13       13       14       17 </v>
   <v type="int" >        4       13       14       17       17 </v>
   <v type="int" >        4       13       13       16       17 </v>
   <v type="int" >        4       13       16       16       17 </v>
   <v type="int" >        4       13       16       17       17 </v>
   <v type="int" >        4       13       14       14       16 </v>
   <v type="int" >        4       13       14       16       16 </v>
   <v type="int" >        4       14       14       16       17 </v>
   <v type="int" >        4       14       16       17       17 </v>
   <v type="int" >        4       14       16       16       17 </v>
   <v type="int" >        4       12       14       15       17 </v>
   <v type="int" >        4       11       12       14       17 </v>
   <v type="int" >        4       12       15       17       18 </v>
   <v type="int" >        4       12       15       15       18 </v>
   <v type="int" >        4       12       12       15       18 </v>
   <v type="int" >        4       12       15       18       18 </v>
   <v type="int" >        4       11       14       15       18 </v>
   <v type="int" >        4       11       12       15       18 </v>
   <v type="int" >        4       11       14       17       18 </v>
   <v type="int" >        4       10       13       14       17 </v>
   <v type="int" >        4       10       11       14       17 </v>
   <v type="int" >        4       10       13       16       17 </v>
   <v type="int" >        4       11       13       14       16 </v>
   <v type="int" >        4       10       11       13       16 </v>
   <v type="int" >        4       11       14       16       17 </v>
   <v type="int" >        4        6       11       12       14 </v>
   <v type="int" >        4        5        6       11       14 </v>
   <v type="int" >        4        5        6        8       14 </v>
   <v type="int" >        4        6       12       14       15 </v>
   <v type="int" >        4        6        9       14       15 </v>
   <v type="int" >        4        6        8        9       14 </v>
   <v type="int" >        4        6       12       12       15 </v>
   <v type="int" >        4        6        6       12       15 </v>
   <v type="int" >        4        6        6        9       15 </v>
   <v type="int" >        4        6       12       15       15 </v>
   <v type="int" >        4        6        9       15       15 </v>
   <v type="int" >        4        6        9        9       15 </v>
   <v type="int" >        4        5       11       12       15 </v>
   <v type="int" >        4        5        6       12       15 </v>
   <v type="int" >        4        5        6        9       15 </v>
   <v type="int" >        4        5       11       14       15 </v>
   <v type="int" >        4        5        8       14       15 </v>
   <v type="int" >        4        5        8        9       15 </v>
   <v type="int" >        4        4       10       11       14 </v>
   <v type="int" >        4        4        5       11       14 </v>
   <v type="int" >        4        4        5        8       14 </v>
   <v type="int" >        4        4       10       13       14 </v>
   <v type="int" >        4        4        7       13       14 </v>
   <v type="int" >        4        4        7        8       14 </v>
   <v type="int" >        4        5       10       11       13 </v>
   <v type="int" >        4        4        5       10       13 </v>
   <v type="int" >        4        4        5        7       13 </v>
   <v type="int" >        4        5       11       13       14 </v>
   <v type="int" >        4        5        8       13       14 </v>
   <v type="int" >        4        5        7        8       13 </v>
   <v type="int" >        4        5        6        8       12 </v>
   <v type="int" >        4        5        8       11       12 </v>
   <v type="int" >        4        8       11       12       14 </v>
   <v type="int" >        4        6        8        9       12 </v>
   <v type="int" >        4        8        9       12       15 </v>
   <v type="int" >        4        8       12       14       15 </v>
   <v type="int" >        4        6        6        9       12 </v>
   <v type="int" >        4        6        9       12       12 </v>
   <v type="int" >        4        9       12       12       15 </v>
   <v type="int" >        4        6        9        9       12 </v>
   <v type="int" >        4        9        9       12       15 </v>
   <v type="int" >        4        9       12       15       15 </v>
   <v type="int" >        4        5        6        9       11 </v>
   <v type="int" >        4        6        9       11       12 </v>
   <v type="int" >        4        9       11       12       15 </v>
   <v type="int" >        4        5        8        9       11 </v>
   <v type="int" >        4        8        9       11       14 </v>
   <v type="int" >        4        9       11       14       15 </v>
   <v type="int" >        4        4        5        8       10 </v>
   <v type="int" >        4        5        8       10       11 </v>
   <v type="int" >        4        8       10       11       14 </v>
   <v type="int" >        4        4        7        8       10 </v>
   <v type="int" >        4        7        8       10       13 </v>
   <v type="int" >        4        8       10       13       14 </v>
   <v type="int" >        4        4        5        7       11 </v>
   <v type="int" >        4        4        7       10       11 </v>
   <v type="int" >        4        7       10       11       13 </v>
   <v type="int" >        4        5        7        8       11 </v>
   <v type="int" >        4        7        8       11       14 </v>
   <v type="int" >        4        7       11       13       14 </v>
   <v type="int" >        4       17       17       18       18 </v>
   <v type="int" >        4       17       17       17       18 </v>
   <v type="int" >        4       17       18       18       18 </v>
   <v type="int" >        6       18       18       18       18 </v>
   <v type="int" >        4       16       16       17       17 </v>
   <v type="int" >        4       16       17       17       17 </v>
   <v type="int" >        4       16       16       16       17 </v>
   <v type="int" >        4        9       14       14       15 </v>
   <v type="int" >        4        8        9       14       14 </v>
   <v type="int" >        4        8        8        9       14 </v>
   <v type="int" >        4        9       14       15       15 </v>
   <v type="int" >        4        9        9       14       15 </v>
   <v type="int" >        4        8        9        9       14 </v>
   <v type="int" >        8        9       15       15       15 </v>
   <v type="int" >        8        9        9       15       15 </v>
   <v type="int" >        8        9        9        9       15 </v>
   <v type="int" >        4        8       14       15       15 </v>
   <v type="int" >        4        8        9       15       15 </v>
   <v type="int" >        4        8        9        9       15 </v>
   <v type="int" >        4        8       14       14       15 </v>
   <v type="int" >        4        8        8       14       15 </v>
   <v type="int" >        4        8        8        9       15 </v>
   <v type="int" >        4        7       13       14       14 </v>
   <v type="int" >        4        7        8       14       14 </v>
   <v type="int" >        4        7        8        8       14 </v>
   <v type="int" >        4        7       13       13       14 </v>
   <v type="int" >        4        7        7       13       14 </v>
   <v type="int" >        4        7        7        8       14 </v>
   <v type="int" >        4        8       13       13       14 </v>
   <v type="int" >        4        7        8       13       13 </v>
   <v type="int" >        4        7        7        8       13 </v>
   <v type="int" >        4        8       13       14       14 </v>
   <v type="int" >        4        8        8       13       14 </v>
   <v type="int" >        4        7        8        8       13 </v>
   <v type="int" >        4        5        6       11       12 </v>
   <v type="int" >        4        5        5        6       11 </v>
   <v type="int" >        4        2        5        5        6 </v>
   <v type="int" >        4        5        6        6       12 </v>
   <v type="int" >        4        3        5        6        6 </v>
   <v type="int" >        4        2        3        5        6 </v>
   <v type="int" >        2        6        6       12       12 </v>
   <v type="int" >        4        6        6        6       12 </v>
   <v type="int" >        4        3        6        6        6 </v>
   <v type="int" >        2        3        3        6        6 </v>
   <v type="int" >        4        4        5       10       11 </v>
   <v type="int" >        4        4        5        5       11 </v>
   <v type="int" >        4        2        4        5        5 </v>
   <v type="int" >        4        4        4        5       10 </v>
   <v type="int" >        4        1        4        4        5 </v>
   <v type="int" >        4        1        2        4        5 </v>
   <v type="int" >        4        2        5        6       12 </v>
   <v type="int" >        4        2        5       11       12 </v>
   <v type="int" >        4        2        3        6       12 </v>
   <v type="int" >        4        3        6        6       12 </v>
   <v type="int" >        4        3        6       12       12 </v>
   <v type="int" >        4        3        3        6       12 </v>
   <v type="int" >        4        3        5        6       11 </v>
   <v type="int" >        4        3        6       11       12 </v>
   <v type="int" >        4        2        3        5       11 </v>
   <v type="int" >        4        2        4        5       10 </v>
   <v type="int" >        4        2        5       10       11 </v>
   <v type="int" >        4        1        2        4       10 </v>
   <v type="int" >        4        1        4        5       11 </v>
   <v type="int" >        4        1        4       10       11 </v>
   <v type="int" >        4        1        2        5       11 </v>
  </varray>
  <i name="volumeweight">      0.00133333 </i>
 </kpoints>
 <parameters>
  <separator name="general" >
   <i type="string" name="SYSTEM">GaAs</i>
   <i type="logical" name="LCOMPAT"> F  </i>
  </separator>
  <separator name="electronic" >
   <i type="string" name="PREC">normal</i>
   <i name="ENMAX">    400.00000000</i>
   <i name="ENAUG">    462.75800000</i>
   <i name="EDIFF">      0.00000100</i>
   <i type="int" name="IALGO">    38</i>
   <i type="int" name="IWAVPR">    11</i>
   <i type="int" name="NBANDS">   168</i>
   <i type="int" name="NBANDSLOW">    -1</i>
   <i type="int" name="NBANDSHIGH">    -1</i>
   <i name="NELECT">    256.00000000</i>
   <i type="int" name="TURBO">     0</i>
   <i type="int" name="IRESTART">     0</i>
   <i type="int" name="NREBOOT">     0</i>
   <i type="int" name="NMIN">     0</i>
   <i name="EREF">      0.00000000</i>
   <separator name="electronic smearing" >
    <i type="int" name="ISMEAR">    -5</i>
    <i name="SIGMA">      0.10000000</i>
    <i name="KSPACING">      0.50000000</i>
    <i type="logical" name="KGAMMA"> T  </i>
    <i type="logical" name="KBLOWUP"> T  </i>
   </separator>
   <separator name="electronic projectors" >
    <i type="logical" name="LREAL"> F  </i>
    <v name="ROPT">      0.00000000      0.00000000</v>
    <i type="int" name="LMAXPAW">  -100</i>
    <i type="int" name="LMAXMIX">     2</i>
    <i type="logical" name="NLSPLINE"> F  </i>
   </separator>
   <separator name="electronic startup" >
    <i type="int" name="ISTART">     0</i>
    <i type="int" name="ICHARG">     2</i>
    <i type="int" name="INIWAV">     1</i>
   </separator>
   <separator name="electronic spin" >
    <i type="int" name="ISPIN">     1</i>
    <i type="logical" name="LNONCOLLINEAR"> F  </i>
    <v name="MAGMOM">      1.00000000      1.00000000      1.00000000      1.00000000      1.00000000      1.00000000      1.00000000      1.00000000      1.00000000      1.00000000      1.00000000      1.00000000      1.00000000      1.00000000      1.00000000      1.00000000      1.00000000      1.00000000      1.00000000      1.00000000
      1.00000000      1.00000000      1.00000000      1.00000000      1.00000000      1.00000000      1.00000000      1.00000000      1.00000000      1.00000000      1.00000000      1.00000000      1.00000000      1.00000000      1.00000000      1.00000000      1.00000000      1.00000000      1.00000000      1.00000000
      1.00000000      1.00000000      1.00000000      1.00000000      1.00000000      1.00000000      1.00000000      1.00000000      1.00000000      1.00000000      1.00000000      1.00000000      1.00000000      1.00000000      1.00000000      1.00000000      1.00000000      1.00000000      1.00000000      1.00000000
      1.00000000      1.00000000      1.00000000      1.00000000</v>
    <i name="NUPDOWN">     -1.00000000</i>
    <i type="logical" name="LSORBIT"> F  </i>
    <v name="SAXIS">      0.00000000      0.00000000      1.00000000</v>
    <i type="logical" name="LSPIRAL"> F  </i>
    <v name="QSPIRAL">      0.00000000      0.00000000      0.00000000</v>
    <i type="logical" name="LZEROZ"> F  </i>
   </separator>
   <separator name="electronic exchange-correlation" >
    <i type="logical" name="LASPH"> F  </i>
   </separator>
   <separator name="electronic convergence" >
    <i type="int" name="NELM">    60</i>
    <i type="int" name="NELMDL">    -5</i>
    <i type="int" name="NELMIN">     2</i>
    <i name="ENINI">    400.00000000</i>
    <separator name="electronic convergence detail" >
     <i type="logical" name="LDIAG"> T  </i>
     <i type="logical" name="LSUBROT"> F  </i>
     <i name="WEIMIN">      0.00100000</i>
     <i name="EBREAK">      0.00000000</i>
     <i name="DEPER">      0.30000000</i>
     <i type="int" name="NRMM">     4</i>
     <i name="TIME">      0.40000000</i>
    </separator>
   </separator>
   <separator name="electronic mixer" >
    <i name="AMIX">      0.40000000</i>
    <i name="BMIX">      1.00000000</i>
    <i name="AMIN">      0.10000000</i>
    <i name="AMIX_MAG">      1.60000000</i>
    <i name="BMIX_MAG">      1.00000000</i>
    <separator name="electronic mixer details" >
     <i type="int" name="IMIX">     4</i>
     <i type="logical" name="MIXFIRST"> F  </i>
     <i type="int" name="MAXMIX">   -45</i>
     <i name="WC">    100.00000000</i>
     <i type="int" name="INIMIX">     1</i>
     <i type="int" name="MIXPRE">     1</i>
     <i type="int" name="MREMOVE">     5</i>
    </separator>
   </separator>
   <separator name="electronic dipolcorrection" >
    <i type="logical" name="LDIPOL"> F  </i>
    <i type="logical" name="LMONO"> F  </i>
    <i type="int" name="IDIPOL">     0</i>
    <i name="EPSILON">      1.00000000</i>
    <v name="DIPOL">   -100.00000000   -100.00000000   -100.00000000</v>
    <i name="EFIELD">      0.00000000</i>
    <i type="logical" name="LVACPOTAV"> F  </i>
   </separator>
  </separator>
  <separator name="grids" >
   <i type="int" name="NGX">    60</i>
   <i type="int" name="NGY">    56</i>
   <i type="int" name="NGZ">    56</i>
   <i type="int" name="NGXF">   120</i>
   <i type="int" name="NGYF">   112</i>
   <i type="int" name="NGZF">   112</i>
   <i type="logical" name="ADDGRID"> F  </i>
  </separator>
  <separator name="ionic" >
   <i type="int" name="NSW">   100</i>
   <i type="int" name="IBRION">     2</i>
   <i type="int" name="MDALGO">     0</i>
   <i type="int" name="ISIF">     2</i>
   <i name="PSTRESS">      0.00000000</i>
   <i name="EDIFFG">      0.00100000</i>
   <i type="int" name="NFREE">     2</i>
   <i name="POTIM">      0.10000000</i>
   <i name="SMASS">     -3.00000000</i>
   <i name="SCALEE">      1.00000000</i>
  </separator>
  <separator name="ionic md" >
   <i name="TEBEG">      0.00010000</i>
   <i name="TEEND">      0.00010000</i>
   <i type="int" name="NBLOCK">     1</i>
   <i type="int" name="KBLOCK">   100</i>
   <i type="int" name="NPACO">   256</i>
   <i name="APACO">     10.00000000</i>
  </separator>
  <separator name="symmetry" >
   <i type="int" name="ISYM">     2</i>
   <i name="SYMPREC">      0.00001000</i>
  </separator>
  <separator name="dos" >
   <i type="int" name="LORBIT">     0</i>
   <v name="RWIGS">     -1.00000000     -1.00000000</v>
   <i type="int" name="NEDOS">   301</i>
   <i name="EMIN">     10.00000000</i>
   <i name="EMAX">    -10.00000000</i>
   <i name="EFERMI">      0.00000000</i>
  </separator>
  <separator name="writing" >
   <i type="int" name="NWRITE">     2</i>
   <i type="logical" name="LWAVE"> T  </i>
   <i type="logical" name="LDOWNSAMPLE"> F  </i>
   <i type="logical" name="LCHARG"> T  </i>
   <i type="logical" name="LPARD"> F  </i>
   <i type="logical" name="LVTOT"> F  </i>
   <i type="logical" name="LVHAR"> F  </i>
   <i type="logical" name="LELF"> F  </i>
   <i type="logical" name="LOPTICS"> T  </i>
   <v name="STM">      0.00000000      0.00000000      0.00000000      0.00000000      0.00000000      0.00000000      0.00000000</v>
  </separator>
  <separator name="performance" >
   <i type="int" name="NPAR">     8</i>
   <i type="int" name="NSIM">     4</i>
   <i type="int" name="NBLK">    -1</i>
   <i type="logical" name="LPLANE"> T  </i>
   <i type="logical" name="LSCALAPACK"> T  </i>
   <i type="logical" name="LSCAAWARE"> F  </i>
   <i type="logical" name="LSCALU"> F  </i>
   <i type="logical" name="LASYNC"> F  </i>
   <i type="logical" name="LORBITALREAL"> F  </i>
  </separator>
  <separator name="miscellaneous" >
   <i type="int" name="IDIOT">     3</i>
   <i type="int" name="PHON_NSTRUCT">    -1</i>
   <i type="logical" name="LMUSIC"> F  </i>
   <v name="POMASS">     74.92200000     69.72300000</v>
   <v name="DARWINR">      0.00000000      0.00000000</v>
   <v name="DARWINV">      1.00000000      1.00000000</v>
   <i type="logical" name="LCORR"> T  </i>
  </separator>
  <i type="logical" name="GGA_COMPAT"> T  </i>
  <i type="logical" name="LBERRY"> F  </i>
  <i type="int" name="ICORELEVEL">     0</i>
  <i type="logical" name="LDAU"> F  </i>
  <i type="int" name="I_CONSTRAINED_M">     0</i>
  <separator name="electronic exchange-correlation" >
   <i type="string" name="GGA    ">PE</i>
   <i type="string" name="XC_C">1</i>
   <i type="int" name="VOSKOWN">     0</i>
   <i type="logical" name="LHFCALC"> F  </i>
   <i type="string" name="PRECFOCK"></i>
   <i type="logical" name="LSYMGRAD"> F  </i>
   <i type="logical" name="LHFONE"> F  </i>
   <i type="logical" name="LRHFCALC"> F  </i>
   <i type="logical" name="LTHOMAS"> F  </i>
   <i type="logical" name="LMODELHF"> F  </i>
   <i type="logical" name="LFOCKACE"> F  </i>
   <i name="ENCUT4O">     -1.00000000</i>
   <i type="int" name="EXXOEP">     0</i>
   <i type="int" name="FOURORBIT">     0</i>
   <i name="AEXX">      0.00000000</i>
   <i name="HFALPHA">      0.00000000</i>
   <i name="MCALPHA">      0.00000000</i>
   <i name="ALDAX">      1.00000000</i>
   <i name="AGGAX">      1.00000000</i>
   <i name="AMGGAX">      1.00000000</i>
   <i name="ALDAC">      1.00000000</i>
   <i name="AGGAC">      1.00000000</i>
   <i name="AMGGAC">      1.00000000</i>
   <i type="int" name="NKREDX">     1</i>
   <i type="int" name="NKREDY">     1</i>
   <i type="int" name="NKREDZ">     1</i>
   <i type="logical" name="SHIFTRED"> F  </i>
   <i type="logical" name="ODDONLY"> F  </i>
   <i type="logical" name="EVENONLY"> F  </i>
   <i type="int" name="LMAXFOCK">     0</i>
   <i type="int" name="NMAXFOCKAE">     0</i>
   <i type="logical" name="LFOCKAEDFT"> F  </i>
   <i name="HFSCREEN">      0.00000000</i>
   <i name="HFSCREENC">      0.00000000</i>
   <i type="int" name="NBANDSGWLOW">     0</i>
  </separator>
  <separator name="vdW DFT" >
   <i type="logical" name="LUSE_VDW"> F  </i>
   <i type="int" name="IVDW_NL">    -1</i>
   <i type="logical" name="LSPIN_VDW"> F  </i>
   <i name="ZAB_VDW">     -0.84910000</i>
   <i name="GAMMA_VDW">      1.39626340</i>
   <i name="ALPHA_VDW">      0.00000000</i>
   <i name="PARAM1">      0.12340000</i>
   <i name="PARAM2">      1.00000000</i>
   <i name="BPARAM">      6.30000000</i>
   <i name="CPARAM">      0.00930000</i>
  </separator>
  <separator name="model GW" >
   <i type="int" name="MODEL_GW">     0</i>
   <i name="MODEL_EPS0">     14.39861652</i>
   <i name="MODEL_ALPHA">      1.00000000</i>
  </separator>
  <separator name="linear response parameters" >
   <i type="logical" name="LEPSILON"> T  </i>
   <i type="logical" name="LRPA"> F  </i>
   <i type="logical" name="LNABLA"> F  </i>
   <i type="logical" name="LVEL"> F  </i>
   <i name="CSHIFT">      0.10000000</i>
   <i name="OMEGAMAX">     -1.00000000</i>
   <i name="DEG_THRESHOLD">      0.00200000</i>
   <i name="RTIME">     -0.10000000</i>
   <i name="WPLASMAI">      0.00000000</i>
   <v name="DFIELD">      0.00000000      0.00000000      0.00000000</v>
   <v name="WPLASMA">      0.00000000      0.00000000      0.00000000      0.00000000      0.00000000      0.00000000      0.00000000      0.00000000      0.00000000</v>
  </separator>
  <separator name="orbital magnetization" >
   <i type="logical" name="NUCIND"> F  </i>
   <v name="MAGPOS">      0.00000000      0.00000000      0.00000000</v>
   <i type="logical" name="LNICSALL"> T  </i>
   <i type="logical" name="ORBITALMAG"> F  </i>
   <i type="logical" name="LMAGBLOCH"> F  </i>
   <i type="logical" name="LCHIMAG"> F  </i>
   <i type="logical" name="LGAUGE"> T  </i>
   <i type="int" name="MAGATOM">     0</i>
   <v name="MAGDIPOL">      0.00000000      0.00000000      0.00000000</v>
   <v name="AVECCONST">      0.00000000      0.00000000      0.00000000</v>
  </separator>
  <separator name="response functions" >
   <i type="logical" name="LALL_IN_ONE"> F  </i>
   <i type="int" name="IALL_IN_ONE">    -1</i>
   <i type="int" name="NBANDS_WAVE">    -1</i>
   <i type="logical" name="LFINITE_TEMPERATURE"> F  </i>
   <i type="logical" name="LADDER"> F  </i>
   <i type="logical" name="LRPAFORCE"> F  </i>
   <i type="logical" name="LFXC"> F  </i>
   <i type="logical" name="LHARTREE"> T  </i>
   <i type="int" name="IBSE">     0</i>
   <v type="int" name="KPOINT">    -1     0     0     0</v>
   <i type="logical" name="LTCTC"> F  </i>
   <i type="logical" name="LTCTE"> F  </i>
   <i type="logical" name="LTETE"> F  </i>
   <i type="logical" name="LTRIPLET"> F  </i>
   <i type="logical" name="LFXCEPS"> F  </i>
   <i type="logical" name="LFXHEG"> F  </i>
   <i type="int" name="NATURALO">     2</i>
   <i type="logical" name="LHOLEGF"> F  </i>
   <i type="logical" name="L2ORDER"> F  </i>
   <i type="logical" name="LDMP1"> F  </i>
   <i type="logical" name="LMP2LT"> F  </i>
   <i type="logical" name="LSMP2LT"> F  </i>
   <i type="logical" name="LGWLF"> F  </i>
   <i name="ENCUTGW">     -1.60000002</i>
   <i name="ENCUTGWSOFT">     -1.60000002</i>
   <i name="ENCUTLF">     -1.00000000</i>
   <i type="logical" name="ESF_SPLINES"> F  </i>
   <i name="ESF_CONV">      0.01000000</i>
   <i type="int" name="ESF_NINTER">    15</i>
   <i type="int" name="LMAXMP2">    -1</i>
   <i name="SCISSOR">      0.00000000</i>
   <i type="int" name="NOMEGA">     0</i>
   <i type="int" name="NOMEGAR">     0</i>
   <i type="int" name="NBANDSGW">    -1</i>
   <i type="int" name="NBANDSO">    -1</i>
   <i type="int" name="NBANDSV">    -1</i>
   <i type="int" name="NELMGW">     1</i>
   <i type="int" name="NELMHF">     1</i>
   <i type="int" name="DIM">     3</i>
   <i type="int" name="IESPILON">     4</i>
   <i type="int" name="ANTIRES">     0</i>
   <i name="OMEGAMAX">    -30.00000000</i>
   <i name="OMEGAMIN">    -30.00000000</i>
   <i name="OMEGATL">   -200.00000000</i>
   <i type="int" name="OMEGAGRID">     0</i>
   <i name="CSHIFT">     -0.10000000</i>
   <i type="logical" name="LSELFENERGY"> F  </i>
   <i type="logical" name="LSPECTRAL"> F  </i>
   <i type="logical" name="LSPECTRALGW"> F  </i>
   <i type="logical" name="LSINGLES"> F  </i>
   <i type="logical" name="LFERMIGW"> F  </i>
   <i type="logical" name="ODDONLYGW"> F  </i>
   <i type="logical" name="EVENONLYGW"> F  </i>
   <i type="int" name="NKREDLFX">     1</i>
   <i type="int" name="NKREDLFY">     1</i>
   <i type="int" name="NKREDLFZ">     1</i>
   <i type="int" name="MAXMEM">  2800</i>
   <i type="int" name="TELESCOPE">     0</i>
   <i type="int" name="NTAUPAR">    -1</i>
   <i type="int" name="NOMEGAPAR">    -1</i>
   <i name="DAMP_NEWTON">      0.80000001</i>
   <i name="LAMBDA">      1.00000000</i>
  </separator>
  <separator name="External order field" >
   <i name="OFIELD_KAPPA">      0.00000000</i>
   <v name="OFIELD_K">      0.00000000      0.00000000      0.00000000</v>
   <i name="OFIELD_Q6_NEAR">      0.00000000</i>
   <i name="OFIELD_Q6_FAR">      0.00000000</i>
   <i name="OFIELD_A">      0.00000000</i>
  </separator>
  <separator name="optional k-points parameters" >
   <i type="int" name="KPOINTS_OPT_MODE">     1</i>
   <i type="logical" name="LKPOINTS_OPT"> F  </i>
  </separator>
 </parameters>
 <atominfo>
  <atoms>      64 </atoms>
  <types>       2 </types>
  <array name="atoms" >
   <dimension dim="1">ion</dimension>
   <field type="string">element</field>
   <field type="int">atomtype</field>
   <set>
    <rc><c>As</c><c>   1</c></rc>
    <rc><c>As</c><c>   1</c></rc>
    <rc><c>As</c><c>   1</c></rc>
    <rc><c>As</c><c>   1</c></rc>
    <rc><c>As</c><c>   1</c></rc>
    <rc><c>As</c><c>   1</c></rc>
    <rc><c>As</c><c>   1</c></rc>
    <rc><c>As</c><c>   1</c></rc>
    <rc><c>As</c><c>   1</c></rc>
    <rc><c>As</c><c>   1</c></rc>
    <rc><c>As</c><c>   1</c></rc>
    <rc><c>As</c><c>   1</c></rc>
    <rc><c>As</c><c>   1</c></rc>
    <rc><c>As</c><c>   1</c></rc>
    <rc><c>As</c><c>   1</c></rc>
    <rc><c>As</c><c>   1</c></rc>
    <rc><c>As</c><c>   1</c></rc>
    <rc><c>As</c><c>   1</c></rc>
    <rc><c>As</c><c>   1</c></rc>
    <rc><c>As</c><c>   1</c></rc>
    <rc><c>As</c><c>   1</c></rc>
    <rc><c>As</c><c>   1</c></rc>
    <rc><c>As</c><c>   1</c></rc>
    <rc><c>As</c><c>   1</c></rc>
    <rc><c>As</c><c>   1</c></rc>
    <rc><c>As</c><c>   1</c></rc>
    <rc><c>As</c><c>   1</c></rc>
    <rc><c>As</c><c>   1</c></rc>
    <rc><c>As</c><c>   1</c></rc>
    <rc><c>As</c><c>   1</c></rc>
    <rc><c>As</c><c>   1</c></rc>
    <rc><c>As</c><c>   1</c></rc>
    <rc><c>Ga</c><c>   2</c></rc>
    <rc><c>Ga</c><c>   2</c></rc>
    <rc><c>Ga</c><c>   2</c></rc>
    <rc><c>Ga</c><c>   2</c></rc>
    <rc><c>Ga</c><c>   2</c></rc>
    <rc><c>Ga</c><c>   2</c></rc>
    <rc><c>Ga</c><c>   2</c></rc>
    <rc><c>Ga</c><c>   2</c></rc>
    <rc><c>Ga</c><c>   2</c></rc>
    <rc><c>Ga</c><c>   2</c></rc>
    <rc><c>Ga</c><c>   2</c></rc>
    <rc><c>Ga</c><c>   2</c></rc>
    <rc><c>Ga</c><c>   2</c></rc>
    <rc><c>Ga</c><c>   2</c></rc>
    <rc><c>Ga</c><c>   2</c></rc>
    <rc><c>Ga</c><c>   2</c></rc>
    <rc><c>Ga</c><c>   2</c></rc>
    <rc><c>Ga</c><c>   2</c></rc>
    <rc><c>Ga</c><c>   2</c></rc>
    <rc><c>Ga</c><c>   2</c></rc>
    <rc><c>Ga</c><c>   2</c></rc>
    <rc><c>Ga</c><c>   2</c></rc>
    <rc><c>Ga</c><c>   2</c></rc>
    <rc><c>Ga</c><c>   2</c></rc>
    <rc><c>Ga</c><c>   2</c></rc>
    <rc><c>Ga</c><c>   2</c></rc>
    <rc><c>Ga</c><c>   2</c></rc>
    <rc><c>Ga</c><c>   2</c></rc>
    <rc><c>Ga</c><c>   2</c></rc>
    <rc><c>Ga</c><c>   2</c></rc>
    <rc><c>Ga</c><c>   2</c></rc>
    <rc><c>Ga</c><c>   2</c></rc>
   </set>
  </array>
  <array name="atomtypes" >
   <dimension dim="1">type</dimension>
   <field type="int">atomspertype</field>
   <field type="string">element</field>
   <field>mass</field>
   <field>valence</field>
   <field type="string">pseudopotential</field>
   <set>
    <rc><c>  32</c><c>As</c><c>     74.92200000</c><c>      5.00000000</c><c>  PAW_PBE As 22Sep2009                  </c></rc>
    <rc><c>  32</c><c>Ga</c><c>     69.72300000</c><c>      3.00000000</c><c>  PAW_PBE Ga 08Apr2002                  </c></rc>
   </set>
  </array>
 </atominfo>
 <structure name="initialpos" >
  <crystal>
   <varray name="basis" >
    <v>      11.61325083       0.00000000       0.00000000 </v>
    <v>       0.00000000      11.50000002       0.00000000 </v>
    <v>       0.00000000       0.00000000      11.50000002 </v>
   </varray>
   <i name="volume">   1535.85242897 </i>
   <varray name="rec_basis" >
    <v>       0.08610853       0.00000000       0.00000000 </v>
    <v>       0.00000000       0.08695652       0.00000000 </v>
    <v>       0.00000000       0.00000000       0.08695652 </v>
   </varray>
  </crystal>
  <varray name="positions" >
   <v>       0.00000000       0.00000000       0.00000000 </v>
   <v>       0.00000000       0.00000000       0.50000000 </v>
   <v>       0.00000000       0.50000000       0.00000000 </v>
   <v>       0.00000000       0.50000000       0.50000000 </v>
   <v>       0.50000000       0.00000000       0.00000000 </v>
   <v>       0.50000000       0.00000000       0.50000000 </v>
   <v>       0.50000000       0.50000000       0.00000000 </v>
   <v>       0.50000000       0.50000000       0.50000000 </v>
   <v>       0.25000000       0.25000000       0.00000000 </v>
   <v>       0.25000000       0.25000000       0.50000000 </v>
   <v>       0.25000000       0.75000000       0.00000000 </v>
   <v>       0.25000000       0.75000000       0.50000000 </v>
   <v>       0.75000000       0.25000000       0.00000000 </v>
   <v>       0.75000000       0.25000000       0.50000000 </v>
   <v>       0.75000000       0.75000000       0.00000000 </v>
   <v>       0.75000000       0.75000000       0.50000000 </v>
   <v>       0.25000000       0.00000000       0.25000000 </v>
   <v>       0.25000000       0.00000000       0.75000000 </v>
   <v>       0.25000000       0.50000000       0.25000000 </v>
   <v>       0.25000000       0.50000000       0.75000000 </v>
   <v>       0.75000000       0.00000000       0.25000000 </v>
   <v>       0.75000000       0.00000000       0.75000000 </v>
   <v>       0.75000000       0.50000000       0.25000000 </v>
   <v>       0.75000000       0.50000000       0.75000000 </v>
   <v>       0.00000000       0.25000000       0.25000000 </v>
   <v>       0.00000000       0.25000000       0.75000000 </v>
   <v>       0.00000000       0.75000000       0.25000000 </v>
   <v>       0.00000000       0.75000000       0.75000000 </v>
   <v>       0.50000000       0.25000000       0.25000000 </v>
   <v>       0.50000000       0.25000000       0.75000000 </v>
   <v>       0.50000000       0.75000000       0.25000000 </v>
   <v>       0.50000000       0.75000000       0.75000000 </v>
   <v>       0.12500000       0.12500000       0.12500000 </v>
   <v>       0.12500000       0.12500000       0.62500000 </v>
   <v>       0.12500000       0.62500000       0.12500000 </v>
   <v>       0.12500000       0.62500000       0.62500000 </v>
   <v>       0.62500000       0.12500000       0.12500000 </v>
   <v>       0.62500000       0.12500000       0.62500000 </v>
   <v>       0.62500000       0.62500000       0.12500000 </v>
   <v>       0.62500000       0.62500000       0.62500000 </v>
   <v>       0.37500000       0.12500000       0.37500000 </v>
   <v>       0.37500000       0.12500000       0.87500000 </v>
   <v>       0.37500000       0.62500000       0.37500000 </v>
   <v>       0.37500000       0.62500000       0.87500000 </v>
   <v>       0.87500000       0.12500000       0.37500000 </v>
   <v>       0.87500000       0.12500000       0.87500000 </v>
   <v>       0.87500000       0.62500000       0.37500000 </v>
   <v>       0.87500000       0.62500000       0.87500000 </v>
   <v>       0.37500000       0.37500000       0.12500000 </v>
   <v>       0.37500000       0.37500000       0.62500000 </v>
   <v>       0.37500000       0.87500000       0.12500000 </v>
   <v>       0.37500000       0.87500000       0.62500000 </v>
   <v>       0.87500000       0.37500000       0.12500000 </v>
   <v>       0.87500000       0.37500000       0.62500000 </v>
   <v>       0.87500000       0.87500000       0.12500000 </v>
   <v>       0.87500000       0.87500000       0.62500000 </v>
   <v>       0.12500000       0.37500000       0.37500000 </v>
   <v>       0.12500000       0.37500000       0.87500000 </v>
   <v>       0.12500000       0.87500000       0.37500000 </v>
   <v>       0.12500000       0.87500000       0.87500000 </v>
   <v>       0.62500000       0.37500000       0.37500000 </v>
   <v>       0.62500000       0.37500000       0.87500000 </v>
   <v>       0.62500000       0.87500000       0.37500000 </v>
   <v>       0.62500000       0.87500000       0.87500000 </v>
  </varray>
 </structure>
 <calculation>
  <scstep>
   <time name="dav">   75.31   76.39</time>
   <time name="total">   75.45   76.53</time>
   <energy>
    <i name="alphaZ">    570.21530070 </i>
    <i name="ewald">  -7186.72751706 </i>
    <i name="hartreedc">   -603.57106400 </i>
    <i name="XCdc">   -996.46317995 </i>
    <i name="pawpsdc">   6692.16565901 </i>
    <i name="pawaedc">  -5247.93935635 </i>
    <i name="eentropy">      0.00000000 </i>
    <i name="bandstr">    376.13381695 </i>
    <i name="atom">   7329.73306348 </i>
    <i name="e_fr_energy">    933.54672279 </i>
    <i name="e_wo_entrp">    933.54672279 </i>
    <i name="e_0_energy">    933.54672279 </i>
   </energy>
  </scstep>
  <scstep>
   <time name="dav">   84.60   85.74</time>
   <time name="total">   84.60   85.75</time>
   <energy>
    <i name="e_fr_energy">   -167.57272994 </i>
    <i name="e_wo_entrp">   -167.57272994 </i>
    <i name="e_0_energy">   -167.57272994 </i>
   </energy>
  </scstep>
  <scstep>
   <time name="dav">   86.70   87.93</time>
   <time name="total">   86.71   87.93</time>
   <energy>
    <i name="e_fr_energy">   -267.66400631 </i>
    <i name="e_wo_entrp">   -267.66400631 </i>
    <i name="e_0_energy">   -267.66400631 </i>
   </energy>
  </scstep>
  <scstep>
   <time name="dav">   85.86   87.02</time>
   <time name="total">   85.87   87.02</time>
   <energy>
    <i name="e_fr_energy">   -270.14253923 </i>
    <i name="e_wo_entrp">   -270.14253923 </i>
    <i name="e_0_energy">   -270.14253923 </i>
   </energy>
  </scstep>
  <scstep>
   <time name="dav">   86.10   87.19</time>
   <time name="total">   86.89   87.98</time>
   <energy>
    <i name="e_fr_energy">   -270.21015618 </i>
    <i name="e_wo_entrp">   -270.21015618 </i>
    <i name="e_0_energy">   -270.21015618 </i>
   </energy>
  </scstep>
  <scstep>
   <time name="dav">   82.99   84.04</time>
   <time name="total">   83.90   84.96</time>
   <energy>
    <i name="e_fr_energy">   -266.02704323 </i>
    <i name="e_wo_entrp">   -266.02704323 </i>
    <i name="e_0_energy">   -266.02704323 </i>
   </energy>
  </scstep>
  <scstep>
   <time name="dav">   85.71   86.99</time>
   <time name="total">   86.65   87.94</time>
   <energy>
    <i name="e_fr_energy">   -265.20171886 </i>
    <i name="e_wo_entrp">   -265.20171886 </i>
    <i name="e_0_energy">   -265.20171886 </i>
   </energy>
  </scstep>
  <scstep>
   <time name="dav">   82.82   84.15</time>
   <time name="total">   83.74   85.08</time>
   <energy>
    <i name="e_fr_energy">   -265.16035603 </i>
    <i name="e_wo_entrp">   -265.16035603 </i>
    <i name="e_0_energy">   -265.16035603 </i>
   </energy>
  </scstep>
  <scstep>
   <time name="dav">   82.74   83.91</time>
   <time name="total">   83.66   84.84</time>
   <energy>
    <i name="e_fr_energy">   -265.17215151 </i>
    <i name="e_wo_entrp">   -265.17215151 </i>
    <i name="e_0_energy">   -265.17215151 </i>
   </energy>
  </scstep>
  <scstep>
   <time name="dav">   88.32   89.57</time>
   <time name="total">   89.24   90.49</time>
   <energy>
    <i name="e_fr_energy">   -265.17321730 </i>
    <i name="e_wo_entrp">   -265.17321730 </i>
    <i name="e_0_energy">   -265.17321730 </i>
   </energy>
  </scstep>
  <scstep>
   <time name="dav">   77.86   78.98</time>
   <time name="total">   78.77   79.89</time>
   <energy>
    <i name="e_fr_energy">   -265.17453194 </i>
    <i name="e_wo_entrp">   -265.17453194 </i>
    <i name="e_0_energy">   -265.17453194 </i>
   </energy>
  </scstep>
  <scstep>
   <time name="dav">   86.48   87.56</time>
   <time name="total">   87.39   88.48</time>
   <energy>
    <i name="e_fr_energy">   -265.17453903 </i>
    <i name="e_wo_entrp">   -265.17453903 </i>
    <i name="e_0_energy">   -265.17453903 </i>
   </energy>
  </scstep>
  <scstep>
   <time name="dav">   81.80   82.77</time>
   <time name="total">   82.70   83.68</time>
   <energy>
    <i name="e_fr_energy">   -265.17454807 </i>
    <i name="e_wo_entrp">   -265.17454807 </i>
    <i name="e_0_energy">   -265.17454807 </i>
   </energy>
  </scstep>
  <scstep>
   <time name="dav">   72.21   73.11</time>
   <time name="total">   72.34   73.24</time>
   <energy>
    <i name="alphaZ">    570.21530070 </i>
    <i name="ewald">  -7186.72751706 </i>
    <i name="hartreedc">   -711.89228354 </i>
    <i name="XCdc">   -974.55865641 </i>
    <i name="pawpsdc">  14626.50176992 </i>
    <i name="pawaedc"> -13193.92661875 </i>
    <i name="eentropy">      0.00000000 </i>
    <i name="bandstr">   -724.51960577 </i>
    <i name="atom">   7329.73306348 </i>
    <i name="e_fr_energy">   -265.17454744 </i>
    <i name="e_wo_entrp">   -265.17454744 </i>
    <i name="e_0_energy">   -265.17454744 </i>
   </energy>
  </scstep>
  <structure>
   <crystal>
    <varray name="basis" >
     <v>      11.61325083       0.00000000       0.00000000 </v>
     <v>       0.00000000      11.50000002       0.00000000 </v>
     <v>       0.00000000       0.00000000      11.50000002 </v>
    </varray>
    <i name="volume">   1535.85242897 </i>
    <varray name="rec_basis" >
     <v>       0.08610853       0.00000000       0.00000000 </v>
     <v>       0.00000000       0.08695652       0.00000000 </v>
     <v>       0.00000000       0.00000000       0.08695652 </v>
    </varray>
   </crystal>
   <varray name="positions" >
    <v>       0.00000000       0.00000000       0.00000000 </v>
    <v>       0.00000000       0.00000000       0.50000000 </v>
    <v>       0.00000000       0.50000000       0.00000000 </v>
    <v>       0.00000000       0.50000000       0.50000000 </v>
    <v>       0.50000000       0.00000000       0.00000000 </v>
    <v>       0.50000000       0.00000000       0.50000000 </v>
    <v>       0.50000000       0.50000000       0.00000000 </v>
    <v>       0.50000000       0.50000000       0.50000000 </v>
    <v>       0.25000000       0.25000000       0.00000000 </v>
    <v>       0.25000000       0.25000000       0.50000000 </v>
    <v>       0.25000000       0.75000000       0.00000000 </v>
    <v>       0.25000000       0.75000000       0.50000000 </v>
    <v>       0.75000000       0.25000000       0.00000000 </v>
    <v>       0.75000000       0.25000000       0.50000000 </v>
    <v>       0.75000000       0.75000000       0.00000000 </v>
    <v>       0.75000000       0.75000000       0.50000000 </v>
    <v>       0.25000000       0.00000000       0.25000000 </v>
    <v>       0.25000000       0.00000000       0.75000000 </v>
    <v>       0.25000000       0.50000000       0.25000000 </v>
    <v>       0.25000000       0.50000000       0.75000000 </v>
    <v>       0.75000000       0.00000000       0.25000000 </v>
    <v>       0.75000000       0.00000000       0.75000000 </v>
    <v>       0.75000000       0.50000000       0.25000000 </v>
    <v>       0.75000000       0.50000000       0.75000000 </v>
    <v>       0.00000000       0.25000000       0.25000000 </v>
    <v>       0.00000000       0.25000000       0.75000000 </v>
    <v>       0.00000000       0.75000000       0.25000000 </v>
    <v>       0.00000000       0.75000000       0.75000000 </v>
    <v>       0.50000000       0.25000000       0.25000000 </v>
    <v>       0.50000000       0.25000000       0.75000000 </v>
    <v>       0.50000000       0.75000000       0.25000000 </v>
    <v>       0.50000000       0.75000000       0.75000000 </v>
    <v>       0.12500000       0.12500000       0.12500000 </v>
    <v>       0.12500000       0.12500000       0.62500000 </v>
    <v>       0.12500000       0.62500000       0.12500000 </v>
    <v>       0.12500000       0.62500000       0.62500000 </v>
    <v>       0.62500000       0.12500000       0.12500000 </v>
    <v>       0.62500000       0.12500000       0.62500000 </v>
    <v>       0.62500000       0.62500000       0.12500000 </v>
    <v>       0.62500000       0.62500000       0.62500000 </v>
    <v>       0.37500000       0.12500000       0.37500000 </v>
    <v>       0.37500000       0.12500000       0.87500000 </v>
    <v>       0.37500000       0.62500000       0.37500000 </v>
    <v>       0.37500000       0.62500000       0.87500000 </v>
    <v>       0.87500000       0.12500000       0.37500000 </v>
    <v>       0.87500000       0.12500000       0.87500000 </v>
    <v>       0.87500000       0.62500000       0.37500000 </v>
    <v>       0.87500000       0.62500000       0.87500000 </v>
    <v>       0.37500000       0.37500000       0.12500000 </v>
    <v>       0.37500000       0.37500000       0.62500000 </v>
    <v>       0.37500000       0.87500000       0.12500000 </v>
    <v>       0.37500000       0.87500000       0.62500000 </v>
    <v>       0.87500000       0.37500000       0.12500000 </v>
    <v>       0.87500000       0.37500000       0.62500000 </v>
    <v>       0.87500000       0.87500000       0.12500000 </v>
    <v>       0.87500000       0.87500000       0.62500000 </v>
    <v>       0.12500000       0.37500000       0.37500000 </v>
    <v>       0.12500000       0.37500000       0.87500000 </v>
    <v>       0.12500000       0.87500000       0.37500000 </v>
    <v>       0.12500000       0.87500000       0.87500000 </v>
    <v>       0.62500000       0.37500000       0.37500000 </v>
    <v>       0.62500000       0.37500000       0.87500000 </v>
    <v>       0.62500000       0.87500000       0.37500000 </v>
    <v>       0.62500000       0.87500000       0.87500000 </v>
   </varray>
  </structure>
  <varray name="forces" >
   <v>       0.00000000      -0.00000000      -0.00000000 </v>
   <v>       0.00000000      -0.00000000      -0.00000000 </v>
   <v>      -0.00000000      -0.00000000       0.00000000 </v>
   <v>       0.00000000       0.00000000       0.00000000 </v>
   <v>       0.00000000      -0.00000000       0.00000000 </v>
   <v>      -0.00000000       0.00000000      -0.00000000 </v>
   <v>      -0.00000000       0.00000000      -0.00000000 </v>
   <v>       0.00000000      -0.00000000       0.00000000 </v>
   <v>      -0.00000000      -0.00000000       0.00000000 </v>
   <v>       0.00000000      -0.00000000      -0.00000000 </v>
   <v>      -0.00000000      -0.00000000       0.00000000 </v>
   <v>       0.00000000       0.00000000       0.00000000 </v>
   <v>       0.00000000       0.00000000      -0.00000000 </v>
   <v>       0.00000000      -0.00000000      -0.00000000 </v>
   <v>      -0.00000000      -0.00000000       0.00000000 </v>
   <v>      -0.00000000      -0.00000000       0.00000000 </v>
   <v>       0.00000000       0.00000000      -0.00000000 </v>
   <v>       0.00000000       0.00000000      -0.00000000 </v>
   <v>      -0.00000000      -0.00000000      -0.00000000 </v>
   <v>      -0.00000000      -0.00000000      -0.00000000 </v>
   <v>       0.00000000      -0.00000000      -0.00000000 </v>
   <v>      -0.00000000      -0.00000000      -0.00000000 </v>
   <v>      -0.00000000      -0.00000000       0.00000000 </v>
   <v>       0.00000000      -0.00000000      -0.00000000 </v>
   <v>       0.00000000       0.00000000      -0.00000000 </v>
   <v>       0.00000000       0.00000000      -0.00000000 </v>
   <v>      -0.00000000      -0.00000000       0.00000000 </v>
   <v>       0.00000000       0.00000000       0.00000000 </v>
   <v>      -0.00000000      -0.00000000      -0.00000000 </v>
   <v>      -0.00000000      -0.00000000      -0.00000000 </v>
   <v>      -0.00000000      -0.00000000       0.00000000 </v>
   <v>      -0.00000000      -0.00000000       0.00000000 </v>
   <v>      -0.00000000       0.00000000      -0.00000000 </v>
   <v>       0.00000000       0.00000000      -0.00000000 </v>
   <v>       0.00000000      -0.00000000      -0.00000000 </v>
   <v>       0.00000000       0.00000000      -0.00000000 </v>
   <v>      -0.00000000       0.00000000      -0.00000000 </v>
   <v>       0.00000000       0.00000000      -0.00000000 </v>
   <v>       0.00000000       0.00000000      -0.00000000 </v>
   <v>      -0.00000000       0.00000000      -0.00000000 </v>
   <v>       0.00000000       0.00000000      -0.00000000 </v>
   <v>       0.00000000       0.00000000      -0.00000000 </v>
   <v>       0.00000000      -0.00000000      -0.00000000 </v>
   <v>      -0.00000000       0.00000000       0.00000000 </v>
   <v>      -0.00000000       0.00000000      -0.00000000 </v>
   <v>      -0.00000000       0.00000000       0.00000000 </v>
   <v>      -0.00000000      -0.00000000      -0.00000000 </v>
   <v>       0.00000000      -0.00000000       0.00000000 </v>
   <v>      -0.00000000      -0.00000000      -0.00000000 </v>
   <v>       0.00000000       0.00000000      -0.00000000 </v>
   <v>       0.00000000       0.00000000      -0.00000000 </v>
   <v>      -0.00000000       0.00000000      -0.00000000 </v>
   <v>      -0.00000000       0.00000000      -0.00000000 </v>
   <v>      -0.00000000       0.00000000      -0.00000000 </v>
   <v>      -0.00000000       0.00000000       0.00000000 </v>
   <v>      -0.00000000       0.00000000       0.00000000 </v>
   <v>       0.00000000       0.00000000      -0.00000000 </v>
   <v>      -0.00000000       0.00000000      -0.00000000 </v>
   <v>       0.00000000       0.00000000      -0.00000000 </v>
   <v>       0.00000000       0.00000000      -0.00000000 </v>
   <v>       0.00000000       0.00000000      -0.00000000 </v>
   <v>      -0.00000000       0.00000000      -0.00000000 </v>
   <v>       0.00000000       0.00000000      -0.00000000 </v>
   <v>      -0.00000000       0.00000000       0.00000000 </v>
  </varray>
  <varray name="stress" >
   <v>      -5.74919484       0.00000000       0.00000000 </v>
   <v>       0.00000000      -0.16021427       0.00000000 </v>
   <v>       0.00000000       0.00000000      -0.16021427 </v>
  </varray>
  <scstep>
   <time name="total">  120.06  121.33</time>
   <energy>
    <i name="e_fr_energy">  -1271.35858468 </i>
    <i name="e_wo_entrp">  -1271.35858468 </i>
    <i name="e_0_energy">  -1271.35858468 </i>
   </energy>
  </scstep>
  <scstep>
   <time name="total">   87.20   88.17</time>
   <energy>
    <i name="e_fr_energy">  -1099.16204139 </i>
    <i name="e_wo_entrp">  -1099.16204139 </i>
    <i name="e_0_energy">  -1099.16204139 </i>
   </energy>
  </scstep>
  <scstep>
   <time name="total">   89.14   90.06</time>
   <energy>
    <i name="e_fr_energy">  -1101.50934378 </i>
    <i name="e_wo_entrp">  -1101.50934378 </i>
    <i name="e_0_energy">  -1101.50934378 </i>
   </energy>
  </scstep>
  <scstep>
   <time name="total">   57.65   58.26</time>
   <energy>
    <i name="e_fr_energy">  -1101.63429886 </i>
    <i name="e_wo_entrp">  -1101.63429886 </i>
    <i name="e_0_energy">  -1101.63429886 </i>
   </energy>
  </scstep>
  <scstep>
   <time name="total">   57.67   58.36</time>
   <energy>
    <i name="e_fr_energy">  -1101.63540909 </i>
    <i name="e_wo_entrp">  -1101.63540909 </i>
    <i name="e_0_energy">  -1101.63540909 </i>
   </energy>
  </scstep>
  <scstep>
   <time name="total">   60.66   61.42</time>
   <energy>
    <i name="e_fr_energy">  -1101.63494415 </i>
    <i name="e_wo_entrp">  -1101.63494415 </i>
    <i name="e_0_energy">  -1101.63494415 </i>
   </energy>
  </scstep>
  <scstep>
   <time name="total">   64.07   64.83</time>
   <energy>
    <i name="e_fr_energy">  -1101.63477846 </i>
    <i name="e_wo_entrp">  -1101.63477846 </i>
    <i name="e_0_energy">  -1101.63477846 </i>
   </energy>
  </scstep>
  <scstep>
   <time name="total">   68.44   69.29</time>
   <energy>
    <i name="e_fr_energy">  -1101.63479413 </i>
    <i name="e_wo_entrp">  -1101.63479413 </i>
    <i name="e_0_energy">  -1101.63479413 </i>
   </energy>
  </scstep>
  <scstep>
   <time name="total">   69.57   70.36</time>
   <energy>
    <i name="e_fr_energy">  -1101.63471942 </i>
    <i name="e_wo_entrp">  -1101.63471942 </i>
    <i name="e_0_energy">  -1101.63471942 </i>
   </energy>
  </scstep>
  <scstep>
   <time name="total">   71.53   72.33</time>
   <energy>
    <i name="e_fr_energy">  -1101.63473225 </i>
    <i name="e_wo_entrp">  -1101.63473225 </i>
    <i name="e_0_energy">  -1101.63473225 </i>
   </energy>
  </scstep>
  <scstep>
   <time name="total">   72.81   73.65</time>
   <energy>
    <i name="e_fr_energy">  -1101.63472757 </i>
    <i name="e_wo_entrp">  -1101.63472757 </i>
    <i name="e_0_energy">  -1101.63472757 </i>
   </energy>
  </scstep>
  <scstep>
   <time name="total">  121.67  123.06</time>
   <energy>
    <i name="e_fr_energy">  -1258.87887060 </i>
    <i name="e_wo_entrp">  -1258.87887060 </i>
    <i name="e_0_energy">  -1258.87887060 </i>
   </energy>
  </scstep>
  <scstep>
   <time name="total">   88.23   89.28</time>
   <energy>
    <i name="e_fr_energy">  -1099.66547764 </i>
    <i name="e_wo_entrp">  -1099.66547764 </i>
    <i name="e_0_energy">  -1099.66547764 </i>
   </energy>
  </scstep>
  <scstep>
   <time name="total">   89.71   90.76</time>
   <energy>
    <i name="e_fr_energy">  -1101.61649274 </i>
    <i name="e_wo_entrp">  -1101.61649274 </i>
    <i name="e_0_energy">  -1101.61649274 </i>
   </energy>
  </scstep>
  <scstep>
   <time name="total">   57.20   57.96</time>
   <energy>
    <i name="e_fr_energy">  -1101.71815915 </i>
    <i name="e_wo_entrp">  -1101.71815915 </i>
    <i name="e_0_energy">  -1101.71815915 </i>
   </energy>
  </scstep>
  <scstep>
   <time name="total">   57.66   58.28</time>
   <energy>
    <i name="e_fr_energy">  -1101.71376113 </i>
    <i name="e_wo_entrp">  -1101.71376113 </i>
    <i name="e_0_energy">  -1101.71376113 </i>
   </energy>
  </scstep>
  <scstep>
   <time name="total">   61.17   61.89</time>
   <energy>
    <i name="e_fr_energy">  -1101.71154739 </i>
    <i name="e_wo_entrp">  -1101.71154739 </i>
    <i name="e_0_energy">  -1101.71154739 </i>
   </energy>
  </scstep>
  <scstep>
   <time name="total">   64.02   64.76</time>
   <energy>
    <i name="e_fr_energy">  -1101.71088006 </i>
    <i name="e_wo_entrp">  -1101.71088006 </i>
    <i name="e_0_energy">  -1101.71088006 </i>
   </energy>
  </scstep>
  <scstep>
   <time name="total">   68.75   69.53</time>
   <energy>
    <i name="e_fr_energy">  -1101.71077025 </i>
    <i name="e_wo_entrp">  -1101.71077025 </i>
    <i name="e_0_energy">  -1101.71077025 </i>
   </energy>
  </scstep>
  <scstep>
   <time name="total">   70.08   70.85</time>
   <energy>
    <i name="e_fr_energy">  -1101.71074350 </i>
    <i name="e_wo_entrp">  -1101.71074350 </i>
    <i name="e_0_energy">  -1101.71074350 </i>
   </energy>
  </scstep>
  <scstep>
   <time name="total">   71.36   72.20</time>
   <energy>
    <i name="e_fr_energy">  -1101.71073283 </i>
    <i name="e_wo_entrp">  -1101.71073283 </i>
    <i name="e_0_energy">  -1101.71073283 </i>
   </energy>
  </scstep>
  <scstep>
   <time name="total">   73.28   74.12</time>
   <energy>
    <i name="e_fr_energy">  -1101.71073835 </i>
    <i name="e_wo_entrp">  -1101.71073835 </i>
    <i name="e_0_energy">  -1101.71073835 </i>
   </energy>
  </scstep>
  <scstep>
   <time name="total">  122.79  124.25</time>
   <energy>
    <i name="e_fr_energy">  -1382.52773183 </i>
    <i name="e_wo_entrp">  -1382.52773183 </i>
    <i name="e_0_energy">  -1382.52773183 </i>
   </energy>
  </scstep>
  <scstep>
   <time name="total">   87.56   88.62</time>
   <energy>
    <i name="e_fr_energy">  -1104.93321706 </i>
    <i name="e_wo_entrp">  -1104.93321706 </i>
    <i name="e_0_energy">  -1104.93321706 </i>
   </energy>
  </scstep>
  <scstep>
   <time name="total">   88.89   89.89</time>
   <energy>
    <i name="e_fr_energy">  -1107.09972567 </i>
    <i name="e_wo_entrp">  -1107.09972567 </i>
    <i name="e_0_energy">  -1107.09972567 </i>
   </energy>
  </scstep>
  <scstep>
   <time name="total">   57.71   58.35</time>
   <energy>
    <i name="e_fr_energy">  -1107.22239323 </i>
    <i name="e_wo_entrp">  -1107.22239323 </i>
    <i name="e_0_energy">  -1107.22239323 </i>
   </energy>
  </scstep>
  <scstep>
   <time name="total">   57.74   58.36</time>
   <energy>
    <i name="e_fr_energy">  -1107.21636217 </i>
    <i name="e_wo_entrp">  -1107.21636217 </i>
    <i name="e_0_energy">  -1107.21636217 </i>
   </energy>
  </scstep>
  <scstep>
   <time name="total">   60.34   61.20</time>
   <energy>
    <i name="e_fr_energy">  -1107.21389111 </i>
    <i name="e_wo_entrp">  -1107.21389111 </i>
    <i name="e_0_energy">  -1107.21389111 </i>
   </energy>
  </scstep>
  <scstep>
   <time name="total">   64.23   64.92</time>
   <energy>
    <i name="e_fr_energy">  -1107.21319605 </i>
    <i name="e_wo_entrp">  -1107.21319605 </i>
    <i name="e_0_energy">  -1107.21319605 </i>
   </energy>
  </scstep>
  <scstep>
   <time name="total">   69.33   70.19</time>
   <energy>
    <i name="e_fr_energy">  -1107.21306742 </i>
    <i name="e_wo_entrp">  -1107.21306742 </i>
    <i name="e_0_energy">  -1107.21306742 </i>
   </energy>
  </scstep>
  <scstep>
   <time name="total">   69.89   70.63</time>
   <energy>
    <i name="e_fr_energy">  -1107.21306323 </i>
    <i name="e_wo_entrp">  -1107.21306323 </i>
    <i name="e_0_energy">  -1107.21306323 </i>
   </energy>
  </scstep>
  <scstep>
   <time name="total">   71.62   72.43</time>
   <energy>
    <i name="e_fr_energy">  -1107.21305527 </i>
    <i name="e_wo_entrp">  -1107.21305527 </i>
    <i name="e_0_energy">  -1107.21305527 </i>
   </energy>
  </scstep>
  <scstep>
   <time name="total">   72.86   73.71</time>
   <energy>
    <i name="e_fr_energy">  -1107.21306081 </i>
    <i name="e_wo_entrp">  -1107.21306081 </i>
    <i name="e_0_energy">  -1107.21306081 </i>
   </energy>
  </scstep>
  <kpoints>
   <generation param="Gamma">
    <v type="int" name="divisions">       5        5        5 </v>
    <v name="usershift">      0.00000000       0.00000000       0.00000000 </v>
    <v name="genvec1">      0.20000000       0.00000000       0.00000000 </v>
    <v name="genvec2">      0.00000000       0.20000000       0.00000000 </v>
    <v name="genvec3">      0.00000000       0.00000000       0.20000000 </v>
    <v name="shift">      0.00000000       0.00000000       0.00000000 </v>
   </generation>
   <varray name="kpointlist" >
    <v>       0.00000000       0.00000000       0.00000000 </v>
    <v>       0.20000000       0.00000000       0.00000000 </v>
    <v>       0.40000000       0.00000000       0.00000000 </v>
    <v>       0.00000000       0.20000000       0.00000000 </v>
    <v>       0.20000000       0.20000000       0.00000000 </v>
    <v>       0.40000000       0.20000000       0.00000000 </v>
    <v>       0.00000000       0.40000000       0.00000000 </v>
    <v>       0.20000000       0.40000000       0.00000000 </v>
    <v>       0.40000000       0.40000000       0.00000000 </v>
    <v>       0.00000000       0.20000000       0.20000000 </v>
    <v>       0.00000000      -0.20000000       0.20000000 </v>
    <v>       0.20000000       0.20000000       0.20000000 </v>
    <v>       0.20000000      -0.20000000       0.20000000 </v>
    <v>       0.40000000       0.20000000       0.20000000 </v>
    <v>       0.40000000      -0.20000000       0.20000000 </v>
    <v>       0.00000000       0.40000000       0.20000000 </v>
    <v>       0.00000000      -0.20000000       0.40000000 </v>
    <v>       0.20000000       0.40000000       0.20000000 </v>
    <v>       0.20000000      -0.20000000       0.40000000 </v>
    <v>       0.40000000       0.40000000       0.20000000 </v>
    <v>       0.40000000      -0.20000000       0.40000000 </v>
    <v>       0.00000000       0.40000000       0.40000000 </v>
    <v>       0.00000000      -0.40000000       0.40000000 </v>
    <v>       0.20000000       0.40000000       0.40000000 </v>
    <v>       0.20000000      -0.40000000       0.40000000 </v>
    <v>       0.40000000       0.40000000       0.40000000 </v>
    <v>       0.40000000      -0.40000000       0.40000000 </v>
   </varray>
   <varray name="weights" >
    <v>       0.00800000 </v>
    <v>       0.01600000 </v>
    <v>       0.01600000 </v>
    <v>       0.03200000 </v>
    <v>       0.06400000 </v>
    <v>       0.06400000 </v>
    <v>       0.03200000 </v>
    <v>       0.06400000 </v>
    <v>       0.06400000 </v>
    <v>       0.01600000 </v>
    <v>       0.01600000 </v>
    <v>       0.03200000 </v>
    <v>       0.03200000 </v>
    <v>       0.03200000 </v>
    <v>       0.03200000 </v>
    <v>       0.03200000 </v>
    <v>       0.03200000 </v>
    <v>       0.06400000 </v>
    <v>       0.06400000 </v>
    <v>       0.06400000 </v>
    <v>       0.06400000 </v>
    <v>       0.01600000 </v>
    <v>       0.01600000 </v>
    <v>       0.03200000 </v>
    <v>       0.03200000 </v>
    <v>       0.03200000 </v>
    <v>       0.03200000 </v>
   </varray>
   <varray name="tetrahedronlist"  type="int" >
    <v type="int" >        4       12       14       18       20 </v>
    <v type="int" >        4       12       18       18       20 </v>
    <v type="int" >        4       18       18       20       24 </v>
    <v type="int" >        4       14       18       20       20 </v>
    <v type="int" >        4       18       20       20       26 </v>
    <v type="int" >        4       18       20       24       26 </v>
    <v type="int" >        2       14       14       20       20 </v>
    <v type="int" >        4       14       20       20       20 </v>
    <v type="int" >        4       20       20       20       26 </v>
    <v type="int" >        2       20       20       26       26 </v>
    <v type="int" >        4       10       12       16       18 </v>
    <v type="int" >        4       12       16       18       18 </v>
    <v type="int" >        4       16       18       18       24 </v>
    <v type="int" >        4       10       16       16       18 </v>
    <v type="int" >        4       16       16       18       22 </v>
    <v type="int" >        4       16       18       22       24 </v>
    <v type="int" >        4       18       20       21       24 </v>
    <v type="int" >        4       18       19       21       24 </v>
    <v type="int" >        4       19       21       24       25 </v>
    <v type="int" >        4       20       21       24       26 </v>
    <v type="int" >        4       21       24       26       27 </v>
    <v type="int" >        4       21       24       25       27 </v>
    <v type="int" >        4       20       20       21       26 </v>
    <v type="int" >        4       20       21       21       26 </v>
    <v type="int" >        4       21       21       26       27 </v>
    <v type="int" >        4       20       21       26       26 </v>
    <v type="int" >        4       21       26       26       27 </v>
    <v type="int" >        4       21       26       27       27 </v>
    <v type="int" >        4       18       19       20       26 </v>
    <v type="int" >        4       19       20       21       26 </v>
    <v type="int" >        4       19       21       26       27 </v>
    <v type="int" >        4       18       19       24       26 </v>
    <v type="int" >        4       19       24       25       26 </v>
    <v type="int" >        4       19       25       26       27 </v>
    <v type="int" >        4       16       17       18       24 </v>
    <v type="int" >        4       17       18       19       24 </v>
    <v type="int" >        4       17       19       24       25 </v>
    <v type="int" >        4       16       17       22       24 </v>
    <v type="int" >        4       17       22       23       24 </v>
    <v type="int" >        4       17       23       24       25 </v>
    <v type="int" >        4       16       18       19       22 </v>
    <v type="int" >        4       16       17       19       22 </v>
    <v type="int" >        4       17       19       22       23 </v>
    <v type="int" >        4       18       19       22       24 </v>
    <v type="int" >        4       19       22       24       25 </v>
    <v type="int" >        4       19       22       23       25 </v>
    <v type="int" >        4       15       19       21       25 </v>
    <v type="int" >        4       13       15       19       25 </v>
    <v type="int" >        4       15       21       25       27 </v>
    <v type="int" >        4       15       21       21       27 </v>
    <v type="int" >        4       15       15       21       27 </v>
    <v type="int" >        4       15       21       27       27 </v>
    <v type="int" >        4       13       19       21       27 </v>
    <v type="int" >        4       13       15       21       27 </v>
    <v type="int" >        4       13       19       25       27 </v>
    <v type="int" >        4       11       17       19       25 </v>
    <v type="int" >        4       11       13       19       25 </v>
    <v type="int" >        4       11       17       23       25 </v>
    <v type="int" >        4       13       17       19       23 </v>
    <v type="int" >        4       11       13       17       23 </v>
    <v type="int" >        4       13       19       23       25 </v>
    <v type="int" >        4        6       13       15       19 </v>
    <v type="int" >        4        5        6       13       19 </v>
    <v type="int" >        4        5        6        8       19 </v>
    <v type="int" >        4        6       15       19       21 </v>
    <v type="int" >        4        6        9       19       21 </v>
    <v type="int" >        4        6        8        9       19 </v>
    <v type="int" >        4        6       15       15       21 </v>
    <v type="int" >        4        6        6       15       21 </v>
    <v type="int" >        4        6        6        9       21 </v>
    <v type="int" >        4        6       15       21       21 </v>
    <v type="int" >        4        6        9       21       21 </v>
    <v type="int" >        4        6        9        9       21 </v>
    <v type="int" >        4        5       13       15       21 </v>
    <v type="int" >        4        5        6       15       21 </v>
    <v type="int" >        4        5        6        9       21 </v>
    <v type="int" >        4        5       13       19       21 </v>
    <v type="int" >        4        5        8       19       21 </v>
    <v type="int" >        4        5        8        9       21 </v>
    <v type="int" >        4        4       11       13       19 </v>
    <v type="int" >        4        4        5       13       19 </v>
    <v type="int" >        4        4        5        8       19 </v>
    <v type="int" >        4        4       11       17       19 </v>
    <v type="int" >        4        4        7       17       19 </v>
    <v type="int" >        4        4        7        8       19 </v>
    <v type="int" >        4        5       11       13       17 </v>
    <v type="int" >        4        4        5       11       17 </v>
    <v type="int" >        4        4        5        7       17 </v>
    <v type="int" >        4        5       13       17       19 </v>
    <v type="int" >        4        5        8       17       19 </v>
    <v type="int" >        4        5        7        8       17 </v>
    <v type="int" >        4        5        6        8       14 </v>
    <v type="int" >        4        5        8       12       14 </v>
    <v type="int" >        4        8       12       14       18 </v>
    <v type="int" >        4        6        8        9       14 </v>
    <v type="int" >        4        8        9       14       20 </v>
    <v type="int" >        4        8       14       18       20 </v>
    <v type="int" >        4        6        6        9       14 </v>
    <v type="int" >        4        6        9       14       14 </v>
    <v type="int" >        4        9       14       14       20 </v>
    <v type="int" >        4        6        9        9       14 </v>
    <v type="int" >        4        9        9       14       20 </v>
    <v type="int" >        4        9       14       20       20 </v>
    <v type="int" >        4        5        6        9       12 </v>
    <v type="int" >        4        6        9       12       14 </v>
    <v type="int" >        4        9       12       14       20 </v>
    <v type="int" >        4        5        8        9       12 </v>
    <v type="int" >        4        8        9       12       18 </v>
    <v type="int" >        4        9       12       18       20 </v>
    <v type="int" >        4        4        5        8       10 </v>
    <v type="int" >        4        5        8       10       12 </v>
    <v type="int" >        4        8       10       12       18 </v>
    <v type="int" >        4        4        7        8       10 </v>
    <v type="int" >        4        7        8       10       16 </v>
    <v type="int" >        4        8       10       16       18 </v>
    <v type="int" >        4        4        5        7       12 </v>
    <v type="int" >        4        4        7       10       12 </v>
    <v type="int" >        4        7       10       12       16 </v>
    <v type="int" >        4        5        7        8       12 </v>
    <v type="int" >        4        7        8       12       18 </v>
    <v type="int" >        4        7       12       16       18 </v>
    <v type="int" >        4       24       25       26       27 </v>
    <v type="int" >        4       24       25       25       27 </v>
    <v type="int" >        4       25       26       27       27 </v>
    <v type="int" >        2       26       26       27       27 </v>
    <v type="int" >        4       26       27       27       27 </v>
    <v type="int" >        4       22       23       24       25 </v>
    <v type="int" >        4       23       24       25       25 </v>
    <v type="int" >        4       22       23       23       25 </v>
    <v type="int" >        4        9       18       19       21 </v>
    <v type="int" >        4        8        9       18       19 </v>
    <v type="int" >        4        8        8        9       18 </v>
    <v type="int" >        4        9       18       20       21 </v>
    <v type="int" >        4        9        9       18       20 </v>
    <v type="int" >        4        8        9        9       18 </v>
    <v type="int" >        4        9       20       21       21 </v>
    <v type="int" >        4        9        9       20       21 </v>
    <v type="int" >        8        9        9        9       20 </v>
    <v type="int" >        4        9       20       20       21 </v>
    <v type="int" >        4        9        9       20       20 </v>
    <v type="int" >        4        8       19       20       21 </v>
    <v type="int" >        4        8        9       20       21 </v>
    <v type="int" >        4        8        9        9       20 </v>
    <v type="int" >        4        8       18       19       20 </v>
    <v type="int" >        4        8        8       18       20 </v>
    <v type="int" >        4        8        8        9       20 </v>
    <v type="int" >        4        7       17       18       19 </v>
    <v type="int" >        4        7        8       18       19 </v>
    <v type="int" >        4        7        8        8       18 </v>
    <v type="int" >        4        7       16       17       18 </v>
    <v type="int" >        4        7        7       16       18 </v>
    <v type="int" >        4        7        7        8       18 </v>
    <v type="int" >        4        8       16       17       19 </v>
    <v type="int" >        4        7        8       16       17 </v>
    <v type="int" >        4        7        7        8       16 </v>
    <v type="int" >        4        8       16       18       19 </v>
    <v type="int" >        4        8        8       16       18 </v>
    <v type="int" >        4        7        8        8       16 </v>
    <v type="int" >        4        5        6       12       14 </v>
    <v type="int" >        4        5        5        6       12 </v>
    <v type="int" >        4        2        5        5        6 </v>
    <v type="int" >        4        5        6        6       14 </v>
    <v type="int" >        4        3        5        6        6 </v>
    <v type="int" >        4        2        3        5        6 </v>
    <v type="int" >        2        6        6       14       14 </v>
    <v type="int" >        4        6        6        6       14 </v>
    <v type="int" >        4        3        6        6        6 </v>
    <v type="int" >        2        3        3        6        6 </v>
    <v type="int" >        4        4        5       10       12 </v>
    <v type="int" >        4        4        5        5       12 </v>
    <v type="int" >        4        2        4        5        5 </v>
    <v type="int" >        4        4        4        5       10 </v>
    <v type="int" >        4        1        4        4        5 </v>
    <v type="int" >        4        1        2        4        5 </v>
    <v type="int" >        4        2        5        6       15 </v>
    <v type="int" >        4        2        5       13       15 </v>
    <v type="int" >        4        2        3        6       15 </v>
    <v type="int" >        4        3        6        6       15 </v>
    <v type="int" >        4        3        6       15       15 </v>
    <v type="int" >        4        3        3        6       15 </v>
    <v type="int" >        4        3        5        6       13 </v>
    <v type="int" >        4        3        6       13       15 </v>
    <v type="int" >        4        2        3        5       13 </v>
    <v type="int" >        4        2        4        5       11 </v>
    <v type="int" >        4        2        5       11       13 </v>
    <v type="int" >        4        1        2        4       11 </v>
    <v type="int" >        4        1        4        5       13 </v>
    <v type="int" >        4        1        4       11       13 </v>
    <v type="int" >        4        1        2        5       13 </v>
   </varray>
   <i name="volumeweight">      0.00133333 </i>
  </kpoints>
  <scstep>
   <time name="total">  118.84  120.31</time>
   <energy>
    <i name="e_fr_energy">   -112.25494910 </i>
    <i name="e_wo_entrp">   -112.25494910 </i>
    <i name="e_0_energy">   -112.25494910 </i>
   </energy>
  </scstep>
  <scstep>
   <time name="total">  107.65  109.00</time>
   <energy>
    <i name="e_fr_energy">   -288.58347036 </i>
    <i name="e_wo_entrp">   -288.58347036 </i>
    <i name="e_0_energy">   -288.58347036 </i>
   </energy>
  </scstep>
  <scstep>
   <time name="total">  108.44  109.81</time>
   <energy>
    <i name="e_fr_energy">   -285.43894199 </i>
    <i name="e_wo_entrp">   -285.43894199 </i>
    <i name="e_0_energy">   -285.43894199 </i>
   </energy>
  </scstep>
  <scstep>
   <time name="total">  105.92  107.32</time>
   <energy>
    <i name="e_fr_energy">   -277.14959284 </i>
    <i name="e_wo_entrp">   -277.14959284 </i>
    <i name="e_0_energy">   -277.14959284 </i>
   </energy>
  </scstep>
  <scstep>
   <time name="total">  109.76  111.21</time>
   <energy>
    <i name="e_fr_energy">   -276.44998577 </i>
    <i name="e_wo_entrp">   -276.44998577 </i>
    <i name="e_0_energy">   -276.44998577 </i>
   </energy>
  </scstep>
  <scstep>
   <time name="total">  110.83  112.22</time>
   <energy>
    <i name="e_fr_energy">   -276.38233781 </i>
    <i name="e_wo_entrp">   -276.38233781 </i>
    <i name="e_0_energy">   -276.38233781 </i>
   </energy>
  </scstep>
  <scstep>
   <time name="total">  109.39  110.87</time>
   <energy>
    <i name="e_fr_energy">   -276.32075123 </i>
    <i name="e_wo_entrp">   -276.32075123 </i>
    <i name="e_0_energy">   -276.32075123 </i>
   </energy>
  </scstep>
  <scstep>
   <time name="total">  113.15  114.76</time>
   <energy>
    <i name="e_fr_energy">   -276.30691881 </i>
    <i name="e_wo_entrp">   -276.30691881 </i>
    <i name="e_0_energy">   -276.30691881 </i>
   </energy>
  </scstep>
  <scstep>
   <time name="total">  113.06  114.61</time>
   <energy>
    <i name="e_fr_energy">   -276.31258410 </i>
    <i name="e_wo_entrp">   -276.31258410 </i>
    <i name="e_0_energy">   -276.31258410 </i>
   </energy>
  </scstep>
  <scstep>
   <time name="total">  119.41  121.08</time>
   <energy>
    <i name="e_fr_energy">   -276.31215171 </i>
    <i name="e_wo_entrp">   -276.31215171 </i>
    <i name="e_0_energy">   -276.31215171 </i>
   </energy>
  </scstep>
  <scstep>
   <time name="total">  120.91  122.47</time>
   <energy>
    <i name="e_fr_energy">   -276.31202525 </i>
    <i name="e_wo_entrp">   -276.31202525 </i>
    <i name="e_0_energy">   -276.31202525 </i>
   </energy>
  </scstep>
  <scstep>
   <time name="total">  114.92  116.39</time>
   <energy>
    <i name="e_fr_energy">   -276.31203556 </i>
    <i name="e_wo_entrp">   -276.31203556 </i>
    <i name="e_0_energy">   -276.31203556 </i>
   </energy>
  </scstep>
  <scstep>
   <time name="total">  116.25  117.71</time>
   <energy>
    <i name="e_fr_energy">   -276.31202256 </i>
    <i name="e_wo_entrp">   -276.31202256 </i>
    <i name="e_0_energy">   -276.31202256 </i>
   </energy>
  </scstep>
  <kpoints>
[...]
     <r>     7.2995     0.0000     0.0000     0.0000     0.0000     0.0000     0.0000 </r>
     <r>     7.3095     0.0000     0.0000     0.0000     0.0000     0.0000     0.0000 </r>
    </set>
   </array>
  </conductivity>
  <dos>
   <i name="efermi">      2.29455815 </i>
   <total>
    <array>
     <dimension dim="1">gridpoints</dimension>
     <dimension dim="2">spin</dimension>
     <field>energy</field>
     <field>total</field>
     <field>integrated</field>
     <set>
      <set comment="spin 1">
       <r>   -11.0237     0.0000     0.0000 </r>
       <r>   -10.9615     0.0000     0.0000 </r>
       <r>   -10.8993     0.0000     0.0000 </r>
       <r>   -10.8372     0.0000     0.0000 </r>
       <r>   -10.7750     0.0000     0.0000 </r>
       <r>   -10.7129     0.0000     0.0000 </r>
       <r>   -10.6507     0.0000     0.0000 </r>
       <r>   -10.5885     0.0000     0.0000 </r>
       <r>   -10.5264     0.0000     0.0000 </r>
       <r>   -10.4642     0.0000     0.0000 </r>
       <r>   -10.4021     0.0000     0.0000 </r>
       <r>   -10.3399     0.0000     0.0000 </r>
       <r>   -10.2777     0.0000     0.0000 </r>
       <r>   -10.2156     0.0000     0.0000 </r>
       <r>   -10.1534     0.0000     0.0000 </r>
       <r>   -10.0912     0.0000     0.0000 </r>
       <r>   -10.0291     0.0000     0.0000 </r>
       <r>    -9.9669     3.6748     0.0900 </r>
       <r>    -9.9048     5.2993     0.3565 </r>
       <r>    -9.8426    10.3980     0.8885 </r>
       <r>    -9.7804     7.3709     1.3851 </r>
       <r>    -9.7183     6.4818     1.8169 </r>
       <r>    -9.6561    11.4182     2.3825 </r>
       <r>    -9.5939    16.9197     3.1058 </r>
       <r>    -9.5318    11.5922     3.9435 </r>
       <r>    -9.4696    12.0688     4.7054 </r>
       <r>    -9.4075    19.5582     5.7322 </r>
       <r>    -9.3453     9.9878     6.6593 </r>
       <r>    -9.2831    15.7862     7.4982 </r>
       <r>    -9.2210    15.0941     8.4205 </r>
       <r>    -9.1588    29.3461     9.8802 </r>
       <r>    -9.0966    30.6101    11.6796 </r>
       <r>    -9.0345     9.5213    12.7905 </r>
       <r>    -8.9723    40.7794    13.7917 </r>
       <r>    -8.9102    21.9151    15.4171 </r>
       <r>    -8.8480    18.6951    16.5529 </r>
       <r>    -8.7858    40.7624    18.7260 </r>
       <r>    -8.7237    27.6240    20.7187 </r>
       <r>    -8.6615    32.3969    22.6194 </r>
       <r>    -8.5994    37.9589    24.8536 </r>
       <r>    -8.5372    58.9937    27.5425 </r>
       <r>    -8.4750    56.9866    31.2167 </r>
       <r>    -8.4129    88.1504    34.5785 </r>
       <r>    -8.3507    69.1579    37.9983 </r>
       <r>    -8.2885    40.0497    40.8484 </r>
       <r>    -8.2264    52.0320    43.1603 </r>
       <r>    -8.1642    75.7186    46.4719 </r>
       <r>    -8.1021    62.4527    50.3849 </r>
       <r>    -8.0399    54.5239    53.4615 </r>
       <r>    -7.9777    73.3044    56.9614 </r>
       <r>    -7.9156    72.2327    61.7972 </r>
       <r>    -7.8534     7.7217    64.0000 </r>
       <r>    -7.7912     0.0000    64.0000 </r>
       <r>    -7.7291     0.0000    64.0000 </r>
       <r>    -7.6669     0.0000    64.0000 </r>
       <r>    -7.6048     0.0000    64.0000 </r>
       <r>    -7.5426     0.0000    64.0000 </r>
       <r>    -7.4804     0.0000    64.0000 </r>
       <r>    -7.4183     0.0000    64.0000 </r>
       <r>    -7.3561     0.0000    64.0000 </r>
       <r>    -7.2939     0.0000    64.0000 </r>
       <r>    -7.2318     0.0000    64.0000 </r>
       <r>    -7.1696     0.0000    64.0000 </r>
       <r>    -7.1075     0.0000    64.0000 </r>
       <r>    -7.0453     0.0000    64.0000 </r>
       <r>    -6.9831     0.0000    64.0000 </r>
       <r>    -6.9210     0.0000    64.0000 </r>
       <r>    -6.8588     0.0000    64.0000 </r>
       <r>    -6.7967     0.0000    64.0000 </r>
       <r>    -6.7345     0.0000    64.0000 </r>
       <r>    -6.6723     0.0000    64.0000 </r>
       <r>    -6.6102     0.0000    64.0000 </r>
       <r>    -6.5480     0.0000    64.0000 </r>
       <r>    -6.4858     0.0000    64.0000 </r>
       <r>    -6.4237     0.0000    64.0000 </r>
       <r>    -6.3615     0.0000    64.0000 </r>
       <r>    -6.2994     0.0000    64.0000 </r>
       <r>    -6.2372     0.0000    64.0000 </r>
       <r>    -6.1750     0.0000    64.0000 </r>
       <r>    -6.1129     0.0000    64.0000 </r>
       <r>    -6.0507     0.0000    64.0000 </r>
       <r>    -5.9885     0.0000    64.0000 </r>
       <r>    -5.9264     0.0000    64.0000 </r>
       <r>    -5.8642     0.0000    64.0000 </r>
       <r>    -5.8021     0.0000    64.0000 </r>
       <r>    -5.7399     0.0000    64.0000 </r>
       <r>    -5.6777     0.0000    64.0000 </r>
       <r>    -5.6156     0.0000    64.0000 </r>
       <r>    -5.5534     0.0000    64.0000 </r>
       <r>    -5.4912     0.0000    64.0000 </r>
       <r>    -5.4291     0.0000    64.0000 </r>
       <r>    -5.3669     0.0000    64.0000 </r>
       <r>    -5.3048     0.0000    64.0000 </r>
       <r>    -5.2426     0.0000    64.0000 </r>
       <r>    -5.1804     0.0000    64.0000 </r>
       <r>    -5.1183     0.0000    64.0000 </r>
       <r>    -5.0561     0.0000    64.0000 </r>
       <r>    -4.9939     0.0000    64.0000 </r>
       <r>    -4.9318     0.0000    64.0000 </r>
       <r>    -4.8696     0.0000    64.0000 </r>
       <r>    -4.8075     0.0000    64.0000 </r>
       <r>    -4.7453     0.0000    64.0000 </r>
       <r>    -4.6831     0.0000    64.0000 </r>
       <r>    -4.6210     0.0000    64.0000 </r>
       <r>    -4.5588     0.0000    64.0000 </r>
       <r>    -4.4967     0.0000    64.0000 </r>
       <r>    -4.4345     0.0000    64.0000 </r>
       <r>    -4.3723     0.0000    64.0000 </r>
       <r>    -4.3102     0.0000    64.0000 </r>
       <r>    -4.2480     2.7295    64.0480 </r>
       <r>    -4.1858    10.7659    64.4536 </r>
       <r>    -4.1237    27.1008    65.5725 </r>
       <r>    -4.0615    73.9065    68.5297 </r>
       <r>    -3.9994    67.2690    72.5146 </r>
       <r>    -3.9372   118.2406    77.3935 </r>
       <r>    -3.8750   127.0649    84.1578 </r>
       <r>    -3.8129    43.5163    87.4973 </r>
       <r>    -3.7507   102.9686    92.2971 </r>
       <r>    -3.6885    21.9597    94.3707 </r>
       <r>    -3.6264    17.9655    95.4703 </r>
       <r>    -3.5642    58.9799    97.3077 </r>
       <r>    -3.5021    31.3744    99.7540 </r>
       <r>    -3.4399    20.4176   101.3042 </r>
       <r>    -3.3777    14.8127   102.3141 </r>
       <r>    -3.3156    27.3689   103.4182 </r>
       <r>    -3.2534    36.2114   106.1902 </r>
       <r>    -3.1912    13.2119   107.2530 </r>
       <r>    -3.1291    12.4393   108.1037 </r>
       <r>    -3.0669     7.5426   108.6872 </r>
       <r>    -3.0048    11.5166   109.2527 </r>
       <r>    -2.9426    12.5090   110.0356 </r>
       <r>    -2.8804    18.1546   110.9942 </r>
       <r>    -2.8183    14.0018   111.9319 </r>
       <r>    -2.7561    13.4024   112.7888 </r>
       <r>    -2.6940    12.9532   113.6005 </r>
       <r>    -2.6318    13.0580   114.4082 </r>
       <r>    -2.5696    11.2339   115.1820 </r>
       <r>    -2.5075     6.9404   115.7957 </r>
       <r>    -2.4453     6.2695   116.1708 </r>
       <r>    -2.3831     7.1115   116.5827 </r>
       <r>    -2.3210     8.1394   117.0555 </r>
       <r>    -2.2588    11.8752   117.6366 </r>
       <r>    -2.1967    10.9656   118.3480 </r>
       <r>    -2.1345     7.9901   118.9699 </r>
       <r>    -2.0723     8.0624   119.4436 </r>
       <r>    -2.0102     6.2206   119.9463 </r>
       <r>    -1.9480     4.8095   120.2072 </r>
       <r>    -1.8858     4.2286   120.4910 </r>
       <r>    -1.8237     3.7354   120.7352 </r>
       <r>    -1.7615     3.7816   120.9668 </r>
       <r>    -1.6994     4.0189   121.2089 </r>
       <r>    -1.6372     7.4422   121.5560 </r>
       <r>    -1.5750     9.8083   122.1287 </r>
       <r>    -1.5129     8.4350   122.7391 </r>
       <r>    -1.4507     6.9361   123.1925 </r>
       <r>    -1.3885     6.2898   123.5916 </r>
       <r>    -1.3264    11.5890   124.1017 </r>
       <r>    -1.2642    29.5052   125.3927 </r>
       <r>    -1.2021    42.3896   127.3470 </r>
       <r>    -1.1399    45.3196   130.3759 </r>
       <r>    -1.0777    42.4868   133.0578 </r>
       <r>    -1.0156    64.4250   136.1521 </r>
       <r>    -0.9534    40.2863   139.0940 </r>
       <r>    -0.8912    41.0231   141.5404 </r>
       <r>    -0.8291    34.4242   143.6893 </r>
       <r>    -0.7669    37.6305   145.8106 </r>
       <r>    -0.7048    32.3771   147.5317 </r>
       <r>    -0.6426    30.2157   149.6051 </r>
       <r>    -0.5804    44.7682   151.9366 </r>
       <r>    -0.5183    39.4781   154.4606 </r>
       <r>    -0.4561    43.7566   156.9326 </r>
       <r>    -0.3940    52.7401   159.9541 </r>
       <r>    -0.3318    50.6949   163.0479 </r>
       <r>    -0.2696    49.2729   166.1615 </r>
       <r>    -0.2075    45.6383   169.0908 </r>
       <r>    -0.1453    50.0454   171.9385 </r>
       <r>    -0.0831    57.8676   175.4679 </r>
       <r>    -0.0210    53.3058   179.0783 </r>
       <r>     0.0412    52.3129   182.4876 </r>
       <r>     0.1033    46.9562   185.4171 </r>
       <r>     0.1655    55.1183   188.7285 </r>
       <r>     0.2277    42.6118   192.0937 </r>
       <r>     0.2898    45.9756   194.4196 </r>
       <r>     0.3520    43.9952   197.3617 </r>
       <r>     0.4142    61.1769   200.6730 </r>
       <r>     0.4763    61.4305   203.9780 </r>
       <r>     0.5385    76.5735   207.6989 </r>
       <r>     0.6006    50.4690   210.9407 </r>
       <r>     0.6628    50.5121   213.5790 </r>
       <r>     0.7250    49.0301   216.5936 </r>
       <r>     0.7871    47.0336   219.6291 </r>
       <r>     0.8493    49.0223   222.1252 </r>
       <r>     0.9115    51.2970   225.2354 </r>
       <r>     0.9736    34.6441   227.7093 </r>
       <r>     1.0358    40.9953   230.0183 </r>
       <r>     1.0979    45.8718   232.7586 </r>
       <r>     1.1601    41.8854   235.5604 </r>
       <r>     1.2223    51.3320   238.6536 </r>
       <r>     1.2844    44.4240   241.6243 </r>
       <r>     1.3466    27.2217   243.6486 </r>
       <r>     1.4087    20.0591   245.0672 </r>
       <r>     1.4709    24.7450   246.4993 </r>
       <r>     1.5331    21.8639   247.8554 </r>
       <r>     1.5952    21.3209   249.2526 </r>
       <r>     1.6574    12.2849   250.2511 </r>
       <r>     1.7196    11.3652   250.9411 </r>
       <r>     1.7817    15.2997   251.8008 </r>
       <r>     1.8439    19.3195   253.0085 </r>
       <r>     1.9060     6.4430   253.5982 </r>
       <r>     1.9682    10.3989   254.0370 </r>
       <r>     2.0304    12.4163   254.8889 </r>
       <r>     2.0925     7.1304   255.5021 </r>
       <r>     2.1547     2.9578   255.7733 </r>
       <r>     2.2169     1.9022   255.9690 </r>
       <r>     2.2790     0.0015   256.0000 </r>
       <r>     2.3412     0.0000   256.0000 </r>
       <r>     2.4033     0.0001   256.0000 </r>
       <r>     2.4655     0.0017   256.0000 </r>
       <r>     2.5277     0.0057   256.0003 </r>
       <r>     2.5898     0.0120   256.0008 </r>
       <r>     2.6520     0.0206   256.0018 </r>
       <r>     2.7142     0.0316   256.0034 </r>
       <r>     2.7763     0.0448   256.0058 </r>
       <r>     2.8385     0.0604   256.0090 </r>
       <r>     2.9006     0.0783   256.0133 </r>
       <r>     2.9628     0.0985   256.0188 </r>
       <r>     3.0250     0.1210   256.0256 </r>
       <r>     3.0871     0.1458   256.0339 </r>
       <r>     3.1493     0.1776   256.0438 </r>
       <r>     3.2114     0.5104   256.0610 </r>
       <r>     3.2736     1.3091   256.1178 </r>
       <r>     3.3358     2.0654   256.2229 </r>
       <r>     3.3979     2.7985   256.3738 </r>
       <r>     3.4601     6.3214   256.7066 </r>
       <r>     3.5223     6.6877   257.0636 </r>
       <r>     3.5844     8.5075   257.5526 </r>
       <r>     3.6466     6.8170   258.0020 </r>
       <r>     3.7087     8.3730   258.4856 </r>
       <r>     3.7709    11.0642   259.0955 </r>
       <r>     3.8331    13.2062   259.8191 </r>
       <r>     3.8952    23.4407   261.1896 </r>
       <r>     3.9574    27.9216   262.3932 </r>
       <r>     4.0196    35.4386   264.2641 </r>
       <r>     4.0817    25.3486   266.3997 </r>
       <r>     4.1439    20.0125   267.6453 </r>
       <r>     4.2060    23.5332   269.0163 </r>
       <r>     4.2682    33.8322   270.7340 </r>
       <r>     4.3304    50.2917   273.4660 </r>
       <r>     4.3925    41.3565   276.1463 </r>
       <r>     4.4547    46.2503   278.7041 </r>
       <r>     4.5169    56.2645   281.7245 </r>
       <r>     4.5790    56.5155   285.5024 </r>
       <r>     4.6412    69.9737   289.2428 </r>
       <r>     4.7033    69.6094   293.3799 </r>
       <r>     4.7655    70.8969   297.4808 </r>
       <r>     4.8277    44.4834   301.2083 </r>
       <r>     4.8898    43.9752   303.8301 </r>
       <r>     4.9520    40.6950   306.2896 </r>
       <r>     5.0142    38.7039   308.7545 </r>
       <r>     5.0763    39.0775   311.1715 </r>
       <r>     5.1385    32.2468   313.2754 </r>
       <r>     5.2006    34.5326   315.3056 </r>
       <r>     5.2628    30.0990   317.3100 </r>
       <r>     5.3250    18.2676   318.6743 </r>
       <r>     5.3871    33.4469   320.3027 </r>
       <r>     5.4493    35.6173   322.3316 </r>
       <r>     5.5114    33.4902   324.2570 </r>
       <r>     5.5736    32.5136   326.0425 </r>
       <r>     5.6358    21.2547   327.7076 </r>
       <r>     5.6979    18.5911   328.8390 </r>
       <r>     5.7601    22.9680   330.0425 </r>
       <r>     5.8223    20.9954   331.4452 </r>
       <r>     5.8844    15.8434   332.5365 </r>
       <r>     5.9466    13.0108   333.4328 </r>
       <r>     6.0087    10.5521   334.1652 </r>
       <r>     6.0709     9.1858   334.7929 </r>
       <r>     6.1331     5.7917   335.2473 </r>
       <r>     6.1952     3.7639   335.5753 </r>
       <r>     6.2574     2.1795   335.7341 </r>
       <r>     6.3196     1.5459   335.8435 </r>
       <r>     6.3817     0.9438   335.9127 </r>
       <r>     6.4439     0.6412   335.9759 </r>
       <r>     6.5060     0.2832   335.9991 </r>
       <r>     6.5682     0.0044   335.9999 </r>
       <r>     6.6304     0.0000   336.0000 </r>
       <r>     6.6925     0.0000   336.0000 </r>
       <r>     6.7547     0.0000   336.0000 </r>
       <r>     6.8169     0.0000   336.0000 </r>
       <r>     6.8790     0.0000   336.0000 </r>
       <r>     6.9412     0.0000   336.0000 </r>
       <r>     7.0033     0.0000   336.0000 </r>
       <r>     7.0655     0.0000   336.0000 </r>
       <r>     7.1277     0.0000   336.0000 </r>
       <r>     7.1898     0.0000   336.0000 </r>
       <r>     7.2520     0.0000   336.0000 </r>
       <r>     7.3141     0.0000   336.0000 </r>
       <r>     7.3763     0.0000   336.0000 </r>
       <r>     7.4385     0.0000   336.0000 </r>
       <r>     7.5006     0.0000   336.0000 </r>
       <r>     7.5628     0.0000   336.0000 </r>
       <r>     7.6250     0.0000   336.0000 </r>
      </set>
     </set>
    </array>
   </total>
  </dos>
 </calculation>
 <structure name="finalpos" >
  <crystal>
   <varray name="basis" >
    <v>      11.61325083       0.00000000       0.00000000 </v>
    <v>       0.00000000      11.50000002       0.00000000 </v>
    <v>       0.00000000       0.00000000      11.50000002 </v>
   </varray>
   <i name="volume">   1535.85242897 </i>
   <varray name="rec_basis" >
    <v>       0.08610853       0.00000000       0.00000000 </v>
    <v>       0.00000000       0.08695652       0.00000000 </v>
    <v>       0.00000000       0.00000000       0.08695652 </v>
   </varray>
  </crystal>
  <varray name="positions" >
   <v>       0.00000000       0.00000000       0.00000000 </v>
   <v>       0.00000000       0.00000000       0.50000000 </v>
   <v>       0.00000000       0.50000000       0.00000000 </v>
   <v>       0.00000000       0.50000000       0.50000000 </v>
   <v>       0.50000000       0.00000000       0.00000000 </v>
   <v>       0.50000000       0.00000000       0.50000000 </v>
   <v>       0.50000000       0.50000000       0.00000000 </v>
   <v>       0.50000000       0.50000000       0.50000000 </v>
   <v>       0.25000000       0.25000000       0.00000000 </v>
   <v>       0.25000000       0.25000000       0.50000000 </v>
   <v>       0.25000000       0.75000000       0.00000000 </v>
   <v>       0.25000000       0.75000000       0.50000000 </v>
   <v>       0.75000000       0.25000000       0.00000000 </v>
   <v>       0.75000000       0.25000000       0.50000000 </v>
   <v>       0.75000000       0.75000000       0.00000000 </v>
   <v>       0.75000000       0.75000000       0.50000000 </v>
   <v>       0.25000000       0.00000000       0.25000000 </v>
   <v>       0.25000000       0.00000000       0.75000000 </v>
   <v>       0.25000000       0.50000000       0.25000000 </v>
   <v>       0.25000000       0.50000000       0.75000000 </v>
   <v>       0.75000000       0.00000000       0.25000000 </v>
   <v>       0.75000000       0.00000000       0.75000000 </v>
   <v>       0.75000000       0.50000000       0.25000000 </v>
   <v>       0.75000000       0.50000000       0.75000000 </v>
   <v>       0.00000000       0.25000000       0.25000000 </v>
   <v>       0.00000000       0.25000000       0.75000000 </v>
   <v>       0.00000000       0.75000000       0.25000000 </v>
   <v>       0.00000000       0.75000000       0.75000000 </v>
   <v>       0.50000000       0.25000000       0.25000000 </v>
   <v>       0.50000000       0.25000000       0.75000000 </v>
   <v>       0.50000000       0.75000000       0.25000000 </v>
   <v>       0.50000000       0.75000000       0.75000000 </v>
   <v>       0.12500000       0.12500000       0.12500000 </v>
   <v>       0.12500000       0.12500000       0.62500000 </v>
   <v>       0.12500000       0.62500000       0.12500000 </v>
   <v>       0.12500000       0.62500000       0.62500000 </v>
   <v>       0.62500000       0.12500000       0.12500000 </v>
   <v>       0.62500000       0.12500000       0.62500000 </v>
   <v>       0.62500000       0.62500000       0.12500000 </v>
   <v>       0.62500000       0.62500000       0.62500000 </v>
   <v>       0.37500000       0.12500000       0.37500000 </v>
   <v>       0.37500000       0.12500000       0.87500000 </v>
   <v>       0.37500000       0.62500000       0.37500000 </v>
   <v>       0.37500000       0.62500000       0.87500000 </v>
   <v>       0.87500000       0.12500000       0.37500000 </v>
   <v>       0.87500000       0.12500000       0.87500000 </v>
   <v>       0.87500000       0.62500000       0.37500000 </v>
   <v>       0.87500000       0.62500000       0.87500000 </v>
   <v>       0.37500000       0.37500000       0.12500000 </v>
   <v>       0.37500000       0.37500000       0.62500000 </v>
   <v>       0.37500000       0.87500000       0.12500000 </v>
   <v>       0.37500000       0.87500000       0.62500000 </v>
   <v>       0.87500000       0.37500000       0.12500000 </v>
   <v>       0.87500000       0.37500000       0.62500000 </v>
   <v>       0.87500000       0.87500000       0.12500000 </v>
   <v>       0.87500000       0.87500000       0.62500000 </v>
   <v>       0.12500000       0.37500000       0.37500000 </v>
   <v>       0.12500000       0.37500000       0.87500000 </v>
   <v>       0.12500000       0.87500000       0.37500000 </v>
   <v>       0.12500000       0.87500000       0.87500000 </v>
   <v>       0.62500000       0.37500000       0.37500000 </v>
   <v>       0.62500000       0.37500000       0.87500000 </v>
   <v>       0.62500000       0.87500000       0.37500000 </v>
   <v>       0.62500000       0.87500000       0.87500000 </v>
  </varray>
 </structure>
</modeling>
