GaAs                                    
   4.50000000000000     
     1.251913    0.000000    0.000000
     0.000000    1.251913    0.000000
     0.000000    0.000000    1.251913
   As   Ga
     4     4
Direct
  0.000000  0.000000  0.000000
  0.500000  0.500000  0.000000
  0.500000  0.000000  0.500000
  0.000000  0.500000  0.500000
  0.250000  0.250000  0.250000
  0.750000  0.250000  0.750000
  0.750000  0.750000  0.250000
  0.250000  0.750000  0.750000
 
   64   64   64
 -65.673     -58.132     -37.041     -6.5814      27.519      59.432      84.542      100.23      105.99      103.05    
  93.725      80.859      67.269      55.096      44.731      36.065      28.960      23.238      18.689      15.095    
  12.256      10.012      8.2405      6.8480      5.7609      4.9184      4.2698      3.7755      3.4061      3.1404    
  2.9624      2.8603      2.8270      2.8603      2.9624      3.1404      3.4061      3.7755      4.2698      4.9184    
  5.7609      6.8480      8.2405      10.012      12.256      15.095      18.689      23.238      28.960      36.065    
  44.731      55.096      67.269      80.859      93.725      103.05      105.99      100.23      84.542      59.432    
  27.519     -6.5814     -37.041     -58.132     -58.132     -50.845     -30.474     -1.0845      31.757      62.397    
  86.363      101.13      106.22      102.86      93.324      80.411      66.889      54.817      44.533      35.932    
  28.878      23.193      18.672      15.096      12.269      10.034      8.2673      6.8783      5.7934      4.9522    
  4.3041      3.8099      3.4404      3.1743      2.9960      2.8936      2.8603      2.8936      2.9960      3.1743    
  3.4404      3.8099      4.3041      4.9522      5.7934      6.8783      8.2673      10.034      12.269      15.096    
  18.672      23.193      28.878      35.932      44.533      54.817      66.889      80.411      93.324      102.86    
  106.22      101.13      86.363      62.397      31.757     -1.0845     -30.474     -50.845     -37.041     -30.474    
 -12.143      14.216      43.500      70.545      91.288      103.46      106.69      102.16      92.067      79.057    
  65.762      53.990      43.947      35.538      28.633      23.061      18.620      15.100      12.311      10.099    
  8.3492      6.9709      5.8928      5.0555      4.4092      3.9153      3.5453      3.2783      3.0990      2.9960    
  2.9624      2.9960      3.0990      3.2783      3.5453      3.9153      4.4092      5.0555      5.8928      6.9709    
  8.3492      10.099      12.311      15.100      18.620      23.061      28.633      35.538      43.947      53.990    
  65.762      79.057      92.067      102.16      106.69      103.46      91.288      70.545      43.500      14.216    
 -12.143     -30.474     -6.5814     -1.0845      14.216      36.081      60.107      81.856      97.870      106.26    
  106.80      100.64      89.821      76.784      63.931      52.644      42.993      34.897      28.236      22.849    
  18.540      15.111      12.383      10.213      8.4906      7.1306      6.0644      5.2338      4.5908      4.0977    
  3.7271      3.4589      3.2783      3.1743      3.1404      3.1743      3.2783      3.4589      3.7271      4.0977    
  4.5908      5.2338      6.0644      7.1306      8.4906      10.213      12.383      15.111      18.540      22.849    
  28.236      34.897      42.993      52.644      63.931      76.784      89.821      100.64      106.80      106.26    
  97.870      81.856      60.107      36.081      14.216     -1.0845      27.519      31.757      43.500      60.107    
  78.001      93.606      104.17      108.26      105.80      97.915      86.452      73.614      61.463      50.828    
  41.706      34.034      27.704      22.566      18.438      15.135      12.493      10.381      8.6984      7.3653    
  6.3164      5.4960      4.8582      4.3669      3.9962      3.7271      3.5453      3.4404      3.4061      3.4404    
  3.5453      3.7271      3.9962      4.3669      4.8582      5.4960      6.3164      7.3653      8.6984      10.381    
  12.493      15.135      18.438      22.566      27.704      34.034      41.706      50.828      61.463      73.614    
  86.452      97.915      105.80      108.26      104.17      93.606      78.001      60.107      43.500      31.757    
  59.432      62.397      70.545      81.856      93.606      103.10      108.30      108.23      103.00      93.677    
  81.923      69.663      58.451      48.606      40.130      32.978      27.057      22.227      18.323      15.178    
  12.647      10.611      8.9815      7.6847      6.6597      5.8539      5.2239      4.7364      4.3669      4.0977    
  3.9153      3.8099      3.7755      3.8099      3.9153      4.0977      4.3669      4.7364      5.2239      5.8539    
  6.6597      7.6847      8.9815      10.611      12.647      15.178      18.323      22.227      27.057      32.978    
  40.130      48.606      58.451      69.663      81.923      93.677      103.00      108.23      108.30      103.10    
  93.606      81.856      70.545      62.397      84.542      86.363      91.288      97.870      104.17      108.30    
  108.89      105.37      98.023      87.865      76.371      65.141      55.003      46.056      38.321      31.769    
  26.319      21.847      18.206      15.250      12.852      10.912      9.3505      8.1012      7.1080      6.3224    
  5.7046      5.2239      4.8582      4.5908      4.4092      4.3041      4.2698      4.3041      4.4092      4.5908    
  4.8582      5.2239      5.7046      6.3224      7.1080      8.1012      9.3505      10.912      12.852      15.250    
  18.206      21.847      26.319      31.769      38.321      46.056      55.003      65.141      76.371      87.865    
  98.023      105.37      108.89      108.30      104.17      97.870      91.288      86.363      100.23      101.13    
  103.46      106.26      108.26      108.23      105.37      99.460      90.928      80.732      70.150      60.234    
  51.244      43.268      36.342      30.448      25.519      21.445      18.100      15.360      13.120      11.296    
  9.8185      8.6300      7.6791      6.9218      6.3224      5.8539      5.4960      5.2338      5.0555      4.9522    
  4.9184      4.9522      5.0555      5.2338      5.4960      5.8539      6.3224      6.9218      7.6791      8.6300    
  9.8185      11.296      13.120      15.360      18.100      21.445      25.519      30.448      36.342      43.268    
  51.244      60.234      70.150      80.732      90.928      99.460      105.37      108.23      108.26      106.26    
  103.46      101.13      105.99      106.22      106.69      106.80      105.80      103.00      98.023      90.928    
  82.238      72.839      63.677      55.116      47.305      40.339      34.261      29.063      24.686      21.040    
  18.017      15.520      13.462      11.776      10.403      9.2913      8.3965      7.6791      7.1080      6.6597    
  6.3164      6.0644      5.8928      5.7934      5.7609      5.7934      5.8928      6.0644      6.3164      6.6597    
  7.1080      7.6791      8.3965      9.2913      10.403      11.776      13.462      15.520      18.017      21.040    
  24.686      29.063      34.261      40.339      47.305      55.116      63.677      72.839      82.238      90.928    
  98.023      103.00      105.80      106.80      106.69      106.22      103.05      102.86      102.16      100.64    
  97.915      93.677      87.865      80.732      72.839      64.879      57.190      49.956      43.317      37.366    
  32.150      27.662      23.854      20.653      17.975      15.745      13.895      12.371      11.125      10.112    
  9.2913      8.6300      8.1012      7.6847      7.3653      7.1306      6.9709      6.8783      6.8480      6.8783    
  6.9709      7.1306      7.3653      7.6847      8.1012      8.6300      9.2913      10.112      11.125      12.371    
  13.895      15.745      17.975      20.653      23.854      27.662      32.150      37.366      43.317      49.956    
  57.190      64.879      72.839      80.732      87.865      93.677      97.915      100.64      102.16      102.86    
  93.725      93.324      92.067      89.821      86.452      81.923      76.371      70.150      63.677      57.190    
  50.881      44.909      39.402      34.444      30.074      26.290      23.053      20.308      17.994      16.054    
  14.439      13.107      12.015      11.125      10.403      9.8185      9.3505      8.9815      8.6984      8.4906    
  8.3492      8.2673      8.2405      8.2673      8.3492      8.4906      8.6984      8.9815      9.3505      9.8185    
  10.403      11.125      12.015      13.107      14.439      16.054      17.994      20.308      23.053      26.290    
  30.074      34.444      39.402      44.909      50.881      57.190      63.677      70.150      76.371      81.923    
  86.452      89.821      92.067      93.324      80.859      80.411      79.057      76.784      73.614      69.663    
  65.141      60.234      55.116      49.956      44.909      40.112      35.669      31.651      28.092      24.988    
  22.314      20.030      18.096      16.472      15.123      14.012      13.107      12.371      11.776      11.296    
  10.912      10.611      10.381      10.213      10.099      10.034      10.012      10.034      10.099      10.213    
  10.381      10.611      10.912      11.296      11.776      12.371      13.107      14.012      15.123      16.472    
  18.096      20.030      22.314      24.988      28.092      31.651      35.669      40.112      44.909      49.956    
  55.116      60.234      65.141      69.663      73.614      76.784      79.057      80.411      67.269      66.889    
  65.762      63.931      61.463      58.451      55.003      51.244      47.305      43.317      39.402      35.669    
  32.200      29.051      26.247      23.789      21.662      19.843      18.306      17.026      15.974      15.123    
  14.439      13.895      13.462      13.120      12.852      12.647      12.493      12.383      12.311      12.269    
  12.256      12.269      12.311      12.383      12.493      12.647      12.852      13.120      13.462      13.895    
  14.439      15.123      15.974      17.026      18.306      19.843      21.662      23.789      26.247      29.051    
  32.200      35.669      39.402      43.317      47.305      51.244      55.003      58.451      61.463      63.931    
  65.762      66.889      55.096      54.817      53.990      52.644      50.828      48.606      46.056      43.268    
  40.339      37.366      34.444      31.651      29.051      26.685      24.573      22.721      21.125      19.773    
  18.652      17.744      17.026      16.472      16.054      15.745      15.520      15.360      15.250      15.178    
  15.135      15.111      15.100      15.096      15.095      15.096      15.100      15.111      15.135      15.178    
  15.250      15.360      15.520      15.745      16.054      16.472      17.026      17.744      18.652      19.773    
  21.125      22.721      24.573      26.685      29.051      31.651      34.444      37.366      40.339      43.268    
  46.056      48.606      50.828      52.644      53.990      54.817      44.731      44.533      43.947      42.993    
  41.706      40.130      38.321      36.342      34.261      32.150      30.074      28.092      26.247      24.573    
  23.088      21.804      20.723      19.843      19.158      18.652      18.306      18.096      17.994      17.975    
  18.017      18.100      18.206      18.323      18.438      18.540      18.620      18.672      18.689      18.672    
  18.620      18.540      18.438      18.323      18.206      18.100      18.017      17.975      17.994      18.096    
  18.306      18.652      19.158      19.843      20.723      21.804      23.088      24.573      26.247      28.092    
  30.074      32.150      34.261      36.342      38.321      40.130      41.706      42.993      43.947      44.533    
  36.065      35.932      35.538      34.897      34.034      32.978      31.769      30.448      29.063      27.662    
  26.290      24.988      23.789      22.721      21.804      21.051      20.474      20.073      19.843      19.773    
  19.843      20.030      20.308      20.653      21.040      21.445      21.847      22.227      22.566      22.849    
  23.061      23.193      23.238      23.193      23.061      22.849      22.566      22.227      21.847      21.445    
  21.040      20.653      20.308      20.030      19.843      19.773      19.843      20.073      20.474      21.051    
  21.804      22.721      23.789      24.988      26.290      27.662      29.063      30.448      31.769      32.978    
  34.034      34.897      35.538      35.932      28.960      28.878      28.633      28.236      27.704      27.057    
  26.319      25.519      24.686      23.854      23.053      22.314      21.662      21.125      20.723      20.474    
  20.389      20.474      20.723      21.125      21.662      22.314      23.053      23.854      24.686      25.519    
  26.319      27.057      27.704      28.236      28.633      28.878      28.960      28.878      28.633      28.236    
  27.704      27.057      26.319      25.519      24.686      23.854      23.053      22.314      21.662      21.125    
  20.723      20.474      20.389      20.474      20.723      21.125      21.662      22.314      23.053      23.854    
  24.686      25.519      26.319      27.057      27.704      28.236      28.633      28.878      23.238      23.193    
  23.061      22.849      22.566      22.227      21.847      21.445      21.040      20.653      20.308      20.030    
  19.843      19.773      19.843      20.073      20.474      21.051      21.804      22.721      23.789      24.988    
  26.290      27.662      29.063      30.448      31.769      32.978      34.034      34.897      35.538      35.932    
  36.065      35.932      35.538      34.897      34.034      32.978      31.769      30.448      29.063      27.662    
  26.290      24.988      23.789      22.721      21.804      21.051      20.474      20.073      19.843      19.773    
  19.843      20.030      20.308      20.653      21.040      21.445      21.847      22.227      22.566      22.849    
  23.061      23.193      18.689      18.672      18.620      18.540      18.438      18.323      18.206      18.100    
  18.017      17.975      17.994      18.096      18.306      18.652      19.158      19.843      20.723      21.804    
  23.088      24.573      26.247      28.092      30.074      32.150      34.261      36.342      38.321      40.130    
  41.706      42.993      43.947      44.533      44.731      44.533      43.947      42.993      41.706      40.130    
  38.321      36.342      34.261      32.150      30.074      28.092      26.247      24.573      23.088      21.804    
  20.723      19.843      19.158      18.652      18.306      18.096      17.994      17.975      18.017      18.100    
  18.206      18.323      18.438      18.540      18.620      18.672      15.095      15.096      15.100      15.111    
  15.135      15.178      15.250      15.360      15.520      15.745      16.054      16.472      17.026      17.744    
  18.652      19.773      21.125      22.721      24.573      26.685      29.051      31.651      34.444      37.366    
  40.339      43.268      46.056      48.606      50.828      52.644      53.990      54.817      55.096      54.817    
  53.990      52.644      50.828      48.606      46.056      43.268      40.339      37.366      34.444      31.651    
  29.051      26.685      24.573      22.721      21.125      19.773      18.652      17.744      17.026      16.472    
  16.054      15.745      15.520      15.360      15.250      15.178      15.135      15.111      15.100      15.096    
  12.256      12.269      12.311      12.383      12.493      12.647      12.852      13.120      13.462      13.895    
  14.439      15.123      15.974      17.026      18.306      19.843      21.662      23.789      26.247      29.051    
  32.200      35.669      39.402      43.317      47.305      51.244      55.003      58.451      61.463      63.931    
  65.762      66.889      67.269      66.889      65.762      63.931      61.463      58.451      55.003      51.244    
  47.305      43.317      39.402      35.669      32.200      29.051      26.247      23.789      21.662      19.843    
  18.306      17.026      15.974      15.123      14.439      13.895      13.462      13.120      12.852      12.647    
  12.493      12.383      12.311      12.269      10.012      10.034      10.099      10.213      10.381      10.611    
  10.912      11.296      11.776      12.371      13.107      14.012      15.123      16.472      18.096      20.030    
  22.314      24.988      28.092      31.651      35.669      40.112      44.909      49.956      55.116      60.234    
  65.141      69.663      73.614      76.784      79.057      80.411      80.859      80.411      79.057      76.784    
  73.614      69.663      65.141      60.234      55.116      49.956      44.909      40.112      35.669      31.651    
  28.092      24.988      22.314      20.030      18.096      16.472      15.123      14.012      13.107      12.371    
  11.776      11.296      10.912      10.611      10.381      10.213      10.099      10.034      8.2405      8.2673    
  8.3492      8.4906      8.6984      8.9815      9.3505      9.8185      10.403      11.125      12.015      13.107    
  14.439      16.054      17.994      20.308      23.053      26.290      30.074      34.444      39.402      44.909    
  50.881      57.190      63.677      70.150      76.371      81.923      86.452      89.821      92.067      93.324    
  93.725      93.324      92.067      89.821      86.452      81.923      76.371      70.150      63.677      57.190    
  50.881      44.909      39.402      34.444      30.074      26.290      23.053      20.308      17.994      16.054    
  14.439      13.107      12.015      11.125      10.403      9.8185      9.3505      8.9815      8.6984      8.4906    
  8.3492      8.2673      6.8480      6.8783      6.9709      7.1306      7.3653      7.6847      8.1012      8.6300    
  9.2913      10.112      11.125      12.371      13.895      15.745      17.975      20.653      23.854      27.662    
  32.150      37.366      43.317      49.956      57.190      64.879      72.839      80.732      87.865      93.677    
  97.915      100.64      102.16      102.86      103.05      102.86      102.16      100.64      97.915      93.677    
  87.865      80.732      72.839      64.879      57.190      49.956      43.317      37.366      32.150      27.662    
  23.854      20.653      17.975      15.745      13.895      12.371      11.125      10.112      9.2913      8.6300    
  8.1012      7.6847      7.3653      7.1306      6.9709      6.8783      5.7609      5.7934      5.8928      6.0644    
  6.3164      6.6597      7.1080      7.6791      8.3965      9.2913      10.403      11.776      13.462      15.520    
  18.017      21.040      24.686      29.063      34.261      40.339      47.305      55.116      63.677      72.839    
  82.238      90.928      98.023      103.00      105.80      106.80      106.69      106.22      105.99      106.22    
  106.69      106.80      105.80      103.00      98.023      90.928      82.238      72.839      63.677      55.116    
  47.305      40.339      34.261      29.063      24.686      21.040      18.017      15.520      13.462      11.776    
  10.403      9.2913      8.3965      7.6791      7.1080      6.6597      6.3164      6.0644      5.8928      5.7934    
  4.9184      4.9522      5.0555      5.2338      5.4960      5.8539      6.3224      6.9218      7.6791      8.6300    
  9.8185      11.296      13.120      15.360      18.100      21.445      25.519      30.448      36.342      43.268    
  51.244      60.234      70.150      80.732      90.928      99.460      105.37      108.23      108.26      106.26    
  103.46      101.13      100.23      101.13      103.46      106.26      108.26      108.23      105.37      99.460    
  90.928      80.732      70.150      60.234      51.244      43.268      36.342      30.448      25.519      21.445    
  18.100      15.360      13.120      11.296      9.8185      8.6300      7.6791      6.9218      6.3224      5.8539    
  5.4960      5.2338      5.0555      4.9522      4.2698      4.3041      4.4092      4.5908      4.8582      5.2239    
  5.7046      6.3224      7.1080      8.1012      9.3505      10.912      12.852      15.250      18.206      21.847    
  26.319      31.769      38.321      46.056      55.003      65.141      76.371      87.865      98.023      105.37    
  108.89      108.30      104.17      97.870      91.288      86.363      84.542      86.363      91.288      97.870    
  104.17      108.30      108.89      105.37      98.023      87.865      76.371      65.141      55.003      46.056    
  38.321      31.769      26.319      21.847      18.206      15.250      12.852      10.912      9.3505      8.1012    
  7.1080      6.3224      5.7046      5.2239      4.8582      4.5908      4.4092      4.3041      3.7755      3.8099    
  3.9153      4.0977      4.3669      4.7364      5.2239      5.8539      6.6597      7.6847      8.9815      10.611    
  12.647      15.178      18.323      22.227      27.057      32.978      40.130      48.606      58.451      69.663    
  81.923      93.677      103.00      108.23      108.30      103.10      93.606      81.856      70.545      62.397    
  59.432      62.397      70.545      81.856      93.606      103.10      108.30      108.23      103.00      93.677    
  81.923      69.663      58.451      48.606      40.130      32.978      27.057      22.227      18.323      15.178    
  12.647      10.611      8.9815      7.6847      6.6597      5.8539      5.2239      4.7364      4.3669      4.0977    
  3.9153      3.8099      3.4061      3.4404      3.5453      3.7271      3.9962      4.3669      4.8582      5.4960    
  6.3164      7.3653      8.6984      10.381      12.493      15.135      18.438      22.566      27.704      34.034    
  41.706      50.828      61.463      73.614      86.452      97.915      105.80      108.26      104.17      93.606    
  78.001      60.107      43.500      31.757      27.519      31.757      43.500      60.107      78.001      93.606    
  104.17      108.26      105.80      97.915      86.452      73.614      61.463      50.828      41.706      34.034    
  27.704      22.566      18.438      15.135      12.493      10.381      8.6984      7.3653      6.3164      5.4960    
  4.8582      4.3669      3.9962      3.7271      3.5453      3.4404      3.1404      3.1743      3.2783      3.4589    
  3.7271      4.0977      4.5908      5.2338      6.0644      7.1306      8.4906      10.213      12.383      15.111    
  18.540      22.849      28.236      34.897      42.993      52.644      63.931      76.784      89.821      100.64    
  106.80      106.26      97.870      81.856      60.107      36.081      14.216     -1.0845     -6.5814     -1.0845    
  14.216      36.081      60.107      81.856      97.870      106.26      106.80      100.64      89.821      76.784    
  63.931      52.644      42.993      34.897      28.236      22.849      18.540      15.111      12.383      10.213    
  8.4906      7.1306      6.0644      5.2338      4.5908      4.0977      3.7271      3.4589      3.2783      3.1743    
  2.9624      2.9960      3.0990      3.2783      3.5453      3.9153      4.4092      5.0555      5.8928      6.9709    
  8.3492      10.099      12.311      15.100      18.620      23.061      28.633      35.538      43.947      53.990    
  65.762      79.057      92.067      102.16      106.69      103.46      91.288      70.545      43.500      14.216    
 -12.143     -30.474     -37.041     -30.474     -12.143      14.216      43.500      70.545      91.288      103.46    
  106.69      102.16      92.067      79.057      65.762      53.990      43.947      35.538      28.633      23.061    
  18.620      15.100      12.311      10.099      8.3492      6.9709      5.8928      5.0555      4.4092      3.9153    
  3.5453      3.2783      3.0990      2.9960      2.8603      2.8936      2.9960      3.1743      3.4404      3.8099    
  4.3041      4.9522      5.7934      6.8783      8.2673      10.034      12.269      15.096      18.672      23.193    
  28.878      35.932      44.533      54.817      66.889      80.411      93.324      102.86      106.22      101.13    
  86.363      62.397      31.757     -1.0845     -30.474     -50.845     -58.132     -50.845     -30.474     -1.0845    
  31.757      62.397      86.363      101.13      106.22      102.86      93.324      80.411      66.889      54.817    
  44.533      35.932      28.878      23.193      18.672      15.096      12.269      10.034      8.2673      6.8783    
  5.7934      4.9522      4.3041      3.8099      3.4404      3.1743      2.9960      2.8936      2.8270      2.8603    
  2.9624      3.1404      3.4061      3.7755      4.2698      4.9184      5.7609      6.8480      8.2405      10.012    
  12.256      15.095      18.689      23.238      28.960      36.065      44.731      55.096      67.269      80.859    
  93.725      103.05      105.99      100.23      84.542      59.432      27.519     -6.5814     -37.041     -58.132    
 -65.673     -58.132     -37.041     -6.5814      27.519      59.432      84.542      100.23      105.99      103.05    
  93.725      80.859      67.269      55.096      44.731      36.065      28.960      23.238      18.689      15.095    
  12.256      10.012      8.2405      6.8480      5.7609      4.9184      4.2698      3.7755      3.4061      3.1404    
  2.9624      2.8603      2.8603      2.8936      2.9960      3.1743      3.4404      3.8099      4.3041      4.9522    
  5.7934      6.8783      8.2673      10.034      12.269      15.096      18.672      23.193      28.878      35.932    
  44.533      54.817      66.889      80.411      93.324      102.86      106.22      101.13      86.363      62.397    
  31.757     -1.0845     -30.474     -50.845     -58.132     -50.845     -30.474     -1.0845      31.757      62.397    
  86.363      101.13      106.22      102.86      93.324      80.411      66.889      54.817      44.533      35.932    
  28.878      23.193      18.672      15.096      12.269      10.034      8.2673      6.8783      5.7934      4.9522    
  4.3041      3.8099      3.4404      3.1743      2.9960      2.8936      2.9624      2.9960      3.0990      3.2783    
  3.5453      3.9153      4.4092      5.0555      5.8928      6.9709      8.3492      10.099      12.311      15.100    
  18.620      23.061      28.633      35.538      43.947      53.990      65.762      79.057      92.067      102.16    
  106.69      103.46      91.288      70.545      43.500      14.216     -12.143     -30.474     -37.041     -30.474    
 -12.143      14.216      43.500      70.545      91.288      103.46      106.69      102.16      92.067      79.057    
  65.762      53.990      43.947      35.538      28.633      23.061      18.620      15.100      12.311      10.099    
  8.3492      6.9709      5.8928      5.0555      4.4092      3.9153      3.5453      3.2783      3.0990      2.9960    
  3.1404      3.1743      3.2783      3.4589      3.7271      4.0977      4.5908      5.2338      6.0644      7.1306    
  8.4906      10.213      12.383      15.111      18.540      22.849      28.236      34.897      42.993      52.644    
  63.931      76.784      89.821      100.64      106.80      106.26      97.870      81.856      60.107      36.081    
  14.216     -1.0845     -6.5814     -1.0845      14.216      36.081      60.107      81.856      97.870      106.26    
  106.80      100.64      89.821      76.784      63.931      52.644      42.993      34.897      28.236      22.849    
  18.540      15.111      12.383      10.213      8.4906      7.1306      6.0644      5.2338      4.5908      4.0977    
  3.7271      3.4589      3.2783      3.1743      3.4061      3.4404      3.5453      3.7271      3.9962      4.3669    
  4.8582      5.4960      6.3164      7.3653      8.6984      10.381      12.493      15.135      18.438      22.566    
  27.704      34.034      41.706      50.828      61.463      73.614      86.452      97.915      105.80      108.26    
  104.17      93.606      78.001      60.107      43.500      31.757      27.519      31.757      43.500      60.107    
  78.001      93.606      104.17      108.26      105.80      97.915      86.452      73.614      61.463      50.828    
  41.706      34.034      27.704      22.566      18.438      15.135      12.493      10.381      8.6984      7.3653    
  6.3164      5.4960      4.8582      4.3669      3.9962      3.7271      3.5453      3.4404      3.7755      3.8099    
  3.9153      4.0977      4.3669      4.7364      5.2239      5.8539      6.6597      7.6847      8.9815      10.611    
  12.647      15.178      18.323      22.227      27.057      32.978      40.130      48.606      58.451      69.663    
  81.923      93.677      103.00      108.23      108.30      103.10      93.606      81.856      70.545      62.397    
  59.432      62.397      70.545      81.856      93.606      103.10      108.30      108.23      103.00      93.677    
  81.923      69.663      58.451      48.606      40.130      32.978      27.057      22.227      18.323      15.178    
  12.647      10.611      8.9815      7.6847      6.6597      5.8539      5.2239      4.7364      4.3669      4.0977    