   8   8   0   0
  0.2234960E+02  0.5633607E-09  0.5633607E-09  0.5633607E-09  0.5000000E-15
  1.000000000000000E-004
  CAR 
 GaAs                                    
      9.00590381    -10.94537019  301      2.88959137      1.00000000
    -10.945  0.0000E+00  0.0000E+00
    -10.879  0.0000E+00  0.0000E+00
    -10.812  0.0000E+00  0.0000E+00
    -10.746  0.0000E+00  0.0000E+00
    -10.679  0.0000E+00  0.0000E+00
    -10.613  0.0000E+00  0.0000E+00
    -10.546  0.0000E+00  0.0000E+00
    -10.480  0.0000E+00  0.0000E+00
    -10.413  0.0000E+00  0.0000E+00
    -10.347  0.0000E+00  0.0000E+00
    -10.280  0.0000E+00  0.0000E+00
    -10.214  0.0000E+00  0.0000E+00
    -10.147  0.0000E+00  0.0000E+00
    -10.081  0.0000E+00  0.0000E+00
    -10.014  0.0000E+00  0.0000E+00
     -9.948  0.0000E+00  0.0000E+00
     -9.881  0.8579E-01  0.1832E-02
     -9.815  0.3563E+00  0.1551E-01
     -9.748  0.7145E+00  0.5178E-01
     -9.682  0.8975E+00  0.1064E+00
     -9.615  0.9343E+00  0.1675E+00
     -9.549  0.1023E+01  0.2322E+00
     -9.482  0.1179E+01  0.3052E+00
     -9.416  0.1352E+01  0.3893E+00
     -9.349  0.1785E+01  0.4881E+00
     -9.283  0.2538E+01  0.6332E+00
     -9.216  0.2723E+01  0.8166E+00
     -9.150  0.2277E+01  0.9823E+00
     -9.083  0.2111E+01  0.1125E+01
     -9.017  0.2086E+01  0.1265E+01
     -8.950  0.2032E+01  0.1402E+01
     -8.884  0.1950E+01  0.1535E+01
     -8.817  0.2276E+01  0.1699E+01
     -8.751  0.1183E+01  0.1815E+01
     -8.684  0.1409E+01  0.1890E+01
     -8.618  0.2625E+01  0.2023E+01
     -8.551  0.3282E+01  0.2229E+01
     -8.485  0.3532E+01  0.2457E+01
     -8.418  0.3775E+01  0.2692E+01
     -8.352  0.4160E+01  0.2957E+01
     -8.285  0.1244E+02  0.3442E+01
     -8.219  0.4359E+01  0.3975E+01
     -8.152  0.3912E+01  0.4226E+01
     -8.086  0.4253E+01  0.4497E+01
     -8.019  0.4660E+01  0.4793E+01
     -7.953  0.7478E+01  0.5223E+01
     -7.886  0.7339E+01  0.5712E+01
     -7.820  0.8801E+01  0.6257E+01
     -7.753  0.6172E+01  0.6780E+01
     -7.687  0.5618E+01  0.7172E+01
     -7.620  0.5288E+01  0.7530E+01
     -7.554  0.4216E+01  0.7844E+01
     -7.487  0.9623E+00  0.8000E+01
     -7.421  0.0000E+00  0.8000E+01
     -7.354  0.0000E+00  0.8000E+01
     -7.288  0.0000E+00  0.8000E+01
     -7.221  0.0000E+00  0.8000E+01
     -7.155  0.0000E+00  0.8000E+01
     -7.088  0.0000E+00  0.8000E+01
     -7.022  0.0000E+00  0.8000E+01
     -6.955  0.0000E+00  0.8000E+01
     -6.889  0.0000E+00  0.8000E+01
     -6.822  0.0000E+00  0.8000E+01
     -6.756  0.0000E+00  0.8000E+01
     -6.689  0.0000E+00  0.8000E+01
     -6.623  0.0000E+00  0.8000E+01
     -6.556  0.0000E+00  0.8000E+01
     -6.490  0.0000E+00  0.8000E+01
     -6.423  0.0000E+00  0.8000E+01
     -6.357  0.0000E+00  0.8000E+01
     -6.290  0.0000E+00  0.8000E+01
     -6.224  0.0000E+00  0.8000E+01
     -6.157  0.0000E+00  0.8000E+01
     -6.091  0.0000E+00  0.8000E+01
     -6.024  0.0000E+00  0.8000E+01
     -5.958  0.0000E+00  0.8000E+01
     -5.891  0.0000E+00  0.8000E+01
     -5.825  0.0000E+00  0.8000E+01
     -5.758  0.0000E+00  0.8000E+01
     -5.692  0.0000E+00  0.8000E+01
     -5.625  0.0000E+00  0.8000E+01
     -5.559  0.0000E+00  0.8000E+01
     -5.492  0.0000E+00  0.8000E+01
     -5.426  0.0000E+00  0.8000E+01
     -5.359  0.0000E+00  0.8000E+01
     -5.293  0.0000E+00  0.8000E+01
     -5.226  0.0000E+00  0.8000E+01
     -5.160  0.0000E+00  0.8000E+01
     -5.093  0.0000E+00  0.8000E+01
     -5.026  0.0000E+00  0.8000E+01
     -4.960  0.0000E+00  0.8000E+01
     -4.893  0.0000E+00  0.8000E+01
     -4.827  0.0000E+00  0.8000E+01
     -4.760  0.0000E+00  0.8000E+01
     -4.694  0.0000E+00  0.8000E+01
     -4.627  0.0000E+00  0.8000E+01
     -4.561  0.0000E+00  0.8000E+01
     -4.494  0.0000E+00  0.8000E+01
     -4.428  0.0000E+00  0.8000E+01
     -4.361  0.0000E+00  0.8000E+01
     -4.295  0.0000E+00  0.8000E+01
     -4.228  0.0000E+00  0.8000E+01
     -4.162  0.0000E+00  0.8000E+01
     -4.095  0.0000E+00  0.8000E+01
     -4.029  0.0000E+00  0.8000E+01
     -3.962  0.3168E+00  0.8004E+01
     -3.896  0.1675E+01  0.8075E+01
     -3.829  0.2348E+01  0.8201E+01
     -3.763  0.4658E+01  0.8428E+01
     -3.696  0.9925E+01  0.8910E+01
     -3.630  0.1496E+02  0.9696E+01
     -3.563  0.1162E+02  0.1048E+02
     -3.497  0.7536E+01  0.1109E+02
     -3.430  0.5573E+01  0.1152E+02
     -3.364  0.4009E+01  0.1183E+02
     -3.297  0.3676E+01  0.1208E+02
     -3.231  0.2861E+01  0.1229E+02
     -3.164  0.2791E+01  0.1248E+02
     -3.098  0.2726E+01  0.1266E+02
     -3.031  0.2666E+01  0.1284E+02
     -2.965  0.2611E+01  0.1302E+02
     -2.898  0.2562E+01  0.1319E+02
     -2.832  0.2031E+01  0.1334E+02
     -2.765  0.1988E+01  0.1347E+02
     -2.699  0.1938E+01  0.1360E+02
     -2.632  0.1865E+01  0.1373E+02
     -2.566  0.1769E+01  0.1385E+02
     -2.499  0.1692E+01  0.1397E+02
     -2.433  0.1585E+01  0.1407E+02
     -2.366  0.1468E+01  0.1418E+02
     -2.300  0.1419E+01  0.1427E+02
     -2.233  0.1241E+01  0.1436E+02
     -2.167  0.1085E+01  0.1444E+02
     -2.100  0.9511E+00  0.1450E+02
     -2.034  0.8646E+00  0.1456E+02
     -1.967  0.7505E+00  0.1462E+02
     -1.901  0.7662E+00  0.1467E+02
     -1.834  0.7808E+00  0.1472E+02
     -1.768  0.7943E+00  0.1477E+02
     -1.701  0.8067E+00  0.1483E+02
     -1.635  0.8179E+00  0.1488E+02
     -1.568  0.8369E+00  0.1494E+02
     -1.502  0.8620E+00  0.1499E+02
     -1.435  0.8928E+00  0.1505E+02
     -1.369  0.9295E+00  0.1511E+02
     -1.302  0.9720E+00  0.1518E+02
     -1.236  0.1020E+01  0.1524E+02
     -1.169  0.1074E+01  0.1531E+02
     -1.103  0.1159E+01  0.1538E+02
     -1.036  0.1681E+01  0.1547E+02
     -0.970  0.3244E+01  0.1565E+02
     -0.903  0.3440E+01  0.1587E+02
     -0.837  0.3641E+01  0.1611E+02
     -0.770  0.5953E+01  0.1641E+02
     -0.704  0.6812E+01  0.1685E+02
     -0.637  0.6136E+01  0.1727E+02
     -0.571  0.5544E+01  0.1766E+02
     -0.504  0.5087E+01  0.1801E+02
     -0.438  0.4779E+01  0.1833E+02
     -0.371  0.4373E+01  0.1864E+02
     -0.305  0.4371E+01  0.1893E+02
     -0.238  0.4392E+01  0.1922E+02
     -0.172  0.5120E+01  0.1953E+02
     -0.105  0.4802E+01  0.1987E+02
     -0.039  0.4412E+01  0.2016E+02
      0.028  0.4507E+01  0.2046E+02
      0.094  0.5037E+01  0.2077E+02
      0.161  0.6316E+01  0.2113E+02
      0.227  0.7469E+01  0.2158E+02
      0.294  0.7020E+01  0.2207E+02
      0.360  0.8897E+01  0.2256E+02
      0.427  0.7026E+01  0.2305E+02
      0.493  0.6565E+01  0.2350E+02
      0.560  0.6078E+01  0.2392E+02
      0.626  0.5298E+01  0.2430E+02
      0.693  0.4847E+01  0.2463E+02
      0.759  0.4522E+01  0.2494E+02
      0.826  0.4875E+01  0.2525E+02
      0.892  0.5393E+01  0.2559E+02
      0.959  0.6332E+01  0.2601E+02
      1.025  0.5263E+01  0.2635E+02
      1.092  0.5607E+01  0.2671E+02
      1.158  0.6923E+01  0.2711E+02
      1.225  0.9199E+01  0.2761E+02
      1.291  0.5815E+01  0.2813E+02
      1.358  0.5100E+01  0.2849E+02
      1.424  0.4379E+01  0.2880E+02
      1.491  0.3429E+01  0.2910E+02
      1.557  0.2413E+01  0.2928E+02
      1.624  0.2227E+01  0.2943E+02
      1.690  0.2923E+01  0.2959E+02
      1.757  0.3875E+01  0.2982E+02
      1.823  0.5383E+01  0.3015E+02
      1.890  0.5502E+01  0.3050E+02
      1.956  0.5560E+01  0.3087E+02
      2.023  0.4169E+01  0.3121E+02
      2.089  0.1774E+01  0.3138E+02
      2.156  0.1553E+01  0.3149E+02
      2.222  0.1337E+01  0.3159E+02
      2.289  0.1125E+01  0.3167E+02
      2.355  0.9360E+00  0.3174E+02
      2.422  0.1011E+01  0.3180E+02
      2.488  0.9963E+00  0.3187E+02
      2.555  0.8181E+00  0.3193E+02
      2.621  0.4766E+00  0.3198E+02
      2.688  0.1285E+00  0.3199E+02
      2.755  0.3872E-01  0.3200E+02
      2.821  0.1229E-02  0.3200E+02
      2.888  0.0000E+00  0.3200E+02
      2.954  0.0000E+00  0.3200E+02
      3.021  0.0000E+00  0.3200E+02
      3.087  0.0000E+00  0.3200E+02
      3.154  0.0000E+00  0.3200E+02
      3.220  0.0000E+00  0.3200E+02
      3.287  0.0000E+00  0.3200E+02
      3.353  0.0000E+00  0.3200E+02
      3.420  0.0000E+00  0.3200E+02
      3.486  0.0000E+00  0.3200E+02
      3.553  0.7836E-03  0.3200E+02
      3.619  0.3736E-02  0.3200E+02
      3.686  0.8884E-02  0.3200E+02
      3.752  0.1623E-01  0.3200E+02
      3.819  0.2576E-01  0.3200E+02
      3.885  0.3750E-01  0.3200E+02
      3.952  0.5143E-01  0.3201E+02
      4.018  0.4244E+00  0.3203E+02
      4.085  0.2252E+00  0.3204E+02
      4.151  0.2713E+00  0.3206E+02
      4.218  0.3222E+00  0.3208E+02
      4.284  0.3941E+00  0.3210E+02
      4.351  0.5371E+00  0.3213E+02
      4.417  0.7440E+00  0.3218E+02
      4.484  0.1015E+01  0.3224E+02
      4.550  0.1272E+01  0.3231E+02
      4.617  0.1428E+01  0.3240E+02
      4.683  0.1636E+01  0.3250E+02
      4.750  0.3084E+01  0.3268E+02
      4.816  0.2811E+01  0.3285E+02
      4.883  0.3505E+01  0.3306E+02
      4.949  0.5694E+01  0.3337E+02
      5.016  0.7431E+01  0.3384E+02
      5.082  0.6995E+01  0.3432E+02
      5.149  0.6830E+01  0.3476E+02
      5.215  0.7358E+01  0.3523E+02
      5.282  0.9084E+01  0.3576E+02
      5.348  0.7780E+01  0.3636E+02
      5.415  0.5979E+01  0.3679E+02
      5.481  0.5947E+01  0.3719E+02
      5.548  0.5877E+01  0.3758E+02
      5.614  0.7170E+01  0.3800E+02
      5.681  0.5804E+01  0.3843E+02
      5.747  0.6103E+01  0.3883E+02
      5.814  0.6935E+01  0.3932E+02
      5.880  0.3835E+01  0.3958E+02
      5.947  0.3646E+01  0.3983E+02
      6.013  0.3483E+01  0.4007E+02
      6.080  0.3343E+01  0.4030E+02
      6.146  0.3247E+01  0.4051E+02
      6.213  0.2630E+01  0.4072E+02
      6.279  0.2551E+01  0.4090E+02
      6.346  0.1981E+01  0.4102E+02
      6.412  0.2132E+01  0.4116E+02
      6.479  0.2283E+01  0.4131E+02
      6.545  0.2433E+01  0.4147E+02
      6.612  0.2583E+01  0.4163E+02
      6.678  0.2811E+01  0.4181E+02
      6.745  0.3074E+01  0.4201E+02
      6.811  0.5260E+01  0.4232E+02
      6.878  0.4907E+01  0.4263E+02
      6.944  0.5554E+01  0.4298E+02
      7.011  0.6465E+01  0.4338E+02
      7.077  0.1119E+02  0.4393E+02
      7.144  0.7208E+01  0.4449E+02
      7.210  0.5256E+01  0.4491E+02
      7.277  0.4228E+01  0.4523E+02
      7.343  0.2652E+01  0.4543E+02
      7.410  0.2977E+01  0.4562E+02
      7.476  0.3359E+01  0.4583E+02
      7.543  0.5117E+01  0.4608E+02
      7.609  0.8884E+01  0.4650E+02
      7.676  0.6558E+01  0.4708E+02
      7.742  0.4421E+01  0.4741E+02
      7.809  0.3535E+01  0.4767E+02
      7.875  0.1934E+01  0.4785E+02
      7.942  0.1153E+01  0.4795E+02
      8.008  0.0000E+00  0.4800E+02
      8.075  0.0000E+00  0.4800E+02
      8.141  0.0000E+00  0.4800E+02
      8.208  0.0000E+00  0.4800E+02
      8.274  0.0000E+00  0.4800E+02
      8.341  0.0000E+00  0.4800E+02
      8.407  0.0000E+00  0.4800E+02
      8.474  0.0000E+00  0.4800E+02
      8.540  0.0000E+00  0.4800E+02
      8.607  0.0000E+00  0.4800E+02
      8.673  0.0000E+00  0.4800E+02
      8.740  0.0000E+00  0.4800E+02
      8.806  0.0000E+00  0.4800E+02
      8.873  0.0000E+00  0.4800E+02
      8.939  0.0000E+00  0.4800E+02
      9.006  0.0000E+00  0.4800E+02
