       N       E                     dE             d eps       ncg     rms          rms(c)
DAV:   1    -0.330433980675E+02   -0.33043E+02   -0.24806E+00   536   0.672E+00    0.274E+00
DAV:   2    -0.329817598553E+02    0.61638E-01   -0.13159E-01   512   0.165E+00    0.163E+00
DAV:   3    -0.329630121977E+02    0.18748E-01   -0.97212E-02   512   0.112E+00    0.178E-01
DAV:   4    -0.329614037309E+02    0.16085E-02   -0.73883E-03   512   0.382E-01    0.115E-01
DAV:   5    -0.329612485641E+02    0.15517E-03   -0.66176E-04   544   0.104E-01    0.355E-02
DAV:   6    -0.329612589707E+02   -0.10407E-04   -0.13578E-05   296   0.169E-02
   1 F= -.32961259E+02 E0= -.32961259E+02  d E =0.000000E+00
 imaginary and real dielectric function
