 vasp.6.4.3 19Mar24 (build Aug 29 2024 15:27:20) complex                        
  
 executed on             LinuxIFC date 2025.03.19  10:34:00
 running    8 mpi-ranks, on    1 nodes
 distrk:  each k-point on    8 cores,    1 groups
 distr:  one band on NCORE=   1 cores,    8 groups


--------------------------------------------------------------------------------------------------------


 INCAR:
   SYSTEM = GaAs
   PREC = Normal
   ENCUT = 500
   ISMEAR = -5
   SIGMA = 0.1
   IBRION = 2
   LOPTICS = .TRUE.

 POTCAR:    PAW_PBE As 22Sep2009                  
 POTCAR:    PAW_PBE Ga 08Apr2002                  
 -----------------------------------------------------------------------------
|                                                                             |
|           W    W    AA    RRRRR   N    N  II  N    N   GGGG   !!!           |
|           W    W   A  A   R    R  NN   N  II  NN   N  G    G  !!!           |
|           W    W  A    A  R    R  N N  N  II  N N  N  G       !!!           |
|           W WW W  AAAAAA  RRRRR   N  N N  II  N  N N  G  GGG   !            |
|           WW  WW  A    A  R   R   N   NN  II  N   NN  G    G                |
|           W    W  A    A  R    R  N    N  II  N    N   GGGG   !!!           |
|                                                                             |
|     For optimal performance we recommend to set                             |
|       NCORE = 2 up to number-of-cores-per-socket                            |
|     NCORE specifies how many cores store one orbital (NPAR=cpu/NCORE).      |
|     This setting can greatly improve the performance of VASP for DFT.       |
|     The default, NCORE=1 might be grossly inefficient on modern             |
|     multi-core architectures or massively parallel machines. Do your        |
|     own testing! More info at https://www.vasp.at/wiki/index.php/NCORE      |
|     Unfortunately you need to use the default for GW and RPA                |
|     calculations (for HF NCORE is supported but not extensively tested      |
|     yet).                                                                   |
|                                                                             |
 -----------------------------------------------------------------------------

 POTCAR:    PAW_PBE As 22Sep2009                  
   VRHFIN =As: s2p3                                                                                 
   LEXCH  = PE                                                                                      
   EATOM  =   170.1867 eV,   12.5084 Ry                                                             
                                                                                                    
   TITEL  = PAW_PBE As 22Sep2009                                                                    
   LULTRA =        F    use ultrasoft PP ?                                                          
   IUNSCR =        1    unscreen: 0-lin 1-nonlin 2-no                                               
   RPACOR =    1.900    partial core radius                                                         
   POMASS =   74.922; ZVAL   =    5.000    mass and valenz                                          
   RCORE  =    2.100    outmost cutoff radius                                                       
   RWIGS  =    2.300; RWIGS  =    1.217    wigner-seitz radius (au A)                               
   ENMAX  =  208.702; ENMIN  =  156.526 eV                                                          
   ICORE  =        3    local potential                                                             
   LCOR   =        T    correct aug charges                                                         
   LPAW   =        T    paw PP                                                                      
   EAUG   =  462.758                                                                                
   DEXC   =    0.000                                                                                
   RMAX   =    2.144    core radius for proj-oper                                                   
   RAUG   =    1.300    factor for augmentation sphere                                              
   RDEP   =    2.140    radius for radial grids                                                     
   RDEPT  =    1.956    core radius for aug-charge                                                  
                                                                                                    
   Atomic configuration                                                                             
   10 entries                                                                                       
     n  l   j            E        occ.                                                              
     1  0  0.50    -11718.0418   2.0000                                                             
     2  0  0.50     -1486.5454   2.0000                                                             
     2  1  1.50     -1303.3889   6.0000                                                             
     3  0  0.50      -190.2849   2.0000                                                             
     3  1  1.50      -133.6555   6.0000                                                             
     3  2  2.50       -40.6443  10.0000                                                             
     4  0  0.50       -14.4936   2.0000                                                             
     4  1  0.50        -5.1947   3.0000                                                             
     4  2  1.50        -5.4423   0.0000                                                             
     4  3  2.50        -5.4423   0.0000                                                             
   Description                                                                                      
     l       E           TYP  RCUT    TYP  RCUT                                                     
     0    -14.4935570     23  2.100                                                                 
     0    -11.9212055     23  2.100                                                                 
     1     -5.1947127     23  2.100                                                                 
     1     27.2116520     23  2.100                                                                 
     2     -5.4423304     23  2.100                                                                 
     3     -1.3605826      7  2.100                                                                 
  local pseudopotential read in
  partial core-charges read in
  partial kinetic energy density read in
  atomic valenz-charges read in
  non local Contribution for L=           0  read in
    real space projection operators read in
  non local Contribution for L=           0  read in
    real space projection operators read in
  non local Contribution for L=           1  read in
    real space projection operators read in
  non local Contribution for L=           1  read in
    real space projection operators read in
  non local Contribution for L=           2  read in
    real space projection operators read in
    PAW grid and wavefunctions read in
 
   number of l-projection  operators is LMAX  =           5
   number of lm-projection operators is LMMAX =          13
 
 POTCAR:    PAW_PBE Ga 08Apr2002                  
   VRHFIN =Ga: s2p1                                                                                 
   LEXCH  = PE                                                                                      
   EATOM  =    58.8688 eV,    4.3267 Ry                                                             
                                                                                                    
   TITEL  = PAW_PBE Ga 08Apr2002                                                                    
   LULTRA =        F    use ultrasoft PP ?                                                          
   IUNSCR =        1    unscreen: 0-lin 1-nonlin 2-no                                               
   RPACOR =    2.170    partial core radius                                                         
   POMASS =   69.723; ZVAL   =    3.000    mass and valenz                                          
   RCORE  =    2.600    outmost cutoff radius                                                       
   RWIGS  =    2.650; RWIGS  =    1.402    wigner-seitz radius (au A)                               
   ENMAX  =  134.678; ENMIN  =  101.009 eV                                                          
   ICORE  =        3    local potential                                                             
   LCOR   =        T    correct aug charges                                                         
   LPAW   =        T    paw PP                                                                      
   EAUG   =  320.264                                                                                
   DEXC   =    0.000                                                                                
   RMAX   =    2.658    core radius for proj-oper                                                   
   RAUG   =    1.300    factor for augmentation sphere                                              
   RDEP   =    2.684    radius for radial grids                                                     
   RDEPT  =    2.308    core radius for aug-charge                                                  
                                                                                                    
   Atomic configuration                                                                             
   10 entries                                                                                       
     n  l   j            E        occ.                                                              
     1  0  0.50    -10228.7830   2.0000                                                             
     2  0  0.50     -1262.1604   2.0000                                                             
     2  1  1.50     -1098.6333   6.0000                                                             
     3  0  0.50      -148.1110   2.0000                                                             
     3  1  1.50       -98.8436   6.0000                                                             
     3  2  2.50       -19.1549  10.0000                                                             
     4  0  0.50        -8.9483   2.0000                                                             
     4  1  0.50        -2.5791   1.0000                                                             
     4  2  1.50         5.4423   0.0000                                                             
     4  3  2.50        -2.7416   0.0000                                                             
   Description                                                                                      
     l       E           TYP  RCUT    TYP  RCUT                                                     
     0     -8.9483097     23  2.600                                                                 
     0     -5.8232215     23  2.600                                                                 
     1     -2.5790793     23  2.600                                                                 
     1      5.2230115     23  2.600                                                                 
     2      1.3605826     23  2.600                                                                 
     3     -1.3605826      7  2.600                                                                 
  local pseudopotential read in
  partial core-charges read in
  partial kinetic energy density read in
  atomic valenz-charges read in
  non local Contribution for L=           0  read in
    real space projection operators read in
  non local Contribution for L=           0  read in
    real space projection operators read in
  non local Contribution for L=           1  read in
    real space projection operators read in
  non local Contribution for L=           1  read in
    real space projection operators read in
  non local Contribution for L=           2  read in
    real space projection operators read in
    PAW grid and wavefunctions read in
 
   number of l-projection  operators is LMAX  =           5
   number of lm-projection operators is LMMAX =          13
 
  PAW_PBE As 22Sep2009                  :
 energy of atom  1       EATOM= -170.1867
 kinetic energy error for atom=    0.0005 (will be added to EATOM!!)
  PAW_PBE Ga 08Apr2002                  :
 energy of atom  2       EATOM=  -58.8688
 kinetic energy error for atom=    0.0000 (will be added to EATOM!!)
 
 
 POSCAR: cubic gallium arsenide
  positions in direct lattice
  velocities in cartesian coordinates


 exchange-correlation table for PE
   RHO(1)=    0.500       N(1)  =     2000
   RHO(2)=  100.500       N(2)  =     4000
 


--------------------------------------------------------------------------------------------------------


 ion  position               nearest neighbor table
   1  0.000  0.000  0.000-   5 2.44   6 2.44   7 2.44   8 2.44
   2  0.500  0.500  0.000-   5 2.44   6 2.44   7 2.44   8 2.44
   3  0.500  0.000  0.500-   5 2.44   6 2.44   7 2.44   8 2.44
   4  0.000  0.500  0.500-   5 2.44   6 2.44   7 2.44   8 2.44
   5  0.250  0.250  0.250-   1 2.44   2 2.44   3 2.44   4 2.44
   6  0.750  0.250  0.750-   1 2.44   2 2.44   3 2.44   4 2.44
   7  0.750  0.750  0.250-   1 2.44   2 2.44   3 2.44   4 2.44
   8  0.250  0.750  0.750-   1 2.44   2 2.44   3 2.44   4 2.44
 
  LATTYP: Found a simple cubic cell.
 ALAT       =     5.6336071344
  
  Lattice vectors:
  
 A1 = (   5.6336071344,   0.0000000000,   0.0000000000)
 A2 = (   0.0000000000,   5.6336071344,   0.0000000000)
 A3 = (   0.0000000000,   0.0000000000,   5.6336071344)


Analysis of symmetry for initial positions (statically):
=====================================================================
 Subroutine PRICEL returns following result:
 
  LATTYP: Found a face centered cubic cell.
 ALAT       =     5.6336071344
  
  Lattice vectors:
  
 A1 = (   2.8168035672,  -2.8168035672,   0.0000000000)
 A2 = (   2.8168035672,   0.0000000000,   2.8168035672)
 A3 = (   0.0000000000,  -2.8168035672,   2.8168035672)
 
   4 primitive cells build up your supercell.
 

 Routine SETGRP: Setting up the symmetry group for a 
 simple cubic supercell.


 Subroutine GETGRP returns: Found 24 space group operations
 (whereof 24 operations were pure point group operations)
 out of a pool of 48 trial point group operations.


The static configuration has the point symmetry T_d .


Analysis of symmetry for dynamics (positions and initial velocities):
=====================================================================
 Subroutine PRICEL returns following result:
 
  LATTYP: Found a face centered cubic cell.
 ALAT       =     5.6336071344
  
  Lattice vectors:
  
 A1 = (   2.8168035672,  -2.8168035672,   0.0000000000)
 A2 = (   2.8168035672,   0.0000000000,   2.8168035672)
 A3 = (   0.0000000000,  -2.8168035672,   2.8168035672)
 
   4 primitive cells build up your supercell.
 

 Routine SETGRP: Setting up the symmetry group for a 
 simple cubic supercell.


 Subroutine GETGRP returns: Found 24 space group operations
 (whereof 24 operations were pure point group operations)
 out of a pool of 48 trial point group operations.


The dynamic configuration has the point symmetry T_d .


 Subroutine INISYM returns: Found 24 space group operations
 (whereof 24 operations are pure point group operations),
 and found     4 'primitive' translations


----------------------------------------------------------------------------------------

                                     Primitive cell                                     

  volume of cell :      44.6992

  direct lattice vectors                    reciprocal lattice vectors
     2.816803567 -2.816803567  0.000000000     0.177506165 -0.177506165 -0.177506165
     2.816803567  0.000000000  2.816803567     0.177506165  0.177506165  0.177506165
     0.000000000 -2.816803567  2.816803567    -0.177506165 -0.177506165  0.177506165

  length of vectors
     3.983561807  3.983561807  3.983561807     0.307449697  0.307449697  0.307449697

  position of ions in fractional coordinates (direct lattice)
     0.000000000  0.000000000  0.000000000
     0.750000000  0.750000000  0.750000000

  ion indices of the primitive-cell ions
   primitive index   ion index
                 1           1
                 2           5

----------------------------------------------------------------------------------------

 
 
 KPOINTS: Automatic mesh                          

Automatic generation of k-mesh.
 Grid dimensions read from file:
 generate k-points for:    5    5    5

 Generating k-lattice:

  Cartesian coordinates                     Fractional coordinates (reciprocal lattice)
     0.035501233  0.000000000  0.000000000     0.200000000  0.000000000  0.000000000
     0.000000000  0.035501233  0.000000000     0.000000000  0.200000000  0.000000000
     0.000000000  0.000000000  0.035501233     0.000000000  0.000000000  0.200000000

  Length of vectors
     0.035501233  0.035501233  0.035501233

  Shift w.r.t. Gamma in fractional coordinates (k-lattice)
     0.000000000  0.000000000  0.000000000

 TETIRR: Found     57 inequivalent tetrahedra from      750
 
 Subroutine IBZKPT returns following result:
 ===========================================
 
 Found     10 irreducible k-points:
 
 Following reciprocal coordinates:
            Coordinates               Weight
  0.000000  0.000000  0.000000      1.000000
  0.200000  0.000000  0.000000      6.000000
  0.400000  0.000000  0.000000      6.000000
  0.200000  0.200000  0.000000     12.000000
  0.400000  0.200000  0.000000     24.000000
  0.400000  0.400000  0.000000     12.000000
  0.200000  0.200000  0.200000      8.000000
  0.400000  0.200000  0.200000     24.000000
  0.400000  0.400000  0.200000     24.000000
  0.400000  0.400000  0.400000      8.000000
 
 Following cartesian coordinates:
            Coordinates               Weight
  0.000000  0.000000  0.000000      1.000000
  0.159756  0.000000  0.000000      6.000000
  0.319511  0.000000  0.000000      6.000000
  0.159756  0.159756  0.000000     12.000000
  0.319511  0.159756  0.000000     24.000000
  0.319511  0.319511  0.000000     12.000000
  0.159756  0.159756  0.159756      8.000000
  0.319511  0.159756  0.159756     24.000000
  0.319511  0.319511  0.159756     24.000000
  0.319511  0.319511  0.319511      8.000000
 


--------------------------------------------------------------------------------------------------------




 Dimension of arrays:
   k-points           NKPTS =     10   k-points in BZ     NKDIM =     10   number of bands    NBANDS=     24
   number of dos      NEDOS =    301   number of ions     NIONS =      8
   non local maximal  LDIM  =      5   non local SUM 2l+1 LMDIM =     13
   total plane-waves  NPLWV =  32768
   max r-space proj   IRMAX =      1   max aug-charges    IRDMAX=  13370
   dimension x,y,z NGX =    32 NGY =   32 NGZ =   32
   dimension x,y,z NGXF=    64 NGYF=   64 NGZF=   64
   support grid    NGXF=    64 NGYF=   64 NGZF=   64
   ions per type =               4   4
   NGX,Y,Z   is equivalent  to a cutoff of   9.44,  9.44,  9.44 a.u.
   NGXF,Y,Z  is equivalent  to a cutoff of  18.89, 18.89, 18.89 a.u.

 SYSTEM =  GaAs                                    
 POSCAR =  cubic gallium arsenide                  

 Startparameter for this run:
   NWRITE =      2    write-flag & timer
   PREC   = normal    normal or accurate (medium, high low for compatibility)
   ISTART =      1    job   : 0-new  1-cont  2-samecut
   ICHARG =      0    charge: 1-file 2-atom 10-const
   ISPIN  =      1    spin polarized calculation?
   LNONCOLLINEAR =      F non collinear calculations
   LSORBIT =      F    spin-orbit coupling
   INIWAV =      1    electr: 0-lowe 1-rand  2-diag
   LASPH  =      F    aspherical Exc in radial PAW
 Electronic Relaxation 1
   ENCUT  =  500.0 eV  36.75 Ry    6.06 a.u.  10.27 10.27 10.27*2*pi/ulx,y,z
   ENINI  =  500.0     initial cutoff
   ENAUG  =  462.8 eV  augmentation charge cutoff
   NELM   =     60;   NELMIN=  2; NELMDL=  0     # of ELM steps 
   EDIFF  = 0.1E-03   stopping-criterion for ELM
   LREAL  =      F    real-space projection
   NLSPLINE    = F    spline interpolate recip. space projectors
   LCOMPAT=      F    compatible to vasp.4.4
   GGA_COMPAT  = T    GGA compatible to vasp.4.4-vasp.4.6
   LMAXPAW     = -100 max onsite density
   LMAXMIX     =    2 max onsite mixed and CHGCAR
   VOSKOWN=      0    Vosko Wilk Nusair interpolation
   ROPT   =    0.00000   0.00000
 Ionic relaxation
   EDIFFG = 0.1E-02   stopping-criterion for IOM
   NSW    =      0    number of steps for IOM
   NBLOCK =      1;   KBLOCK =      1    inner block; outer block 
   IBRION =     -1    ionic relax: 0-MD 1-quasi-New 2-CG
   NFREE  =      1    steps in history (QN), initial steepest desc. (CG)
   ISIF   =      2    stress and relaxation
   IWAVPR =     10    prediction:  0-non 1-charg 2-wave 3-comb
   ISYM   =      2    0-nonsym 1-usesym 2-fastsym
   LCORR  =      T    Harris-Foulkes like correction to forces

   POTIM  = 0.5000    time-step for ionic-motion
   TEIN   =    0.0    initial temperature
   TEBEG  =    0.0;   TEEND  =   0.0 temperature during run
   SMASS  =  -3.00    Nose mass-parameter (am)
   estimated Nose-frequenzy (Omega)   =  0.10E-29 period in steps = 0.13E+47 mass=  -0.725E-27a.u.
   SCALEE = 1.0000    scale energy and forces
   NPACO  =    256;   APACO  = 10.0  distance and # of slots for P.C.
   PSTRESS=    0.0 pullay stress

  Mass of Ions in am
   POMASS =  74.92 69.72
  Ionic Valenz
   ZVAL   =   5.00  3.00
  Atomic Wigner-Seitz radii
   RWIGS  =  -1.00 -1.00
  virtual crystal weights 
   VCA    =   1.00  1.00
   NELECT =      32.0000    total number of electrons
   NUPDOWN=      -1.0000    fix difference up-down

 DOS related values:
   EMIN   =  10.00;   EMAX   =-10.00  energy-range for DOS
   EFERMI =   0.00;   METHOD = LEGACY      
   ISMEAR =    -5;   SIGMA  =   0.10  broadening in eV -4-tet -1-fermi 0-gaus

 Electronic relaxation 2 (details)
   IALGO  =     38    algorithm
   LDIAG  =      T    sub-space diagonalisation (order eigenvalues)
   LSUBROT=      F    optimize rotation matrix (better conditioning)
   TURBO    =      0    0=normal 1=particle mesh
   IRESTART =      0    0=no restart 2=restart with 2 vectors
   NREBOOT  =      0    no. of reboots
   NMIN     =      0    reboot dimension
   EREF     =   0.00    reference energy to select bands
   IMIX   =      4    mixing-type and parameters
     AMIX     =   0.40;   BMIX     =  1.00
     AMIX_MAG =   1.60;   BMIX_MAG =  1.00
     AMIN     =   0.10
     WC   =   100.;   INIMIX=   1;  MIXPRE=   1;  MAXMIX= -45

 Intra band minimization:
   WEIMIN = 0.0000     energy-eigenvalue tresh-hold
   EBREAK =  0.10E-05  absolut break condition
   DEPER  =   0.30     relativ break condition  

   TIME   =   0.40     timestep for ELM

  volume/ion in A,a.u.               =      22.35       150.82
  Fermi-wavevector in a.u.,A,eV,Ry     =   0.922582  1.743427 11.580699  0.851157
  Thomas-Fermi vector in A             =   2.048125
 
 Write flags
   LWAVE        =      T    write WAVECAR
   LDOWNSAMPLE  =      F    k-point downsampling of WAVECAR
   LCHARG       =      T    write CHGCAR
   LVTOT        =      F    write LOCPOT, total local potential
   LVHAR        =      F    write LOCPOT, Hartree potential only
   WRT_POTENTIAL= false  ! write potential to hdf5 file
   LELF         =      F    write electronic localiz. function (ELF)
   LORBIT       =      0    0 simple, 1 ext, 2 COOP (PROOUT), +10 PAW based schemes


 Dipole corrections
   LMONO      =      F    monopole corrections only (constant potential shift)
   LDIPOL     =      F    correct potential (dipole corrections)
   IDIPOL     =      0    1-x, 2-y, 3-z, 4-all directions 
   EPSILON    =  1.0000000 bulk dielectric constant
   LVACPOTAV  =      F  vacuum potentials using an averaging scheme for the charge density
   VACPOTFLAT =  0.1000000 required flatness to determine vacuum potential
 Exchange correlation treatment:
   GGA     = PE    functional components
   XC_C    = 1    coefficients multiplying the functional components
   LIBXC   =     F    Libxc                    
   VOSKOWN =     0    Vosko Wilk Nusair interpolation
   LHFCALC =     F    Hartree Fock is set to
   LHFONE  =     F    Hartree Fock one center treatment
   AEXX    =    0.0000 exact exchange contribution

 Parameters of functionals:
   PE:
     No parameter
 
 Van der Waals corrections
   IVDW    =     0    specifies the selected vdW correction

 Linear response parameters
   LEPSILON=     F    determine dielectric tensor
   LRPA    =     F    only Hartree local field effects (RPA)
   LNABLA  =     F    use nabla operator in PAW spheres
   LVEL    =     F    velocity operator in full k-point grid
   CSHIFT  =0.1000    complex shift for real part using Kramers Kronig
   OMEGAMAX=  -1.0    maximum frequency
   DEG_THRESHOLD= 0.2000000E-02 threshold for treating states as degnerate
   RTIME   =   -0.100 relaxation time in fs
  (WPLASMAI=    0.000 imaginary part of plasma frequency in eV, 0.658/RTIME)
   DFIELD  = 0.0000000 0.0000000 0.0000000 field for delta impulse in time
 
  Optional k-point grid parameters
   LKPOINTS_OPT  =     F    use optional k-point grid
   KPOINTS_OPT_MODE=     1    mode for optional k-point grid
 
 Orbital magnetization related:
   ORBITALMAG=     F  switch on orbital magnetization
   LCHIMAG   =     F  perturbation theory with respect to B field
   DQ        =  0.001000  dq finite difference perturbation B field
   LLRAUG    =     F  two centre corrections for induced B field
   LBONE     =     F  B-component reconstruction in AE one-centre
   LVGVCALC  =     T  calculate vGv susceptibility
   LVGVAPPL  =     F  apply vGv susceptibility instead of pGv for G=0

 Random number generation:
   RANDOM_GENERATOR = DEFAULT
   PCG_SEED         = not used


--------------------------------------------------------------------------------------------------------


 Static calculation
 charge density and potential will be updated during run
 non-spin polarized calculation
 Variant of blocked Davidson
 Davidson routine will perform the subspace rotation
 perform sub-space diagonalisation
    after iterative eigenvector-optimisation
 modified Broyden-mixing scheme, WC =      100.0
 initial mixing is a Kerker type mixing with AMIX =  0.4000 and BMIX =      1.0000
 Hartree-type preconditioning will be used
 using additional bands            8
 reciprocal scheme for non local part
 use partial core corrections
 calculate Harris-corrections to forces 
   (improved forces if not selfconsistent)
 use gradient corrections 
 use of overlap-Matrix (Vanderbilt PP)
 Fermi weights with tetrahedron method with Bloechl corrections


--------------------------------------------------------------------------------------------------------


  energy-cutoff  :      500.00
  volume of cell :      178.80
      direct lattice vectors                 reciprocal lattice vectors
     5.633607134  0.000000000  0.000000000     0.177506165  0.000000000  0.000000000
     0.000000000  5.633607134  0.000000000     0.000000000  0.177506165  0.000000000
     0.000000000  0.000000000  5.633607134     0.000000000  0.000000000  0.177506165

  length of vectors
     5.633607134  5.633607134  5.633607134     0.177506165  0.177506165  0.177506165


 
 old parameters found on file WAVECAR:
  energy-cutoff  :      500.00
  volume of cell :      169.52
      direct lattice vectors                 reciprocal lattice vectors
     5.534407977  0.000000000  0.000000000     0.180687800  0.000000000  0.000000000
     0.000000000  5.534407977  0.000000000     0.000000000  0.180687800  0.000000000
     0.000000000  0.000000000  5.534407977     0.000000000  0.000000000  0.180687800

  length of vectors

 
 k-points in units of 2pi/SCALE and weight: Automatic mesh                          
   0.00000000  0.00000000  0.00000000       0.008
   0.15975555  0.00000000  0.00000000       0.048
   0.31951110  0.00000000  0.00000000       0.048
   0.15975555  0.15975555  0.00000000       0.096
   0.31951110  0.15975555  0.00000000       0.192
   0.31951110  0.31951110  0.00000000       0.096
   0.15975555  0.15975555  0.15975555       0.064
   0.31951110  0.15975555  0.15975555       0.192
   0.31951110  0.31951110  0.15975555       0.192
   0.31951110  0.31951110  0.31951110       0.064
 
 k-points in reciprocal lattice and weights: Automatic mesh                          
   0.00000000  0.00000000  0.00000000       0.008
   0.20000000  0.00000000  0.00000000       0.048
   0.40000000  0.00000000  0.00000000       0.048
   0.20000000  0.20000000  0.00000000       0.096
   0.40000000  0.20000000  0.00000000       0.192
   0.40000000  0.40000000  0.00000000       0.096
   0.20000000  0.20000000  0.20000000       0.064
   0.40000000  0.20000000  0.20000000       0.192
   0.40000000  0.40000000  0.20000000       0.192
   0.40000000  0.40000000  0.40000000       0.064
 
 position of ions in fractional coordinates (direct lattice) 
   0.00000000  0.00000000  0.00000000
   0.50000000  0.50000000  0.00000000
   0.50000000  0.00000000  0.50000000
   0.00000000  0.50000000  0.50000000
   0.25000000  0.25000000  0.25000000
   0.75000000  0.25000000  0.75000000
   0.75000000  0.75000000  0.25000000
   0.25000000  0.75000000  0.75000000
 
 position of ions in cartesian coordinates  (Angst):
   0.00000000  0.00000000  0.00000000
   2.81680357  2.81680357  0.00000000
   2.81680357  0.00000000  2.81680357
   0.00000000  2.81680357  2.81680357
   1.40840178  1.40840178  1.40840178
   4.22520535  1.40840178  4.22520535
   4.22520535  4.22520535  1.40840178
   1.40840178  4.22520535  4.22520535
 


--------------------------------------------------------------------------------------------------------


 k-point     1 :   0.0000 0.0000 0.0000  plane waves:    4553
 k-point     2 :   0.2000 0.0000 0.0000  plane waves:    4553
 k-point     3 :   0.4000 0.0000 0.0000  plane waves:    4536
 k-point     4 :   0.2000 0.2000 0.0000  plane waves:    4567
 k-point     5 :   0.4000 0.2000 0.0000  plane waves:    4543
 k-point     6 :   0.4000 0.4000 0.0000  plane waves:    4532
 k-point     7 :   0.2000 0.2000 0.2000  plane waves:    4533
 k-point     8 :   0.4000 0.2000 0.2000  plane waves:    4525
 k-point     9 :   0.4000 0.4000 0.2000  plane waves:    4544
 k-point    10 :   0.4000 0.4000 0.4000  plane waves:    4560

 maximum and minimum number of plane-waves per node :      4567     4525

 maximum number of plane-waves:      4567
 maximum index in each direction: 
   IXMAX=   10   IYMAX=   10   IZMAX=   10
   IXMIN=  -10   IYMIN=  -10   IZMIN=  -10


 serial   3D FFT for wavefunctions
 parallel 3D FFT for charge:
    minimum data exchange during FFTs selected (reduces bandwidth)


 total amount of memory used by VASP MPI-rank0    46865. kBytes
=======================================================================

   base      :      30000. kBytes
   nonl-proj :      10086. kBytes
   fftplans  :       1270. kBytes
   grid      :       3203. kBytes
   one-center:         64. kBytes
   wavefun   :       2242. kBytes
 
     INWAV:  cpu time      0.0311: real time      0.0396
 Broyden mixing: mesh for mixing (old mesh)
   NGX = 21   NGY = 21   NGZ = 21
  (NGX  = 64   NGY  = 64   NGZ  = 64)
  gives a total of   9261 points

 charge density for first step will be calculated from the start-wavefunctions


--------------------------------------------------------------------------------------------------------


 Maximum index for augmentation-charges         1595 (set IRDMAX)


--------------------------------------------------------------------------------------------------------


 initial charge from wavefunction
 First call to EWALD:  gamma=   0.315
 Maximum number of real-space cells 3x 3x 3
 Maximum number of reciprocal cells 3x 3x 3

    FEWALD:  cpu time      0.0009: real time      0.0009


--------------------------------------- Ionic step        1  -------------------------------------------




--------------------------------------- Iteration      1(   1)  ---------------------------------------


    POTLOK:  cpu time      0.0154: real time      0.0187
    SETDIJ:  cpu time      0.0020: real time      0.0021
     EDDAV:  cpu time      0.2744: real time      0.2864
 BZINTS: Fermi energy:    2.665497;   32.000000 electrons
         Band energy:-0.844839E+02;  BLOECHL correction:    0.000000
       DOS:  cpu time      0.0004: real time      0.0004
    CHARGE:  cpu time      0.0127: real time      0.0130
    MIXING:  cpu time      0.0006: real time      0.0006
    --------------------------------------------
      LOOP:  cpu time      0.3054: real time      0.3211

 eigenvalue-minimisations  :   536
 total energy-change (2. order) :-0.3304340E+02  (-0.2480602E+00)
 number of electron      31.9999983 magnetization 
 augmentation part       -5.2017180 magnetization 

 Broyden mixing:
  rms(total) = 0.27397E+00    rms(broyden)= 0.27397E+00
  rms(prec ) = 0.35592E+00
  weight for this iteration     100.00

 Free energy of the ion-electron system (eV)
  ---------------------------------------------------
  alpha Z        PSCENC =        76.53299488
  Ewald energy   TEWEN  =      -919.88900360
  -Hartree energ DENC   =       -79.56375838
  -exchange      EXHF   =         0.00000000
  -V(xc)+E(xc)   XCENC  =      -120.77516963
  PAW double counting   =      2324.03287790    -2145.11702810
  entropy T*S    EENTRO =         0.00000000
  eigenvalues    EBANDS =       -84.48394153
  atomic energy  EATOM  =       916.21963040
  Solvation  Ediel_sol  =         0.00000000
  ---------------------------------------------------
  free energy    TOTEN  =       -33.04339807 eV

  energy without entropy =      -33.04339807  energy(sigma->0) =      -33.04339807


--------------------------------------------------------------------------------------------------------




--------------------------------------- Iteration      1(   2)  ---------------------------------------


    POTLOK:  cpu time      0.0155: real time      0.0165
    SETDIJ:  cpu time      0.0019: real time      0.0019
     EDDAV:  cpu time      0.2569: real time      0.2685
 BZINTS: Fermi energy:    2.777574;   32.000000 electrons
         Band energy:-0.820934E+02;  BLOECHL correction:    0.000000
       DOS:  cpu time      0.0004: real time      0.0004
    CHARGE:  cpu time      0.0125: real time      0.0127
    MIXING:  cpu time      0.0006: real time      0.0006
    --------------------------------------------
      LOOP:  cpu time      0.2878: real time      0.3006

 eigenvalue-minimisations  :   512
 total energy-change (2. order) : 0.6163821E-01  (-0.1315898E-01)
 number of electron      31.9999983 magnetization 
 augmentation part       -5.1980091 magnetization 

 Broyden mixing:
  rms(total) = 0.16276E+00    rms(broyden)= 0.16276E+00
  rms(prec ) = 0.19841E+00
  weight for this iteration     100.00

 eigenvalues of (default mixing * dielectric matrix)
  average eigenvalue GAMMA=   2.3355
  2.3355

 Free energy of the ion-electron system (eV)
  ---------------------------------------------------
  alpha Z        PSCENC =        76.53299488
  Ewald energy   TEWEN  =      -919.88900360
  -Hartree energ DENC   =       -81.79781486
  -exchange      EXHF   =         0.00000000
  -V(xc)+E(xc)   XCENC  =      -120.79130278
  PAW double counting   =      2197.98784868    -2019.15073660
  entropy T*S    EENTRO =         0.00000000
  eigenvalues    EBANDS =       -82.09337596
  atomic energy  EATOM  =       916.21963040
  Solvation  Ediel_sol  =         0.00000000
  ---------------------------------------------------
  free energy    TOTEN  =       -32.98175986 eV

  energy without entropy =      -32.98175986  energy(sigma->0) =      -32.98175986


--------------------------------------------------------------------------------------------------------




--------------------------------------- Iteration      1(   3)  ---------------------------------------


    POTLOK:  cpu time      0.0152: real time      0.0157
    SETDIJ:  cpu time      0.0018: real time      0.0019
     EDDAV:  cpu time      0.2572: real time      0.2687
 BZINTS: Fermi energy:    2.890717;   32.000000 electrons
         Band energy:-0.796250E+02;  BLOECHL correction:    0.000000
       DOS:  cpu time      0.0004: real time      0.0004
    CHARGE:  cpu time      0.0126: real time      0.0129
    MIXING:  cpu time      0.0006: real time      0.0006
    --------------------------------------------
      LOOP:  cpu time      0.2879: real time      0.3001

 eigenvalue-minimisations  :   512
 total energy-change (2. order) : 0.1874766E-01  (-0.9721240E-02)
 number of electron      31.9999983 magnetization 
 augmentation part       -5.1731100 magnetization 

 Broyden mixing:
  rms(total) = 0.17808E-01    rms(broyden)= 0.17808E-01
  rms(prec ) = 0.39754E-01
  weight for this iteration     100.00

 eigenvalues of (default mixing * dielectric matrix)
  average eigenvalue GAMMA=   1.5807
  1.1288  2.0326

 Free energy of the ion-electron system (eV)
  ---------------------------------------------------
  alpha Z        PSCENC =        76.53299488
  Ewald energy   TEWEN  =      -919.88900360
  -Hartree energ DENC   =       -84.11106895
  -exchange      EXHF   =         0.00000000
  -V(xc)+E(xc)   XCENC  =      -120.86731764
  PAW double counting   =      2050.16444291    -1871.38772441
  entropy T*S    EENTRO =         0.00000000
  eigenvalues    EBANDS =       -79.62496578
  atomic energy  EATOM  =       916.21963040
  Solvation  Ediel_sol  =         0.00000000
  ---------------------------------------------------
  free energy    TOTEN  =       -32.96301220 eV

  energy without entropy =      -32.96301220  energy(sigma->0) =      -32.96301220


--------------------------------------------------------------------------------------------------------




--------------------------------------- Iteration      1(   4)  ---------------------------------------


    POTLOK:  cpu time      0.0155: real time      0.0160
    SETDIJ:  cpu time      0.0019: real time      0.0019
     EDDAV:  cpu time      0.2588: real time      0.2702
 BZINTS: Fermi energy:    2.885116;   32.000000 electrons
         Band energy:-0.800054E+02;  BLOECHL correction:    0.000000
       DOS:  cpu time      0.0004: real time      0.0004
    CHARGE:  cpu time      0.0126: real time      0.0128
    MIXING:  cpu time      0.0006: real time      0.0006
    --------------------------------------------
      LOOP:  cpu time      0.2899: real time      0.3020

 eigenvalue-minimisations  :   512
 total energy-change (2. order) : 0.1608467E-02  (-0.7388332E-03)
 number of electron      31.9999983 magnetization 
 augmentation part       -5.1732505 magnetization 

 Broyden mixing:
  rms(total) = 0.11521E-01    rms(broyden)= 0.11521E-01
  rms(prec ) = 0.15792E-01
  weight for this iteration     100.00

 eigenvalues of (default mixing * dielectric matrix)
  average eigenvalue GAMMA=   1.6242
  2.2809  1.2959  1.2959

 Free energy of the ion-electron system (eV)
  ---------------------------------------------------
  alpha Z        PSCENC =        76.53299488
  Ewald energy   TEWEN  =      -919.88900360
  -Hartree energ DENC   =       -83.71982573
  -exchange      EXHF   =         0.00000000
  -V(xc)+E(xc)   XCENC  =      -120.89815074
  PAW double counting   =      2055.85317113    -1877.05485407
  entropy T*S    EENTRO =         0.00000000
  eigenvalues    EBANDS =       -80.00536599
  atomic energy  EATOM  =       916.21963040
  Solvation  Ediel_sol  =         0.00000000
  ---------------------------------------------------
  free energy    TOTEN  =       -32.96140373 eV

  energy without entropy =      -32.96140373  energy(sigma->0) =      -32.96140373


--------------------------------------------------------------------------------------------------------




--------------------------------------- Iteration      1(   5)  ---------------------------------------


    POTLOK:  cpu time      0.0157: real time      0.0161
    SETDIJ:  cpu time      0.0018: real time      0.0018
     EDDAV:  cpu time      0.2703: real time      0.2820
 BZINTS: Fermi energy:    2.889478;   32.000000 electrons
         Band energy:-0.798396E+02;  BLOECHL correction:    0.000000
       DOS:  cpu time      0.0004: real time      0.0004
    CHARGE:  cpu time      0.0126: real time      0.0128
    MIXING:  cpu time      0.0006: real time      0.0007
    --------------------------------------------
      LOOP:  cpu time      0.3014: real time      0.3138

 eigenvalue-minimisations  :   544
 total energy-change (2. order) : 0.1551668E-03  (-0.6617596E-04)
 number of electron      31.9999983 magnetization 
 augmentation part       -5.1710394 magnetization 

 Broyden mixing:
  rms(total) = 0.35451E-02    rms(broyden)= 0.35451E-02
  rms(prec ) = 0.38391E-02
  weight for this iteration     100.00

 eigenvalues of (default mixing * dielectric matrix)
  average eigenvalue GAMMA=   1.4738
  2.0708  1.3936  1.3936  1.0372

 Free energy of the ion-electron system (eV)
  ---------------------------------------------------
  alpha Z        PSCENC =        76.53299488
  Ewald energy   TEWEN  =      -919.88900360
  -Hartree energ DENC   =       -83.86902904
  -exchange      EXHF   =         0.00000000
  -V(xc)+E(xc)   XCENC  =      -120.91658443
  PAW double counting   =      2042.67384154    -1863.87350134
  entropy T*S    EENTRO =         0.00000000
  eigenvalues    EBANDS =       -79.83959696
  atomic energy  EATOM  =       916.21963040
  Solvation  Ediel_sol  =         0.00000000
  ---------------------------------------------------
  free energy    TOTEN  =       -32.96124856 eV

  energy without entropy =      -32.96124856  energy(sigma->0) =      -32.96124856


--------------------------------------------------------------------------------------------------------




--------------------------------------- Iteration      1(   6)  ---------------------------------------


    POTLOK:  cpu time      0.0155: real time      0.0160
    SETDIJ:  cpu time      0.0019: real time      0.0019
     EDDAV:  cpu time      0.1912: real time      0.1998
 BZINTS: Fermi energy:    2.889591;   32.000000 electrons
         Band energy:-0.798414E+02;  BLOECHL correction:    0.000000
       DOS:  cpu time      0.0004: real time      0.0004
    --------------------------------------------
      LOOP:  cpu time      0.2089: real time      0.2181

 eigenvalue-minimisations  :   296
 total energy-change (2. order) :-0.1040652E-04  (-0.1357830E-05)
 number of electron      31.9999983 magnetization 
 augmentation part       -5.1710394 magnetization 

 Free energy of the ion-electron system (eV)
  ---------------------------------------------------
  alpha Z        PSCENC =        76.53299488
  Ewald energy   TEWEN  =      -919.88900360
  -Hartree energ DENC   =       -83.86994369
  -exchange      EXHF   =         0.00000000
  -V(xc)+E(xc)   XCENC  =      -120.91500278
  PAW double counting   =      2045.01961770    -1866.21819978
  entropy T*S    EENTRO =         0.00000000
  eigenvalues    EBANDS =       -79.84135209
  atomic energy  EATOM  =       916.21963040
  Solvation  Ediel_sol  =         0.00000000
  ---------------------------------------------------
  free energy    TOTEN  =       -32.96125897 eV

  energy without entropy =      -32.96125897  energy(sigma->0) =      -32.96125897


--------------------------------------------------------------------------------------------------------




 average (electrostatic) potential at core
  the test charge radii are     1.0621  1.2767
  (the norm of the test charge is              1.0000)
       1 -51.3964       2 -51.3964       3 -51.3964       4 -51.3964       5 -14.5498
       6 -14.5498       7 -14.5498       8 -14.5498
 
 
 
 E-fermi :   2.8896     XC(G=0):  -9.2301     alpha+bet : -8.6514

 val. band max:        2.8354213669   @ k =   0.0000   0.0000   0.0000
 cond. band min:       3.4963636115   @ k =   0.0000   0.0000   0.0000
 fundamental gap:      0.6609422446
 Fermi energy:         2.8895913733

 k-point     1 :       0.0000    0.0000    0.0000
  band No.  band energies     occupation 
      1      -9.9454      2.00000
      2      -7.5416      2.00000
      3      -7.5416      2.00000
      4      -7.5416      2.00000
      5      -3.9984      2.00000
      6      -3.9984      2.00000
      7      -3.9984      2.00000
      8       0.1341      2.00000
      9       0.1341      2.00000
     10       0.1341      2.00000
     11       0.1341      2.00000
     12       0.1341      2.00000
     13       0.1341      2.00000
     14       2.8354      2.00000
     15       2.8354      2.00000
     16       2.8354      2.00000
     17       3.4964      0.00000
     18       4.2850      0.00000
     19       4.2850      0.00000
     20       4.2850      0.00000
     21       4.5087      0.00000
     22       4.5087      0.00000
     23       4.5087      0.00000
     24       6.6050      0.00000

 k-point     2 :       0.2000    0.0000    0.0000
  band No.  band energies     occupation 
      1      -9.7992      2.00000
      2      -7.9530      2.00000
      3      -7.5261      2.00000
      4      -7.5261      2.00000
      5      -3.9335      2.00000
      6      -3.9335      2.00000
      7      -3.3880      2.00000
      8      -0.2096      2.00000
      9      -0.2096      2.00000
     10      -0.1353      2.00000
     11      -0.1353      2.00000
     12       0.2990      2.00000
     13       0.2990      2.00000
     14       1.3123      2.00000
     15       2.3722      2.00000
     16       2.3722      2.00000
     17       4.2604      0.00000
     18       4.9510      0.00000
     19       4.9547      0.00000
     20       5.0283      0.00000
     21       5.0283      0.00000
     22       5.2619      0.00000
     23       5.2619      0.00000
     24       6.1293      0.00000

 k-point     3 :       0.4000    0.0000    0.0000
  band No.  band energies     occupation 
      1      -9.3721      2.00000
      2      -8.7097      2.00000
      3      -7.5004      2.00000
      4      -7.5004      2.00000
      5      -3.8155      2.00000
      6      -3.8155      2.00000
      7      -2.0442      2.00000
      8      -0.6827      2.00000
      9      -0.6827      2.00000
     10      -0.4874      2.00000
     11      -0.4874      2.00000
     12      -0.4256      2.00000
     13       0.7798      2.00000
     14       0.7798      2.00000
     15       1.5235      2.00000
     16       1.5235      2.00000
     17       4.5558      0.00000
     18       5.1758      0.00000
     19       5.7988      0.00000
     20       6.2190      0.00000
     21       6.7751      0.00000
     22       6.7751      0.00000
     23       6.9407      0.00000
     24       6.9407      0.00000

 k-point     4 :       0.2000    0.2000    0.0000
  band No.  band energies     occupation 
      1      -9.6567      2.00000
      2      -7.8977      2.00000
      3      -7.8977      2.00000
      4      -7.5477      2.00000
      5      -3.8688      2.00000
      6      -3.4243      2.00000
      7      -3.4243      2.00000
      8      -0.8608      2.00000
      9      -0.1291      2.00000
     10      -0.1291      2.00000
     11       0.1867      2.00000
     12       0.1867      2.00000
     13       0.3502      2.00000
     14       0.4079      2.00000
     15       1.8800      2.00000
     16       2.6638      2.00000
     17       4.6612      0.00000
     18       5.0046      0.00000
     19       5.0620      0.00000
     20       5.0620      0.00000
     21       5.6078      0.00000
     22       5.6078      0.00000
     23       6.6273      0.00000
     24       6.7838      0.00000

 k-point     5 :       0.4000    0.2000    0.0000
  band No.  band energies     occupation 
      1      -9.2423      2.00000
      2      -8.6067      2.00000
      3      -7.7637      2.00000
      4      -7.6270      2.00000
      5      -3.7127      2.00000
      6      -3.5417      2.00000
      7      -2.3120      2.00000
      8      -1.1118      2.00000
      9      -1.0071      2.00000
     10      -0.7987      2.00000
     11       0.1458      2.00000
     12       0.2906      2.00000
     13       0.3572      2.00000
     14       0.9295      2.00000
     15       1.0132      2.00000
     16       1.9290      2.00000
     17       5.3761      0.00000
     18       5.6478      0.00000
     19       5.7546      0.00000
     20       6.2386      0.00000
     21       6.2407      0.00000
     22       6.7668      0.00000
     23       7.0949      0.00000
     24       8.0059      0.00000

 k-point     6 :       0.4000    0.4000    0.0000
  band No.  band energies     occupation 
      1      -8.8711      2.00000
      2      -8.3247      2.00000
      3      -8.3247      2.00000
      4      -7.9499      2.00000
      5      -3.3912      2.00000
      6      -2.8724      2.00000
      7      -2.8724      2.00000
      8      -1.9823      2.00000
      9      -1.0550      2.00000
     10      -0.5127      2.00000
     11      -0.5127      2.00000
     12       0.1515      2.00000
     13       1.1447      2.00000
     14       1.2079      2.00000
     15       1.2079      2.00000
     16       2.0488      2.00000
     17       5.3417      0.00000
     18       5.6496      0.00000
     19       6.1958      0.00000
     20       6.1958      0.00000
     21       7.3180      0.00000
     22       7.3180      0.00000
     23       7.8282      0.00000
     24       7.8401      0.00000

 k-point     7 :       0.2000    0.2000    0.2000
  band No.  band energies     occupation 
      1      -9.5189      2.00000
      2      -7.8708      2.00000
      3      -7.8708      2.00000
      4      -7.8708      2.00000
      5      -3.4979      2.00000
      6      -3.4979      2.00000
      7      -3.4979      2.00000
      8      -0.5312      2.00000
      9      -0.5312      2.00000
     10      -0.5312      2.00000
     11      -0.4674      2.00000
     12       0.5587      2.00000
     13       0.5587      2.00000
     14       0.5587      2.00000
     15       2.3285      2.00000
     16       2.3285      2.00000
     17       4.5047      0.00000
     18       4.8372      0.00000
     19       4.8372      0.00000
     20       4.8372      0.00000
     21       6.7937      0.00000
     22       6.7937      0.00000
     23       6.7937      0.00000
     24       7.3081      0.00000

 k-point     8 :       0.4000    0.2000    0.2000
  band No.  band energies     occupation 
      1      -9.1204      2.00000
      2      -8.5189      2.00000
      3      -7.8255      2.00000
      4      -7.8255      2.00000
      5      -3.6284      2.00000
      6      -3.6284      2.00000
      7      -2.6682      2.00000
      8      -1.6326      2.00000
      9      -0.7231      2.00000
     10      -0.7231      2.00000
     11       0.3789      2.00000
     12       0.5887      2.00000
     13       0.5887      2.00000
     14       0.9928      2.00000
     15       1.5970      2.00000
     16       1.6415      2.00000
     17       5.1057      0.00000
     18       5.2513      0.00000
     19       5.7558      0.00000
     20       5.7558      0.00000
     21       6.8607      0.00000
     22       7.0175      0.00000
     23       7.6722      0.00000
     24       7.6722      0.00000

 k-point     9 :       0.4000    0.4000    0.2000
  band No.  band energies     occupation 
      1      -8.7764      2.00000
      2      -8.2891      2.00000
      3      -8.2891      2.00000
      4      -8.0172      2.00000
      5      -3.6199      2.00000
      6      -3.2633      2.00000
      7      -3.2633      2.00000
      8      -2.5613      2.00000
      9      -0.3978      2.00000
     10       0.0836      2.00000
     11       0.0836      2.00000
     12       0.9093      2.00000
     13       1.2361      2.00000
     14       1.2770      2.00000
     15       1.2770      2.00000
     16       1.9762      2.00000
     17       4.8877      0.00000
     18       5.3271      0.00000
     19       5.5907      0.00000
     20       5.5907      0.00000
     21       7.0716      0.00000
     22       7.0716      0.00000
     23       7.6067      0.00000
     24       7.6330      0.00000

 k-point    10 :       0.4000    0.4000    0.4000
  band No.  band energies     occupation 
      1      -8.5269      2.00000
      2      -8.2282      2.00000
      3      -8.2282      2.00000
      4      -8.2282      2.00000
      5      -3.7223      2.00000
      6      -3.7223      2.00000
      7      -3.7223      2.00000
      8      -3.3334      2.00000
      9       0.9047      2.00000
     10       0.9047      2.00000
     11       0.9047      2.00000
     12       1.4760      2.00000
     13       1.4760      2.00000
     14       1.4760      2.00000
     15       1.7640      2.00000
     16       1.7640      2.00000
     17       3.9880      0.00000
     18       4.7198      0.00000
     19       4.7198      0.00000
     20       4.7198      0.00000
     21       7.2337      0.00000
     22       7.2337      0.00000
     23       7.2337      0.00000
     24       7.5421      0.00000


--------------------------------------------------------------------------------------------------------


 soft charge-density along one line, spin component           1
         0         1         2         3         4         5         6         7         8         9
 total charge-density along one line
 
 pseudopotential strength for first ion, spin component:           1
 23.645  28.263  -0.000  -0.000   0.000   0.000   0.000  -0.000
 28.263  33.790  -0.000  -0.000   0.000   0.000   0.000  -0.000
 -0.000  -0.000   5.554   0.000   0.000 -11.003  -0.000  -0.000
 -0.000  -0.000   0.000   5.554   0.000  -0.000 -11.003  -0.000
  0.000   0.000   0.000   0.000   5.554  -0.000  -0.000 -11.003
  0.000   0.000 -11.003  -0.000  -0.000  22.372   0.000   0.000
  0.000   0.000  -0.000 -11.003  -0.000   0.000  22.372   0.000
 -0.000  -0.000  -0.000  -0.000 -11.003   0.000   0.000  22.372
  0.000   0.000   0.000   0.001  -0.000  -0.000  -0.002   0.000
  0.000   0.000  -0.000  -0.000   0.001   0.000   0.000  -0.002
  0.000   0.000   0.000  -0.000  -0.000  -0.000   0.000   0.000
  0.000   0.000   0.001   0.000  -0.000  -0.002  -0.000   0.000
 -0.000  -0.000   0.000  -0.000   0.000  -0.000   0.000  -0.000
 total augmentation occupancy for first ion, spin component:           1
  5.356  -2.302  -0.000  -0.000   0.000  -0.000  -0.000   0.000   0.000   0.000  -0.000   0.000   0.000
 -2.302   1.345   0.000  -0.000  -0.000  -0.000   0.000  -0.000   0.000  -0.000   0.000  -0.000  -0.000
 -0.000   0.000   1.487  -0.000  -0.000   0.059  -0.000  -0.000   0.000  -0.000   0.000   0.101   0.000
 -0.000  -0.000  -0.000   1.487   0.000  -0.000   0.059   0.000   0.101  -0.000   0.000  -0.000   0.000
  0.000   0.000  -0.000   0.000   1.487  -0.000   0.000   0.059   0.000   0.101   0.000  -0.000  -0.000
 -0.000  -0.000   0.059  -0.000  -0.000   0.003   0.000  -0.000  -0.000   0.000   0.000   0.005   0.000
 -0.000   0.000  -0.000   0.059   0.000   0.000   0.003   0.000   0.005   0.000  -0.000  -0.000   0.000
 -0.000   0.000  -0.000   0.000   0.059   0.000  -0.000   0.003   0.000   0.005  -0.000  -0.000  -0.000
  0.000  -0.000  -0.000   0.101   0.000  -0.000   0.005   0.000   0.014  -0.000  -0.000  -0.000   0.000
  0.000   0.000   0.000  -0.000   0.101  -0.000   0.000   0.005  -0.000   0.014  -0.000  -0.000  -0.000
 -0.000  -0.000  -0.000  -0.000   0.000   0.000  -0.000  -0.000   0.000  -0.000   0.004   0.000  -0.000
  0.000   0.000   0.101  -0.000  -0.000   0.005  -0.000  -0.000   0.000   0.000   0.000   0.014  -0.000
  0.000   0.000   0.000   0.000  -0.000   0.000   0.000   0.000   0.000  -0.000  -0.000  -0.000   0.004


------------------------ aborting loop because EDIFF is reached ----------------------------------------


    CHARGE:  cpu time      0.0126: real time      0.0128
    FORLOC:  cpu time      0.0011: real time      0.0011
    FORNL :  cpu time      0.0557: real time      0.0561
    STRESS:  cpu time      0.3261: real time      0.3282
    FORCOR:  cpu time      0.0153: real time      0.0156
    FORHAR:  cpu time      0.0037: real time      0.0038
    MIXING:  cpu time      0.0006: real time      0.0006
    OFIELD:  cpu time      0.0000: real time      0.0000

  FORCE on cell =-STRESS in cart. coord.  units (eV):
  Direction    XX          YY          ZZ          XY          YZ          ZX
  --------------------------------------------------------------------------------------
  Alpha Z    76.53299    76.53299    76.53299
  Ewald    -306.63015  -306.63015  -306.63015    -0.00000     0.00000    -0.00000
  Hartree    27.96349    27.96349    27.96349    -0.00000    -0.00000    -0.00000
  E(xc)    -121.05817  -121.05817  -121.05817    -0.00000     0.00000    -0.00000
  Local    -119.44736  -119.44736  -119.44736    -0.00000    -0.00000    -0.00000
  n-local   178.60465   180.74176   177.99567    -1.98923    -1.17850    -0.95924
  augment     7.67473     7.67473     7.67473     0.00000    -0.00000     0.00000
  Kinetic   254.94792   266.02000   263.18820    -4.88793    -4.55572    -3.07063
  Fock        0.00000     0.00000     0.00000     0.00000     0.00000     0.00000
  -------------------------------------------------------------------------------------
  Total       5.53493     5.53493     5.53493     0.00000     0.00000     0.00000
  in kB      49.59787    49.59787    49.59787     0.00000     0.00000     0.00000
  external pressure =       49.60 kB  Pullay stress =        0.00 kB


 VOLUME and BASIS-vectors are now :
 -----------------------------------------------------------------------------
  energy-cutoff  :      500.00
  volume of cell :      178.80
      direct lattice vectors                 reciprocal lattice vectors
     5.633607134  0.000000000  0.000000000     0.177506165  0.000000000  0.000000000
     0.000000000  5.633607134  0.000000000     0.000000000  0.177506165  0.000000000
     0.000000000  0.000000000  5.633607134     0.000000000  0.000000000  0.177506165

  length of vectors
     5.633607134  5.633607134  5.633607134     0.177506165  0.177506165  0.177506165


 FORCES acting on ions
    electron-ion (+dipol)            ewald-force                    non-local-force                 convergence-correction
 -----------------------------------------------------------------------------------------------
   -.120E-13 0.415E-14 0.340E-14   -.355E-14 0.000E+00 0.000E+00   -.338E-16 -.989E-17 -.979E-17   -.103E-14 -.350E-14 0.230E-14
   0.126E-14 -.255E-12 -.327E-12   0.000E+00 0.000E+00 0.000E+00   0.101E-16 0.168E-16 0.388E-17   -.488E-15 0.276E-15 0.245E-14
   -.946E-14 0.713E-14 -.498E-12   0.000E+00 0.000E+00 0.000E+00   0.270E-17 -.959E-17 -.236E-16   -.627E-15 -.314E-14 0.142E-14
   -.202E-13 0.162E-13 0.228E-13   0.000E+00 0.000E+00 0.000E+00   0.138E-16 0.296E-17 0.350E-17   -.903E-15 -.161E-15 0.853E-15
   -.378E-14 0.258E-13 -.798E-14   0.670E-15 0.229E-15 0.102E-16   -.163E-17 -.796E-18 -.163E-17   -.572E-15 -.252E-15 0.188E-14
   0.378E-14 0.170E-12 0.161E-12   0.570E-15 0.214E-15 0.164E-15   -.917E-18 -.225E-17 -.551E-17   0.119E-14 -.413E-15 -.291E-14
   -.126E-14 0.979E-13 0.166E-12   -.260E-15 -.162E-15 -.182E-15   -.207E-17 0.337E-17 -.137E-17   0.128E-14 -.802E-15 0.166E-14
   -.757E-14 0.601E-13 -.312E-14   -.105E-14 -.178E-15 -.286E-16   -.127E-17 -.161E-17 -.136E-17   -.436E-15 -.679E-15 -.279E-14
 -----------------------------------------------------------------------------------------------
   -.492E-13 0.127E-12 -.483E-12   -.362E-14 0.103E-15 -.369E-16   -.131E-16 -.998E-18 -.359E-16   -.159E-14 -.866E-14 0.487E-14
 
 
 POSITION                                       TOTAL-FORCE (eV/Angst)
 -----------------------------------------------------------------------------------
      0.00000      0.00000      0.00000        -0.000000      0.000000     -0.000000
      2.81680      2.81680      0.00000        -0.000000      0.000000     -0.000000
      2.81680      0.00000      2.81680        -0.000000     -0.000000     -0.000000
      0.00000      2.81680      2.81680         0.000000      0.000000      0.000000
      1.40840      1.40840      1.40840        -0.000000     -0.000000      0.000000
      4.22521      1.40840      4.22521         0.000000     -0.000000      0.000000
      4.22521      4.22521      1.40840        -0.000000     -0.000000     -0.000000
      1.40840      4.22521      4.22521         0.000000      0.000000      0.000000
 -----------------------------------------------------------------------------------
    total drift:                               -0.000000      0.000000     -0.000000


--------------------------------------------------------------------------------------------------------



  FREE ENERGIE OF THE ION-ELECTRON SYSTEM (eV)
  ---------------------------------------------------
  free  energy   TOTEN  =       -32.96125897 eV

  energy  without entropy=      -32.96125897  energy(sigma->0) =      -32.96125897
 


--------------------------------------------------------------------------------------------------------


    POTLOK:  cpu time      0.0168: real time      0.0172


--------------------------------------------------------------------------------------------------------


 writing wavefunctions
     LOOP+:  cpu time      2.3639: real time      2.4800


--------------------------------------------------------------------------------------------------------



 plasma frequency squared (from intraband transitions) (eV^2)
  --------------------------------------------------------------------------------------
       0.000       0.000       0.000
       0.000       0.000       0.000
       0.000       0.000       0.000

 electrical conductivity sigma (Mega S m-1) (frequency dependency in vasprun.xml)
  --------------------------------------------------------------------------------------
       0.000       0.000       0.000
       0.000       0.000       0.000
       0.000       0.000       0.000

 plasma frequency squared (from interband transitions, int dw w eps(2)(w)) (eV^2)
  --------------------------------------------------------------------------------------
     194.277       0.000      -0.000       0.000       0.000       0.000
      -0.000       0.000     194.277       0.000      -0.000       0.000
       0.000       0.000      -0.000       0.000     194.277       0.000
  --------------------------------------------------------------------------------------
 sumrule: sum of plasma frequencies squared should yield (valence only):     246.782

 Anomalous Hall contribution (eV) 2/pi Imag((f_n-f_m)<u_m| d/dk_a u_n> <u_m| d/dk_b u_n>^*) 
  --------------------------------------------------------------------------------------
       0.000       0.000       0.000
       0.000       0.000       0.000
       0.000       0.000       0.000

  frequency dependent IMAGINARY DIELECTRIC FUNCTION (independent particle, no local field effects) density-density
     E(ev)      X         Y         Z        XY        YZ        ZX
  --------------------------------------------------------------------------------------------------------------
    0.000000    0.000000    0.000000    0.000000    0.000000    0.000000    0.000000
    0.021563    0.007762    0.007762    0.007762   -0.000000    0.000000    0.000000
    0.043126    0.015538    0.015538    0.015538   -0.000000    0.000000    0.000000
    0.064689    0.023340    0.023340    0.023340   -0.000000    0.000000    0.000000
    0.086252    0.031182    0.031182    0.031182   -0.000000    0.000000    0.000000
    0.107815    0.039077    0.039077    0.039077   -0.000000    0.000000    0.000000
    0.129379    0.047041    0.047041    0.047041   -0.000000    0.000000    0.000000
    0.150942    0.055088    0.055088    0.055088   -0.000000    0.000000    0.000000
    0.172505    0.063233    0.063233    0.063233   -0.000000    0.000000    0.000000
    0.194068    0.071493    0.071493    0.071493   -0.000000    0.000000    0.000000
    0.215631    0.079885    0.079885    0.079885   -0.000000    0.000000    0.000000
    0.237194    0.088428    0.088428    0.088428   -0.000000    0.000000    0.000000
    0.258757    0.097142    0.097142    0.097142   -0.000000    0.000000    0.000000
    0.280320    0.106048    0.106048    0.106048   -0.000000    0.000000    0.000000
    0.301883    0.115170    0.115170    0.115170   -0.000000    0.000000    0.000000
    0.323446    0.124535    0.124535    0.124535   -0.000000    0.000000    0.000000
    0.345009    0.134172    0.134172    0.134172   -0.000000    0.000000    0.000000
    0.366573    0.144113    0.144113    0.144113   -0.000000    0.000000    0.000000
    0.388136    0.154395    0.154395    0.154395   -0.000000    0.000000    0.000000
    0.409699    0.165061    0.165061    0.165061   -0.000000    0.000000    0.000000
    0.431262    0.176159    0.176159    0.176159   -0.000000    0.000000    0.000000
    0.452825    0.187745    0.187745    0.187745   -0.000000    0.000000    0.000000
    0.474388    0.199884    0.199884    0.199884   -0.000000    0.000000    0.000000
    0.495951    0.212656    0.212656    0.212656   -0.000000    0.000000    0.000000
    0.517514    0.226155    0.226155    0.226155   -0.000000    0.000000    0.000000
    0.539077    0.240494    0.240494    0.240494   -0.000000    0.000000    0.000000
    0.560640    0.255814    0.255814    0.255814   -0.000000    0.000000    0.000000
    0.582204    0.272291    0.272291    0.272291   -0.000000    0.000000    0.000000
    0.603767    0.290139    0.290139    0.290139   -0.000000    0.000000    0.000000
    0.625330    0.309626    0.309626    0.309626   -0.000000    0.000000    0.000000
    0.646893    0.331071    0.331071    0.331071   -0.000000    0.000000    0.000000
    0.668456    0.354839    0.354839    0.354839   -0.000000    0.000000    0.000000
    0.690019    0.381316    0.381316    0.381316   -0.000000    0.000000    0.000000
    0.711582    0.410873    0.410873    0.410873   -0.000000    0.000000    0.000000
    0.733145    0.443846    0.443846    0.443846   -0.000000    0.000000    0.000000
    0.754708    0.480513    0.480513    0.480513   -0.000000   -0.000000    0.000000
    0.776271    0.521103    0.521103    0.521103   -0.000000   -0.000000    0.000000
    0.797834    0.565797    0.565797    0.565797   -0.000000   -0.000000    0.000000
    0.819398    0.614741    0.614741    0.614741   -0.000000   -0.000000    0.000000
    0.840961    0.668051    0.668051    0.668051   -0.000000   -0.000000    0.000000
    0.862524    0.725818    0.725818    0.725818   -0.000000    0.000000    0.000000
    0.884087    0.788119    0.788119    0.788119   -0.000000    0.000000    0.000000
    0.905650    0.855014    0.855014    0.855014   -0.000000    0.000000    0.000000
    0.927213    0.926552    0.926552    0.926552   -0.000000    0.000000    0.000000
    0.948776    1.002771    1.002771    1.002771   -0.000000    0.000000    0.000000
    0.970339    1.083705    1.083705    1.083705   -0.000000    0.000000    0.000000
    0.991902    1.169376    1.169376    1.169376   -0.000000    0.000000    0.000000
    1.013465    1.259805    1.259805    1.259805   -0.000000    0.000000    0.000000
    1.035028    1.355004    1.355004    1.355004   -0.000000    0.000000    0.000000
    1.056592    1.454982    1.454982    1.454982   -0.000000    0.000000    0.000000
    1.078155    1.559744    1.559744    1.559744   -0.000000    0.000000    0.000000
    1.099718    1.669289    1.669289    1.669289   -0.000000    0.000000    0.000000
    1.121281    1.783614    1.783614    1.783614   -0.000000    0.000000    0.000000
    1.142844    1.902712    1.902712    1.902712    0.000000   -0.000000    0.000000
    1.164407    2.026570    2.026570    2.026570    0.000000   -0.000000    0.000000
    1.185970    2.155173    2.155173    2.155173    0.000000   -0.000000    0.000000
    1.207533    2.288503    2.288503    2.288503    0.000000   -0.000000    0.000000
    1.229096    2.426534    2.426534    2.426534    0.000000   -0.000000    0.000000
    1.250659    2.569240    2.569240    2.569240    0.000000   -0.000000    0.000000
    1.272222    2.716589    2.716589    2.716589   -0.000000   -0.000000    0.000000
    1.293786    2.868543    2.868543    2.868543   -0.000000   -0.000000    0.000000
    1.315349    3.025060    3.025060    3.025060   -0.000000   -0.000000   -0.000000
    1.336912    3.186092    3.186092    3.186092   -0.000000   -0.000000   -0.000000
    1.358475    3.351588    3.351588    3.351588   -0.000000   -0.000000   -0.000000
    1.380038    3.521490    3.521490    3.521490   -0.000000   -0.000000   -0.000000
    1.401601    3.695732    3.695732    3.695732   -0.000000   -0.000000   -0.000000
    1.423164    3.874243    3.874243    3.874243   -0.000000   -0.000000   -0.000000
    1.444727    4.056941    4.056941    4.056941   -0.000000   -0.000000   -0.000000
    1.466290    4.243725    4.243725    4.243725   -0.000000   -0.000000   -0.000000
    1.487853    4.434466    4.434466    4.434466   -0.000000   -0.000000   -0.000000
    1.509416    4.628996    4.628996    4.628996   -0.000000   -0.000000   -0.000000
    1.530980    4.827092    4.827092    4.827092   -0.000000    0.000000   -0.000000
    1.552543    5.028468    5.028468    5.028468   -0.000000    0.000000   -0.000000
    1.574106    5.232761    5.232761    5.232761   -0.000000    0.000000   -0.000000
    1.595669    5.439511    5.439511    5.439511   -0.000000    0.000000   -0.000000
    1.617232    5.648143    5.648143    5.648143   -0.000000    0.000000   -0.000000
    1.638795    5.857935    5.857935    5.857935   -0.000000    0.000000   -0.000000
    1.660358    6.067971    6.067971    6.067971   -0.000000    0.000000   -0.000000
    1.681921    6.277090    6.277090    6.277090    0.000000    0.000000   -0.000000
    1.703484    6.483798    6.483798    6.483798    0.000000    0.000000   -0.000000
    1.725047    6.686160    6.686160    6.686160    0.000000    0.000000   -0.000000
    1.746611    6.881654    6.881654    6.881654    0.000000    0.000000   -0.000000
    1.768174    7.066981    7.066981    7.066981    0.000000    0.000000   -0.000000
    1.789737    7.237855    7.237855    7.237855    0.000000    0.000000   -0.000000
    1.811300    7.388848    7.388848    7.388848    0.000000    0.000000   -0.000000
    1.832863    7.513494    7.513494    7.513494    0.000000    0.000000    0.000000
    1.854426    7.605063    7.605063    7.605063    0.000000    0.000000    0.000000
    1.875989    7.658472    7.658472    7.658472    0.000000    0.000000    0.000000
    1.897552    7.673017    7.673017    7.673017    0.000000    0.000000    0.000000
    1.919115    7.654125    7.654125    7.654125    0.000000    0.000000    0.000000
    1.940678    7.612024    7.612024    7.612024    0.000000    0.000000    0.000000
    1.962241    7.557978    7.557978    7.557978   -0.000000    0.000000    0.000000
    1.983805    7.501315    7.501315    7.501315   -0.000000    0.000000    0.000000
    2.005368    7.449391    7.449391    7.449391   -0.000000    0.000000    0.000000
    2.026931    7.409722    7.409722    7.409722   -0.000000    0.000000    0.000000
    2.048494    7.391862    7.391862    7.391862   -0.000000    0.000000    0.000000
    2.070057    7.407709    7.407709    7.407709   -0.000000   -0.000000    0.000000
    2.091620    7.470885    7.470885    7.470885   -0.000000   -0.000000    0.000000
    2.113183    7.596142    7.596142    7.596142   -0.000000    0.000000    0.000000
    2.134746    7.798565    7.798565    7.798565   -0.000000    0.000000    0.000000
    2.156309    8.091086    8.091086    8.091086   -0.000000    0.000000    0.000000
    2.177872    8.477503    8.477503    8.477503   -0.000000    0.000000    0.000000
    2.199435    8.938817    8.938817    8.938817   -0.000000    0.000000    0.000000
    2.220999    9.419608    9.419608    9.419608   -0.000000    0.000000    0.000000
    2.242562    9.840497    9.840497    9.840497   -0.000000   -0.000000   -0.000000
    2.264125   10.152692   10.152692   10.152692   -0.000000    0.000000   -0.000000
    2.285688   10.379503   10.379503   10.379503   -0.000000    0.000000   -0.000000
    2.307251   10.586358   10.586358   10.586358   -0.000000    0.000000   -0.000000
    2.328814   10.826221   10.826221   10.826221   -0.000000    0.000000   -0.000000
    2.350377   11.118056   11.118056   11.118056   -0.000000    0.000000   -0.000000
    2.371940   11.452318   11.452318   11.452318   -0.000000    0.000000   -0.000000
    2.393503   11.803570   11.803570   11.803570   -0.000000    0.000000   -0.000000
    2.415066   12.142387   12.142387   12.142387   -0.000000    0.000000   -0.000000
    2.436629   12.443917   12.443917   12.443917   -0.000000    0.000000   -0.000000
    2.458193   12.692404   12.692404   12.692404   -0.000000    0.000000   -0.000000
    2.479756   12.882674   12.882674   12.882674   -0.000000    0.000000   -0.000000
    2.501319   13.019699   13.019699   13.019699   -0.000000    0.000000   -0.000000
    2.522882   13.116693   13.116693   13.116693   -0.000000    0.000000   -0.000000
    2.544445   13.191837   13.191837   13.191837   -0.000000    0.000000   -0.000000
    2.566008   13.264036   13.264036   13.264036   -0.000000    0.000000   -0.000000
    2.587571   13.348683   13.348683   13.348683   -0.000000    0.000000   -0.000000
    2.609134   13.454792   13.454792   13.454792   -0.000000    0.000000   -0.000000
    2.630697   13.584772   13.584772   13.584772    0.000000    0.000000   -0.000000
    2.652260   13.736496   13.736496   13.736496    0.000000    0.000000    0.000000
    2.673824   13.905923   13.905923   13.905923    0.000000    0.000000    0.000000
    2.695387   14.088856   14.088856   14.088856    0.000000    0.000000    0.000000
    2.716950   14.281697   14.281697   14.281697    0.000000    0.000000    0.000000
    2.738513   14.481604   14.481604   14.481604    0.000000   -0.000000    0.000000
    2.760076   14.686387   14.686387   14.686387    0.000000   -0.000000    0.000000
    2.781639   14.894362   14.894362   14.894362    0.000000   -0.000000    0.000000
    2.803202   15.104194   15.104194   15.104194    0.000000   -0.000000    0.000000
    2.824765   15.314807   15.314807   15.314807    0.000000   -0.000000    0.000000
    2.846328   15.525315   15.525315   15.525315    0.000000   -0.000000    0.000000
    2.867891   15.734932   15.734932   15.734932    0.000000   -0.000000    0.000000
    2.889454   15.942755   15.942755   15.942755    0.000000   -0.000000    0.000000
    2.911018   16.147458   16.147458   16.147458   -0.000000   -0.000000    0.000000
    2.932581   16.347135   16.347135   16.347135   -0.000000   -0.000000    0.000000
    2.954144   16.539704   16.539704   16.539704   -0.000000   -0.000000    0.000000
    2.975707   16.723738   16.723738   16.723738   -0.000000   -0.000000    0.000000
    2.997270   16.899054   16.899054   16.899054   -0.000000   -0.000000    0.000000
    3.018833   17.066791   17.066791   17.066791   -0.000000   -0.000000    0.000000
    3.040396   17.229187   17.229187   17.229187   -0.000000   -0.000000    0.000000
    3.061959   17.389388   17.389388   17.389388   -0.000000   -0.000000    0.000000
    3.083522   17.551462   17.551462   17.551462   -0.000000   -0.000000    0.000000
    3.105085   17.720586   17.720586   17.720586   -0.000000   -0.000000    0.000000
    3.126648   17.903140   17.903140   17.903140   -0.000000    0.000000    0.000000
    3.148212   18.106276   18.106276   18.106276   -0.000000    0.000000   -0.000000
    3.169775   18.336106   18.336106   18.336106   -0.000000    0.000000   -0.000000
    3.191338   18.592831   18.592831   18.592831   -0.000000    0.000000   -0.000000
    3.212901   18.861369   18.861369   18.861369   -0.000000    0.000000   -0.000000
    3.234464   19.102198   19.102198   19.102198   -0.000000    0.000000   -0.000000
    3.256027   19.260501   19.260501   19.260501   -0.000000    0.000000   -0.000000
    3.277590   19.304436   19.304436   19.304436   -0.000000   -0.000000   -0.000000
    3.299153   19.253597   19.253597   19.253597   -0.000000   -0.000000   -0.000000
    3.320716   19.156556   19.156556   19.156556   -0.000000   -0.000000   -0.000000
    3.342279   19.050793   19.050793   19.050793   -0.000000   -0.000000   -0.000000
    3.363842   18.947010   18.947010   18.947010   -0.000000   -0.000000    0.000000
    3.385406   18.833945   18.833945   18.833945   -0.000000   -0.000000    0.000000
    3.406969   18.687813   18.687813   18.687813   -0.000000   -0.000000    0.000000
    3.428532   18.482011   18.482011   18.482011   -0.000000   -0.000000    0.000000
    3.450095   18.202516   18.202516   18.202516   -0.000000   -0.000000    0.000000
    3.471658   17.866565   17.866565   17.866565   -0.000000   -0.000000    0.000000
    3.493221   17.519980   17.519980   17.519980   -0.000000   -0.000000    0.000000
    3.514784   17.205656   17.205656   17.205656   -0.000000   -0.000000    0.000000
    3.536347   16.939221   16.939221   16.939221   -0.000000   -0.000000    0.000000
    3.557910   16.712389   16.712389   16.712389   -0.000000   -0.000000    0.000000
    3.579473   16.508286   16.508286   16.508286   -0.000000   -0.000000    0.000000
    3.601036   16.311830   16.311830   16.311830    0.000000   -0.000000    0.000000
    3.622600   16.110993   16.110993   16.110993    0.000000   -0.000000    0.000000
    3.644163   15.895814   15.895814   15.895814    0.000000   -0.000000    0.000000
    3.665726   15.663600   15.663600   15.663600    0.000000   -0.000000    0.000000
    3.687289   15.427486   15.427486   15.427486    0.000000    0.000000    0.000000
    3.708852   15.218398   15.218398   15.218398    0.000000    0.000000    0.000000
    3.730415   15.075394   15.075394   15.075394    0.000000    0.000000    0.000000
    3.751978   15.028821   15.028821   15.028821    0.000000    0.000000    0.000000
    3.773541   15.087432   15.087432   15.087432    0.000000    0.000000    0.000000
    3.795104   15.237882   15.237882   15.237882    0.000000    0.000000    0.000000
    3.816667   15.454445   15.454445   15.454445    0.000000    0.000000    0.000000
    3.838231   15.711440   15.711440   15.711440    0.000000    0.000000    0.000000
    3.859794   15.991751   15.991751   15.991751    0.000000    0.000000    0.000000
    3.881357   16.287662   16.287662   16.287662    0.000000    0.000000   -0.000000
    3.902920   16.597036   16.597036   16.597036    0.000000    0.000000   -0.000000
    3.924483   16.919997   16.919997   16.919997    0.000000    0.000000   -0.000000
    3.946046   17.257499   17.257499   17.257499    0.000000    0.000000   -0.000000
    3.967609   17.610979   17.610979   17.610979    0.000000    0.000000   -0.000000
    3.989172   17.982269   17.982269   17.982269    0.000000    0.000000   -0.000000
    4.010735   18.373296   18.373296   18.373296    0.000000    0.000000    0.000000
    4.032298   18.785167   18.785167   18.785167    0.000000    0.000000    0.000000
    4.053861   19.216573   19.216573   19.216573    0.000000    0.000000    0.000000
[...]
   16.862339    0.287654    0.287654    0.287654    0.000000   -0.000000    0.000000
   16.883902    0.289914    0.289914    0.289914    0.000000   -0.000000    0.000000
   16.905465    0.292201    0.292201    0.292201    0.000000   -0.000000    0.000000
   16.927028    0.294507    0.294507    0.294507    0.000000   -0.000000    0.000000
   16.948591    0.296825    0.296825    0.296825    0.000000   -0.000000    0.000000
   16.970154    0.299153    0.299153    0.299153    0.000000   -0.000000    0.000000
   16.991717    0.301489    0.301489    0.301489    0.000000   -0.000000    0.000000
   17.013280    0.303831    0.303831    0.303831    0.000000   -0.000000    0.000000
   17.034843    0.306177    0.306177    0.306177    0.000000   -0.000000    0.000000
   17.056406    0.308526    0.308526    0.308526    0.000000   -0.000000    0.000000
   17.077969    0.310878    0.310878    0.310878    0.000000   -0.000000    0.000000
   17.099533    0.313231    0.313231    0.313231    0.000000   -0.000000    0.000000
   17.121096    0.315583    0.315583    0.315583    0.000000   -0.000000    0.000000
   17.142659    0.317934    0.317934    0.317934    0.000000   -0.000000    0.000000
   17.164222    0.320282    0.320282    0.320282    0.000000   -0.000000    0.000000
   17.185785    0.322626    0.322626    0.322626    0.000000   -0.000000    0.000000
   17.207348    0.324962    0.324962    0.324962    0.000000   -0.000000    0.000000
   17.228911    0.327287    0.327287    0.327287    0.000000   -0.000000    0.000000
   17.250474    0.329597    0.329597    0.329597    0.000000   -0.000000    0.000000
   17.272037    0.331888    0.331888    0.331888    0.000000   -0.000000    0.000000
   17.293600    0.334155    0.334155    0.334155    0.000000   -0.000000    0.000000
   17.315163    0.336396    0.336396    0.336396    0.000000   -0.000000    0.000000
   17.336727    0.338610    0.338610    0.338610    0.000000   -0.000000    0.000000
   17.358290    0.340797    0.340797    0.340797    0.000000   -0.000000    0.000000
   17.379853    0.342957    0.342957    0.342957    0.000000   -0.000000    0.000000
   17.401416    0.345093    0.345093    0.345093    0.000000   -0.000000    0.000000
   17.422979    0.347203    0.347203    0.347203    0.000000   -0.000000    0.000000
   17.444542    0.349292    0.349292    0.349292    0.000000   -0.000000    0.000000
   17.466105    0.351358    0.351358    0.351358    0.000000   -0.000000    0.000000
   17.487668    0.353403    0.353403    0.353403    0.000000   -0.000000    0.000000
   17.509231    0.355429    0.355429    0.355429    0.000000   -0.000000    0.000000
   17.530794    0.357436    0.357436    0.357436    0.000000   -0.000000    0.000000
   17.552357    0.359425    0.359425    0.359425    0.000000   -0.000000    0.000000
   17.573921    0.361397    0.361397    0.361397    0.000000   -0.000000    0.000000
   17.595484    0.363352    0.363352    0.363352    0.000000   -0.000000    0.000000
   17.617047    0.365291    0.365291    0.365291    0.000000   -0.000000    0.000000
   17.638610    0.367215    0.367215    0.367215    0.000000   -0.000000    0.000000
   17.660173    0.369124    0.369124    0.369124    0.000000   -0.000000    0.000000
   17.681736    0.371018    0.371018    0.371018    0.000000   -0.000000    0.000000
   17.703299    0.372898    0.372898    0.372898    0.000000   -0.000000    0.000000
   17.724862    0.374765    0.374765    0.374765    0.000000   -0.000000    0.000000
   17.746425    0.376618    0.376618    0.376618    0.000000   -0.000000    0.000000
   17.767988    0.378459    0.378459    0.378459    0.000000   -0.000000    0.000000
   17.789552    0.380287    0.380287    0.380287    0.000000   -0.000000    0.000000
   17.811115    0.382102    0.382102    0.382102    0.000000   -0.000000    0.000000
   17.832678    0.383906    0.383906    0.383906    0.000000   -0.000000    0.000000
   17.854241    0.385698    0.385698    0.385698    0.000000   -0.000000    0.000000
   17.875804    0.387479    0.387479    0.387479    0.000000   -0.000000    0.000000
   17.897367    0.389249    0.389249    0.389249    0.000000   -0.000000    0.000000
   17.918930    0.391007    0.391007    0.391007    0.000000   -0.000000    0.000000
   17.940493    0.392755    0.392755    0.392755    0.000000   -0.000000    0.000000
   17.962056    0.394492    0.394492    0.394492    0.000000   -0.000000    0.000000
   17.983619    0.396219    0.396219    0.396219    0.000000   -0.000000    0.000000
   18.005182    0.397936    0.397936    0.397936    0.000000   -0.000000    0.000000
   18.026746    0.399643    0.399643    0.399643    0.000000   -0.000000    0.000000
   18.048309    0.401340    0.401340    0.401340    0.000000   -0.000000    0.000000
   18.069872    0.403028    0.403028    0.403028    0.000000   -0.000000    0.000000
   18.091435    0.404706    0.404706    0.404706    0.000000   -0.000000    0.000000
   18.112998    0.406374    0.406374    0.406374    0.000000   -0.000000    0.000000
   18.134561    0.408034    0.408034    0.408034    0.000000   -0.000000    0.000000
   18.156124    0.409684    0.409684    0.409684    0.000000   -0.000000    0.000000
   18.177687    0.411325    0.411325    0.411325    0.000000   -0.000000    0.000000
   18.199250    0.412958    0.412958    0.412958    0.000000   -0.000000    0.000000
   18.220813    0.414582    0.414582    0.414582    0.000000   -0.000000    0.000000
   18.242376    0.416197    0.416197    0.416197    0.000000   -0.000000    0.000000
   18.263940    0.417804    0.417804    0.417804    0.000000   -0.000000    0.000000
   18.285503    0.419403    0.419403    0.419403    0.000000   -0.000000    0.000000
   18.307066    0.420993    0.420993    0.420993    0.000000   -0.000000    0.000000
   18.328629    0.422575    0.422575    0.422575    0.000000   -0.000000    0.000000
   18.350192    0.424149    0.424149    0.424149    0.000000   -0.000000    0.000000
   18.371755    0.425715    0.425715    0.425715    0.000000   -0.000000    0.000000
   18.393318    0.427274    0.427274    0.427274    0.000000   -0.000000    0.000000
   18.414881    0.428824    0.428824    0.428824    0.000000   -0.000000    0.000000
   18.436444    0.430367    0.430367    0.430367    0.000000   -0.000000    0.000000
   18.458007    0.431902    0.431902    0.431902    0.000000   -0.000000    0.000000
   18.479570    0.433430    0.433430    0.433430    0.000000   -0.000000    0.000000
   18.501134    0.434950    0.434950    0.434950    0.000000   -0.000000    0.000000
   18.522697    0.436463    0.436463    0.436463    0.000000   -0.000000    0.000000
   18.544260    0.437969    0.437969    0.437969    0.000000   -0.000000    0.000000
   18.565823    0.439468    0.439468    0.439468    0.000000   -0.000000    0.000000
   18.587386    0.440959    0.440959    0.440959    0.000000   -0.000000    0.000000
   18.608949    0.442443    0.442443    0.442443    0.000000   -0.000000    0.000000
   18.630512    0.443921    0.443921    0.443921    0.000000   -0.000000    0.000000
   18.652075    0.445391    0.445391    0.445391    0.000000   -0.000000    0.000000
   18.673638    0.446854    0.446854    0.446854    0.000000   -0.000000    0.000000
   18.695201    0.448311    0.448311    0.448311    0.000000   -0.000000    0.000000
   18.716765    0.449761    0.449761    0.449761    0.000000   -0.000000    0.000000
   18.738328    0.451204    0.451204    0.451204    0.000000   -0.000000    0.000000
   18.759891    0.452641    0.452641    0.452641    0.000000   -0.000000    0.000000
   18.781454    0.454071    0.454071    0.454071    0.000000   -0.000000    0.000000
   18.803017    0.455495    0.455495    0.455495    0.000000   -0.000000    0.000000
   18.824580    0.456912    0.456912    0.456912    0.000000   -0.000000    0.000000
   18.846143    0.458323    0.458323    0.458323    0.000000   -0.000000    0.000000
   18.867706    0.459728    0.459728    0.459728    0.000000   -0.000000    0.000000
   18.889269    0.461126    0.461126    0.461126    0.000000   -0.000000    0.000000
   18.910832    0.462518    0.462518    0.462518    0.000000   -0.000000    0.000000
   18.932395    0.463904    0.463904    0.463904    0.000000   -0.000000    0.000000
   18.953959    0.465284    0.465284    0.465284    0.000000   -0.000000    0.000000
   18.975522    0.466658    0.466658    0.466658    0.000000   -0.000000    0.000000
   18.997085    0.468025    0.468025    0.468025    0.000000   -0.000000    0.000000
   19.018648    0.469387    0.469387    0.469387    0.000000   -0.000000    0.000000
   19.040211    0.470743    0.470743    0.470743    0.000000   -0.000000    0.000000
   19.061774    0.472093    0.472093    0.472093    0.000000   -0.000000    0.000000
   19.083337    0.473437    0.473437    0.473437    0.000000   -0.000000    0.000000
   19.104900    0.474775    0.474775    0.474775    0.000000   -0.000000    0.000000
   19.126463    0.476108    0.476108    0.476108    0.000000   -0.000000    0.000000
   19.148026    0.477435    0.477435    0.477435    0.000000   -0.000000    0.000000
   19.169589    0.478756    0.478756    0.478756    0.000000   -0.000000    0.000000
   19.191153    0.480071    0.480071    0.480071    0.000000   -0.000000    0.000000
   19.212716    0.481382    0.481382    0.481382    0.000000   -0.000000    0.000000
   19.234279    0.482686    0.482686    0.482686    0.000000   -0.000000    0.000000
   19.255842    0.483985    0.483985    0.483985    0.000000   -0.000000    0.000000
   19.277405    0.485279    0.485279    0.485279    0.000000   -0.000000    0.000000
   19.298968    0.486567    0.486567    0.486567    0.000000   -0.000000    0.000000
   19.320531    0.487850    0.487850    0.487850    0.000000   -0.000000    0.000000
   19.342094    0.489127    0.489127    0.489127    0.000000   -0.000000    0.000000
   19.363657    0.490399    0.490399    0.490399    0.000000   -0.000000    0.000000
   19.385220    0.491666    0.491666    0.491666    0.000000   -0.000000    0.000000
   19.406783    0.492928    0.492928    0.492928    0.000000   -0.000000    0.000000
   19.428347    0.494184    0.494184    0.494184    0.000000   -0.000000    0.000000
   19.449910    0.495436    0.495436    0.495436    0.000000   -0.000000    0.000000
   19.471473    0.496682    0.496682    0.496682    0.000000   -0.000000    0.000000
   19.493036    0.497923    0.497923    0.497923    0.000000   -0.000000    0.000000
   19.514599    0.499159    0.499159    0.499159    0.000000   -0.000000    0.000000
   19.536162    0.500390    0.500390    0.500390    0.000000   -0.000000    0.000000
   19.557725    0.501617    0.501617    0.501617    0.000000   -0.000000    0.000000
   19.579288    0.502838    0.502838    0.502838    0.000000   -0.000000    0.000000
   19.600851    0.504054    0.504054    0.504054    0.000000   -0.000000    0.000000
   19.622414    0.505265    0.505265    0.505265    0.000000   -0.000000    0.000000
   19.643977    0.506472    0.506472    0.506472    0.000000   -0.000000    0.000000
   19.665541    0.507674    0.507674    0.507674    0.000000   -0.000000    0.000000
   19.687104    0.508871    0.508871    0.508871    0.000000   -0.000000    0.000000
   19.708667    0.510063    0.510063    0.510063    0.000000   -0.000000    0.000000
   19.730230    0.511250    0.511250    0.511250    0.000000   -0.000000    0.000000
   19.751793    0.512433    0.512433    0.512433    0.000000   -0.000000    0.000000
   19.773356    0.513611    0.513611    0.513611    0.000000   -0.000000    0.000000
   19.794919    0.514785    0.514785    0.514785    0.000000   -0.000000    0.000000
   19.816482    0.515954    0.515954    0.515954    0.000000   -0.000000    0.000000
   19.838045    0.517118    0.517118    0.517118    0.000000   -0.000000    0.000000
   19.859608    0.518278    0.518278    0.518278    0.000000   -0.000000    0.000000
   19.881172    0.519433    0.519433    0.519433    0.000000   -0.000000    0.000000
   19.902735    0.520583    0.520583    0.520583    0.000000   -0.000000    0.000000
   19.924298    0.521730    0.521730    0.521730    0.000000   -0.000000    0.000000
   19.945861    0.522872    0.522872    0.522872    0.000000   -0.000000    0.000000
   19.967424    0.524009    0.524009    0.524009    0.000000   -0.000000    0.000000
   19.988987    0.525142    0.525142    0.525142    0.000000   -0.000000    0.000000
   20.010550    0.526271    0.526271    0.526271    0.000000   -0.000000    0.000000
   20.032113    0.527395    0.527395    0.527395    0.000000   -0.000000    0.000000
   20.053676    0.528515    0.528515    0.528515    0.000000   -0.000000    0.000000
   20.075239    0.529631    0.529631    0.529631    0.000000   -0.000000    0.000000
   20.096802    0.530742    0.530742    0.530742    0.000000   -0.000000    0.000000
   20.118366    0.531849    0.531849    0.531849    0.000000   -0.000000    0.000000
   20.139929    0.532952    0.532952    0.532952    0.000000   -0.000000    0.000000
   20.161492    0.534051    0.534051    0.534051    0.000000   -0.000000    0.000000
   20.183055    0.535146    0.535146    0.535146    0.000000   -0.000000    0.000000
   20.204618    0.536237    0.536237    0.536237    0.000000   -0.000000    0.000000
   20.226181    0.537323    0.537323    0.537323    0.000000   -0.000000    0.000000
   20.247744    0.538405    0.538405    0.538405    0.000000   -0.000000    0.000000
   20.269307    0.539484    0.539484    0.539484    0.000000   -0.000000    0.000000
   20.290870    0.540558    0.540558    0.540558    0.000000   -0.000000    0.000000
   20.312433    0.541628    0.541628    0.541628    0.000000   -0.000000    0.000000
   20.333996    0.542694    0.542694    0.542694    0.000000   -0.000000    0.000000
   20.355560    0.543757    0.543757    0.543757    0.000000   -0.000000    0.000000
   20.377123    0.544815    0.544815    0.544815    0.000000   -0.000000    0.000000
   20.398686    0.545869    0.545869    0.545869    0.000000   -0.000000    0.000000
   20.420249    0.546920    0.546920    0.546920    0.000000   -0.000000    0.000000
   20.441812    0.547967    0.547967    0.547967    0.000000   -0.000000    0.000000
   20.463375    0.549009    0.549009    0.549009    0.000000   -0.000000    0.000000
   20.484938    0.550048    0.550048    0.550048    0.000000   -0.000000    0.000000
   20.506501    0.551083    0.551083    0.551083    0.000000   -0.000000    0.000000
   20.528064    0.552115    0.552115    0.552115    0.000000   -0.000000    0.000000
   20.549627    0.553142    0.553142    0.553142    0.000000   -0.000000    0.000000
   20.571190    0.554166    0.554166    0.554166    0.000000   -0.000000    0.000000
   20.592754    0.555186    0.555186    0.555186    0.000000   -0.000000    0.000000
   20.614317    0.556203    0.556203    0.556203    0.000000   -0.000000    0.000000
   20.635880    0.557215    0.557215    0.557215    0.000000   -0.000000    0.000000
   20.657443    0.558224    0.558224    0.558224    0.000000   -0.000000    0.000000
   20.679006    0.559229    0.559229    0.559229    0.000000   -0.000000    0.000000
   20.700569    0.560231    0.560231    0.560231    0.000000   -0.000000    0.000000
   20.722132    0.561229    0.561229    0.561229    0.000000   -0.000000    0.000000
   20.743695    0.562224    0.562224    0.562224    0.000000   -0.000000    0.000000
   20.765258    0.563215    0.563215    0.563215    0.000000   -0.000000    0.000000
   20.786821    0.564202    0.564202    0.564202    0.000000   -0.000000    0.000000
   20.808385    0.565186    0.565186    0.565186    0.000000   -0.000000    0.000000
   20.829948    0.566166    0.566166    0.566166    0.000000   -0.000000    0.000000
   20.851511    0.567143    0.567143    0.567143    0.000000   -0.000000    0.000000
   20.873074    0.568116    0.568116    0.568116    0.000000   -0.000000    0.000000
   20.894637    0.569086    0.569086    0.569086    0.000000   -0.000000    0.000000
   20.916200    0.570052    0.570052    0.570052    0.000000   -0.000000    0.000000
   20.937763    0.571015    0.571015    0.571015    0.000000   -0.000000    0.000000
   20.959326    0.571975    0.571975    0.571975    0.000000   -0.000000    0.000000
   20.980889    0.572931    0.572931    0.572931    0.000000   -0.000000    0.000000
   21.002452    0.573884    0.573884    0.573884    0.000000   -0.000000    0.000000
   21.024015    0.574833    0.574833    0.574833    0.000000   -0.000000    0.000000
   21.045579    0.575779    0.575779    0.575779    0.000000   -0.000000    0.000000
   21.067142    0.576722    0.576722    0.576722    0.000000   -0.000000    0.000000
   21.088705    0.577661    0.577661    0.577661    0.000000   -0.000000    0.000000
   21.110268    0.578598    0.578598    0.578598    0.000000   -0.000000    0.000000
   21.131831    0.579531    0.579531    0.579531    0.000000   -0.000000    0.000000
   21.153394    0.580460    0.580460    0.580460    0.000000   -0.000000    0.000000
   21.174957    0.581387    0.581387    0.581387    0.000000   -0.000000    0.000000
   21.196520    0.582310    0.582310    0.582310    0.000000   -0.000000    0.000000
   21.218083    0.583230    0.583230    0.583230    0.000000   -0.000000    0.000000
   21.239646    0.584147    0.584147    0.584147    0.000000   -0.000000    0.000000
   21.261209    0.585060    0.585060    0.585060    0.000000   -0.000000    0.000000
   21.282773    0.585971    0.585971    0.585971    0.000000   -0.000000    0.000000
   21.304336    0.586878    0.586878    0.586878    0.000000   -0.000000    0.000000
   21.325899    0.587782    0.587782    0.587782    0.000000   -0.000000    0.000000
   21.347462    0.588683    0.588683    0.588683    0.000000   -0.000000    0.000000
   21.369025    0.589581    0.589581    0.589581    0.000000   -0.000000    0.000000
   21.390588    0.590476    0.590476    0.590476    0.000000   -0.000000    0.000000
   21.412151    0.591368    0.591368    0.591368    0.000000   -0.000000    0.000000
   21.433714    0.592257    0.592257    0.592257    0.000000   -0.000000    0.000000
   21.455277    0.593142    0.593142    0.593142    0.000000   -0.000000    0.000000
   21.476840    0.594025    0.594025    0.594025    0.000000   -0.000000    0.000000
   21.498403    0.594905    0.594905    0.594905    0.000000   -0.000000    0.000000
   21.519967    0.595782    0.595782    0.595782    0.000000   -0.000000    0.000000
   21.541530    0.596655    0.596655    0.596655    0.000000   -0.000000    0.000000
 
 The outermost node in the dielectric function lies at epsilon=  15.1


--------------------------------------------------------------------------------------------------------


    OPTICS:  cpu time      0.1822: real time      0.1955
    4ORBIT:  cpu time      0.0000: real time      0.0000
 BZINTS: Fermi energy:    2.889591;   32.000000 electrons
         Band energy:-0.798414E+02;  BLOECHL correction:    0.000000

 total amount of memory used by VASP MPI-rank0    46865. kBytes
=======================================================================

   base      :      30000. kBytes
   nonl-proj :      10086. kBytes
   fftplans  :       1270. kBytes
   grid      :       3203. kBytes
   one-center:         64. kBytes
   wavefun   :       2242. kBytes
 
  
  
 General timing and accounting informations for this job:
 ========================================================
  
                  Total CPU time used (sec):        4.395
                            User time (sec):        2.780
                          System time (sec):        1.615
                         Elapsed time (sec):        5.416
  
                   Maximum memory used (kb):      141748.
                   Average memory used (kb):          N/A
  
                          Minor page faults:        14516
                          Major page faults:          117
                 Voluntary context switches:         2240
