<?xml version="1.0" encoding="ISO-8859-1"?>
<modeling>
 <generator>
  <i name="program" type="string">vasp </i>
  <i name="version" type="string">6.4.3  </i>
  <i name="subversion" type="string">19Mar24 (build Aug 29 2024 15:27:20) complex                          parallel </i>
  <i name="platform" type="string">LinuxIFC </i>
  <i name="date" type="string">2025 03 19 </i>
  <i name="time" type="string">10:34:00 </i>
 </generator>
 <incar>
  <i type="string" name="SYSTEM">GaAs</i>
  <i type="string" name="PREC">Normal</i>
  <i type="int" name="IBRION">     2</i>
  <i name="ENCUT">    500.00000000</i>
  <i type="int" name="ISMEAR">    -5</i>
  <i name="SIGMA">      0.10000000</i>
  <i type="logical" name="LOPTICS"> T  </i>
 </incar>
 <primitive_cell>
  <structure name="primitive_cell" >
   <crystal>
    <varray name="basis" >
     <v>       2.81680357      -2.81680357       0.00000000 </v>
     <v>       2.81680357       0.00000000       2.81680357 </v>
     <v>       0.00000000      -2.81680357       2.81680357 </v>
    </varray>
    <i name="volume">     44.69919294 </i>
    <varray name="rec_basis" >
     <v>       0.17750617      -0.17750617      -0.17750617 </v>
     <v>       0.17750617       0.17750617       0.17750617 </v>
     <v>      -0.17750617      -0.17750617       0.17750617 </v>
    </varray>
   </crystal>
   <varray name="positions" >
    <v>       0.00000000       0.00000000       0.00000000 </v>
    <v>       0.75000000       0.75000000       0.75000000 </v>
   </varray>
  </structure>
  <varray name="primitive_index" >
   <v type="int" >        1 </v>
   <v type="int" >        5 </v>
  </varray>
 </primitive_cell>
 <kpoints>
  <generation param="Gamma">
   <v type="int" name="divisions">       5        5        5 </v>
   <v name="usershift">      0.00000000       0.00000000       0.00000000 </v>
   <v name="genvec1">      0.20000000       0.00000000       0.00000000 </v>
   <v name="genvec2">      0.00000000       0.20000000       0.00000000 </v>
   <v name="genvec3">      0.00000000       0.00000000       0.20000000 </v>
   <v name="shift">      0.00000000       0.00000000       0.00000000 </v>
  </generation>
  <varray name="kpointlist" >
   <v>       0.00000000       0.00000000       0.00000000 </v>
   <v>       0.20000000       0.00000000       0.00000000 </v>
   <v>       0.40000000       0.00000000       0.00000000 </v>
   <v>       0.20000000       0.20000000       0.00000000 </v>
   <v>       0.40000000       0.20000000       0.00000000 </v>
   <v>       0.40000000       0.40000000       0.00000000 </v>
   <v>       0.20000000       0.20000000       0.20000000 </v>
   <v>       0.40000000       0.20000000       0.20000000 </v>
   <v>       0.40000000       0.40000000       0.20000000 </v>
   <v>       0.40000000       0.40000000       0.40000000 </v>
  </varray>
  <varray name="weights" >
   <v>       0.00800000 </v>
   <v>       0.04800000 </v>
   <v>       0.04800000 </v>
   <v>       0.09600000 </v>
   <v>       0.19200000 </v>
   <v>       0.09600000 </v>
   <v>       0.06400000 </v>
   <v>       0.19200000 </v>
   <v>       0.19200000 </v>
   <v>       0.06400000 </v>
  </varray>
  <varray name="tetrahedronlist"  type="int" >
   <v type="int" >       12        7        8        8        9 </v>
   <v type="int" >       18        8        8        9        9 </v>
   <v type="int" >       24        8        9        9       10 </v>
   <v type="int" >       12        8        9        9        9 </v>
   <v type="int" >       24        9        9        9       10 </v>
   <v type="int" >       18        9        9       10       10 </v>
   <v type="int" >       24        4        5        7        8 </v>
   <v type="int" >       12        5        7        8        8 </v>
   <v type="int" >       24        5        8        8        9 </v>
   <v type="int" >       24        4        5        5        8 </v>
   <v type="int" >       24        5        5        6        8 </v>
   <v type="int" >       12        5        6        8        9 </v>
   <v type="int" >       12        9       10       10       10 </v>
   <v type="int" >       12        8        8        9       10 </v>
   <v type="int" >       12        8        9       10       10 </v>
   <v type="int" >       12        5        5        8        9 </v>
   <v type="int" >       12        5        8        9        9 </v>
   <v type="int" >       12        5        5        6        9 </v>
   <v type="int" >       12        5        6        6        9 </v>
   <v type="int" >       12        5        6        9        9 </v>
   <v type="int" >       12        5        6        8        8 </v>
   <v type="int" >       12        5        6        6        8 </v>
   <v type="int" >       12        6        8        8        9 </v>
   <v type="int" >       12        6        8        9        9 </v>
   <v type="int" >       12        6        6        8        9 </v>
   <v type="int" >       12        7        8        9       10 </v>
   <v type="int" >       12        4        5        8        9 </v>
   <v type="int" >       12        4        7        8        9 </v>
   <v type="int" >       12        4        5        6        9 </v>
   <v type="int" >       12        5        6        7        8 </v>
   <v type="int" >       12        4        5        6        7 </v>
   <v type="int" >       12        6        7        8        9 </v>
   <v type="int" >       12        2        4        7        8 </v>
   <v type="int" >       12        2        4        5        8 </v>
   <v type="int" >       12        2        3        5        8 </v>
   <v type="int" >       12        4        4        5        7 </v>
   <v type="int" >       12        2        4        4        5 </v>
   <v type="int" >       12        2        3        4        5 </v>
   <v type="int" >       12        3        4        5        5 </v>
   <v type="int" >       12        2        3        4        7 </v>
   <v type="int" >       12        3        4        5        7 </v>
   <v type="int" >       12        3        5        7        8 </v>
   <v type="int" >        6       10       10       10       10 </v>
   <v type="int" >       12        6        6        9        9 </v>
   <v type="int" >       12        6        9        9        9 </v>
   <v type="int" >       12        6        6        6        9 </v>
   <v type="int" >       12        3        5        8        8 </v>
   <v type="int" >       12        3        5        5        8 </v>
   <v type="int" >       12        3        3        5        8 </v>
   <v type="int" >       12        5        5        5        8 </v>
   <v type="int" >       12        3        5        5        5 </v>
   <v type="int" >        6        3        3        5        5 </v>
   <v type="int" >        6        5        5        8        8 </v>
   <v type="int" >       12        2        4        4        7 </v>
   <v type="int" >       12        2        2        4        4 </v>
   <v type="int" >       12        1        2        2        4 </v>
   <v type="int" >       12        1        2        4        7 </v>
  </varray>
  <i name="volumeweight">      0.00133333 </i>
 </kpoints>
 <parameters>
  <separator name="general" >
   <i type="string" name="SYSTEM">GaAs</i>
   <i type="logical" name="LCOMPAT"> F  </i>
  </separator>
  <separator name="electronic" >
   <i type="string" name="PREC">normal</i>
   <i name="ENMAX">    500.00000000</i>
   <i name="ENAUG">    462.75800000</i>
   <i name="EDIFF">      0.00010000</i>
   <i type="int" name="IALGO">    38</i>
   <i type="int" name="IWAVPR">    10</i>
   <i type="int" name="NBANDS">    24</i>
   <i type="int" name="NBANDSLOW">    -1</i>
   <i type="int" name="NBANDSHIGH">    -1</i>
   <i name="NELECT">     32.00000000</i>
   <i type="int" name="TURBO">     0</i>
   <i type="int" name="IRESTART">     0</i>
   <i type="int" name="NREBOOT">     0</i>
   <i type="int" name="NMIN">     0</i>
   <i name="EREF">      0.00000000</i>
   <separator name="electronic smearing" >
    <i type="int" name="ISMEAR">    -5</i>
    <i name="SIGMA">      0.10000000</i>
    <i name="KSPACING">      0.50000000</i>
    <i type="logical" name="KGAMMA"> T  </i>
    <i type="logical" name="KBLOWUP"> T  </i>
   </separator>
   <separator name="electronic projectors" >
    <i type="logical" name="LREAL"> F  </i>
    <v name="ROPT">      0.00000000      0.00000000</v>
    <i type="int" name="LMAXPAW">  -100</i>
    <i type="int" name="LMAXMIX">     2</i>
    <i type="logical" name="NLSPLINE"> F  </i>
   </separator>
   <separator name="electronic startup" >
    <i type="int" name="ISTART">     1</i>
    <i type="int" name="ICHARG">     0</i>
    <i type="int" name="INIWAV">     1</i>
   </separator>
   <separator name="electronic spin" >
    <i type="int" name="ISPIN">     1</i>
    <i type="logical" name="LNONCOLLINEAR"> F  </i>
    <v name="MAGMOM">      1.00000000      1.00000000      1.00000000      1.00000000      1.00000000      1.00000000      1.00000000      1.00000000</v>
    <i name="NUPDOWN">     -1.00000000</i>
    <i type="logical" name="LSORBIT"> F  </i>
    <v name="SAXIS">      0.00000000      0.00000000      1.00000000</v>
    <i type="logical" name="LSPIRAL"> F  </i>
    <v name="QSPIRAL">      0.00000000      0.00000000      0.00000000</v>
    <i type="logical" name="LZEROZ"> F  </i>
   </separator>
   <separator name="electronic exchange-correlation" >
    <i type="logical" name="LASPH"> F  </i>
   </separator>
   <separator name="electronic convergence" >
    <i type="int" name="NELM">    60</i>
    <i type="int" name="NELMDL">     0</i>
    <i type="int" name="NELMIN">     2</i>
    <i name="ENINI">    500.00000000</i>
    <separator name="electronic convergence detail" >
     <i type="logical" name="LDIAG"> T  </i>
     <i type="logical" name="LSUBROT"> F  </i>
     <i name="WEIMIN">      0.00000000</i>
     <i name="EBREAK">      0.00000104</i>
     <i name="DEPER">      0.30000000</i>
     <i type="int" name="NRMM">     4</i>
     <i name="TIME">      0.40000000</i>
    </separator>
   </separator>
   <separator name="electronic mixer" >
    <i name="AMIX">      0.40000000</i>
    <i name="BMIX">      1.00000000</i>
    <i name="AMIN">      0.10000000</i>
    <i name="AMIX_MAG">      1.60000000</i>
    <i name="BMIX_MAG">      1.00000000</i>
    <separator name="electronic mixer details" >
     <i type="int" name="IMIX">     4</i>
     <i type="logical" name="MIXFIRST"> F  </i>
     <i type="int" name="MAXMIX">   -45</i>
     <i name="WC">    100.00000000</i>
     <i type="int" name="INIMIX">     1</i>
     <i type="int" name="MIXPRE">     1</i>
     <i type="int" name="MREMOVE">     5</i>
    </separator>
   </separator>
   <separator name="electronic dipolcorrection" >
    <i type="logical" name="LDIPOL"> F  </i>
    <i type="logical" name="LMONO"> F  </i>
    <i type="int" name="IDIPOL">     0</i>
    <i name="EPSILON">      1.00000000</i>
    <v name="DIPOL">   -100.00000000   -100.00000000   -100.00000000</v>
    <i name="EFIELD">      0.00000000</i>
    <i type="logical" name="LVACPOTAV"> F  </i>
   </separator>
  </separator>
  <separator name="grids" >
   <i type="int" name="NGX">    32</i>
   <i type="int" name="NGY">    32</i>
   <i type="int" name="NGZ">    32</i>
   <i type="int" name="NGXF">    64</i>
   <i type="int" name="NGYF">    64</i>
   <i type="int" name="NGZF">    64</i>
   <i type="logical" name="ADDGRID"> F  </i>
  </separator>
  <separator name="ionic" >
   <i type="int" name="NSW">     0</i>
   <i type="int" name="IBRION">    -1</i>
   <i type="int" name="MDALGO">     0</i>
   <i type="int" name="ISIF">     2</i>
   <i name="PSTRESS">      0.00000000</i>
   <i name="EDIFFG">      0.00100000</i>
   <i type="int" name="NFREE">     1</i>
   <i name="POTIM">      0.50000000</i>
   <i name="SMASS">     -3.00000000</i>
   <i name="SCALEE">      1.00000000</i>
  </separator>
  <separator name="ionic md" >
   <i name="TEBEG">      0.00010000</i>
   <i name="TEEND">      0.00010000</i>
   <i type="int" name="NBLOCK">     1</i>
   <i type="int" name="KBLOCK">     1</i>
   <i type="int" name="NPACO">   256</i>
   <i name="APACO">     10.00000000</i>
  </separator>
  <separator name="symmetry" >
   <i type="int" name="ISYM">     2</i>
   <i name="SYMPREC">      0.00001000</i>
  </separator>
  <separator name="dos" >
   <i type="int" name="LORBIT">     0</i>
   <v name="RWIGS">     -1.00000000     -1.00000000</v>
   <i type="int" name="NEDOS">   301</i>
   <i name="EMIN">     10.00000000</i>
   <i name="EMAX">    -10.00000000</i>
   <i name="EFERMI">      0.00000000</i>
  </separator>
  <separator name="writing" >
   <i type="int" name="NWRITE">     2</i>
   <i type="logical" name="LWAVE"> T  </i>
   <i type="logical" name="LDOWNSAMPLE"> F  </i>
   <i type="logical" name="LCHARG"> T  </i>
   <i type="logical" name="LPARD"> F  </i>
   <i type="logical" name="LVTOT"> F  </i>
   <i type="logical" name="LVHAR"> F  </i>
   <i type="logical" name="LELF"> F  </i>
   <i type="logical" name="LOPTICS"> T  </i>
   <v name="STM">      0.00000000      0.00000000      0.00000000      0.00000000      0.00000000      0.00000000      0.00000000</v>
  </separator>
  <separator name="performance" >
   <i type="int" name="NPAR">     8</i>
   <i type="int" name="NSIM">     4</i>
   <i type="int" name="NBLK">    -1</i>
   <i type="logical" name="LPLANE"> T  </i>
   <i type="logical" name="LSCALAPACK"> T  </i>
   <i type="logical" name="LSCAAWARE"> F  </i>
   <i type="logical" name="LSCALU"> F  </i>
   <i type="logical" name="LASYNC"> F  </i>
   <i type="logical" name="LORBITALREAL"> F  </i>
  </separator>
  <separator name="miscellaneous" >
   <i type="int" name="IDIOT">     3</i>
   <i type="int" name="PHON_NSTRUCT">    -1</i>
   <i type="logical" name="LMUSIC"> F  </i>
   <v name="POMASS">     74.92200000     69.72300000</v>
   <v name="DARWINR">      0.00000000      0.00000000</v>
   <v name="DARWINV">      1.00000000      1.00000000</v>
   <i type="logical" name="LCORR"> T  </i>
  </separator>
  <i type="logical" name="GGA_COMPAT"> T  </i>
  <i type="logical" name="LBERRY"> F  </i>
  <i type="int" name="ICORELEVEL">     0</i>
  <i type="logical" name="LDAU"> F  </i>
  <i type="int" name="I_CONSTRAINED_M">     0</i>
  <separator name="electronic exchange-correlation" >
   <i type="string" name="GGA    ">PE</i>
   <i type="string" name="XC_C">1</i>
   <i type="int" name="VOSKOWN">     0</i>
   <i type="logical" name="LHFCALC"> F  </i>
   <i type="string" name="PRECFOCK"></i>
   <i type="logical" name="LSYMGRAD"> F  </i>
   <i type="logical" name="LHFONE"> F  </i>
   <i type="logical" name="LRHFCALC"> F  </i>
   <i type="logical" name="LTHOMAS"> F  </i>
   <i type="logical" name="LMODELHF"> F  </i>
   <i type="logical" name="LFOCKACE"> F  </i>
   <i name="ENCUT4O">     -1.00000000</i>
   <i type="int" name="EXXOEP">     0</i>
   <i type="int" name="FOURORBIT">     0</i>
   <i name="AEXX">      0.00000000</i>
   <i name="HFALPHA">      0.00000000</i>
   <i name="MCALPHA">      0.00000000</i>
   <i name="ALDAX">      1.00000000</i>
   <i name="AGGAX">      1.00000000</i>
   <i name="AMGGAX">      1.00000000</i>
   <i name="ALDAC">      1.00000000</i>
   <i name="AGGAC">      1.00000000</i>
   <i name="AMGGAC">      1.00000000</i>
   <i type="int" name="NKREDX">     1</i>
   <i type="int" name="NKREDY">     1</i>
   <i type="int" name="NKREDZ">     1</i>
   <i type="logical" name="SHIFTRED"> F  </i>
   <i type="logical" name="ODDONLY"> F  </i>
   <i type="logical" name="EVENONLY"> F  </i>
   <i type="int" name="LMAXFOCK">     0</i>
   <i type="int" name="NMAXFOCKAE">     0</i>
   <i type="logical" name="LFOCKAEDFT"> F  </i>
   <i name="HFSCREEN">      0.00000000</i>
   <i name="HFSCREENC">      0.00000000</i>
   <i type="int" name="NBANDSGWLOW">     0</i>
  </separator>
  <separator name="vdW DFT" >
   <i type="logical" name="LUSE_VDW"> F  </i>
   <i type="int" name="IVDW_NL">    -1</i>
   <i type="logical" name="LSPIN_VDW"> F  </i>
   <i name="ZAB_VDW">     -0.84910000</i>
   <i name="GAMMA_VDW">      1.39626340</i>
   <i name="ALPHA_VDW">      0.00000000</i>
   <i name="PARAM1">      0.12340000</i>
   <i name="PARAM2">      1.00000000</i>
   <i name="BPARAM">      6.30000000</i>
   <i name="CPARAM">      0.00930000</i>
  </separator>
  <separator name="model GW" >
   <i type="int" name="MODEL_GW">     0</i>
   <i name="MODEL_EPS0">     13.40975788</i>
   <i name="MODEL_ALPHA">      1.00000000</i>
  </separator>
  <separator name="linear response parameters" >
   <i type="logical" name="LEPSILON"> F  </i>
   <i type="logical" name="LRPA"> F  </i>
   <i type="logical" name="LNABLA"> F  </i>
   <i type="logical" name="LVEL"> F  </i>
   <i name="CSHIFT">      0.10000000</i>
   <i name="OMEGAMAX">     -1.00000000</i>
   <i name="DEG_THRESHOLD">      0.00200000</i>
   <i name="RTIME">     -0.10000000</i>
   <i name="WPLASMAI">      0.00000000</i>
   <v name="DFIELD">      0.00000000      0.00000000      0.00000000</v>
   <v name="WPLASMA">      0.00000000      0.00000000      0.00000000      0.00000000      0.00000000      0.00000000      0.00000000      0.00000000      0.00000000</v>
  </separator>
  <separator name="orbital magnetization" >
   <i type="logical" name="NUCIND"> F  </i>
   <v name="MAGPOS">      0.00000000      0.00000000      0.00000000</v>
   <i type="logical" name="LNICSALL"> T  </i>
   <i type="logical" name="ORBITALMAG"> F  </i>
   <i type="logical" name="LMAGBLOCH"> F  </i>
   <i type="logical" name="LCHIMAG"> F  </i>
   <i type="logical" name="LGAUGE"> T  </i>
   <i type="int" name="MAGATOM">     0</i>
   <v name="MAGDIPOL">      0.00000000      0.00000000      0.00000000</v>
   <v name="AVECCONST">      0.00000000      0.00000000      0.00000000</v>
  </separator>
  <separator name="response functions" >
   <i type="logical" name="LALL_IN_ONE"> F  </i>
   <i type="int" name="IALL_IN_ONE">    -1</i>
   <i type="int" name="NBANDS_WAVE">    -1</i>
   <i type="logical" name="LFINITE_TEMPERATURE"> F  </i>
   <i type="logical" name="LADDER"> F  </i>
   <i type="logical" name="LRPAFORCE"> F  </i>
   <i type="logical" name="LFXC"> F  </i>
   <i type="logical" name="LHARTREE"> T  </i>
   <i type="int" name="IBSE">     0</i>
   <v type="int" name="KPOINT">    -1     0     0     0</v>
   <i type="logical" name="LTCTC"> F  </i>
   <i type="logical" name="LTCTE"> F  </i>
   <i type="logical" name="LTETE"> F  </i>
   <i type="logical" name="LTRIPLET"> F  </i>
   <i type="logical" name="LFXCEPS"> F  </i>
   <i type="logical" name="LFXHEG"> F  </i>
   <i type="int" name="NATURALO">     2</i>
   <i type="logical" name="LHOLEGF"> F  </i>
   <i type="logical" name="L2ORDER"> F  </i>
   <i type="logical" name="LDMP1"> F  </i>
   <i type="logical" name="LMP2LT"> F  </i>
   <i type="logical" name="LSMP2LT"> F  </i>
   <i type="logical" name="LGWLF"> F  </i>
   <i name="ENCUTGW">     -1.60000002</i>
   <i name="ENCUTGWSOFT">     -1.60000002</i>
   <i name="ENCUTLF">     -1.00000000</i>
   <i type="logical" name="ESF_SPLINES"> F  </i>
   <i name="ESF_CONV">      0.01000000</i>
   <i type="int" name="ESF_NINTER">    15</i>
   <i type="int" name="LMAXMP2">    -1</i>
   <i name="SCISSOR">      0.00000000</i>
   <i type="int" name="NOMEGA">     0</i>
   <i type="int" name="NOMEGAR">     0</i>
   <i type="int" name="NBANDSGW">    -1</i>
   <i type="int" name="NBANDSO">    -1</i>
   <i type="int" name="NBANDSV">    -1</i>
   <i type="int" name="NELMGW">     1</i>
   <i type="int" name="NELMHF">     1</i>
   <i type="int" name="DIM">     3</i>
   <i type="int" name="IESPILON">     4</i>
   <i type="int" name="ANTIRES">     0</i>
   <i name="OMEGAMAX">    -30.00000000</i>
   <i name="OMEGAMIN">    -30.00000000</i>
   <i name="OMEGATL">   -200.00000000</i>
   <i type="int" name="OMEGAGRID">     0</i>
   <i name="CSHIFT">     -0.10000000</i>
   <i type="logical" name="LSELFENERGY"> F  </i>
   <i type="logical" name="LSPECTRAL"> F  </i>
   <i type="logical" name="LSPECTRALGW"> F  </i>
   <i type="logical" name="LSINGLES"> F  </i>
   <i type="logical" name="LFERMIGW"> F  </i>
   <i type="logical" name="ODDONLYGW"> F  </i>
   <i type="logical" name="EVENONLYGW"> F  </i>
   <i type="int" name="NKREDLFX">     1</i>
   <i type="int" name="NKREDLFY">     1</i>
   <i type="int" name="NKREDLFZ">     1</i>
   <i type="int" name="MAXMEM">  2800</i>
   <i type="int" name="TELESCOPE">     0</i>
   <i type="int" name="NTAUPAR">    -1</i>
   <i type="int" name="NOMEGAPAR">    -1</i>
   <i name="DAMP_NEWTON">      0.80000001</i>
   <i name="LAMBDA">      1.00000000</i>
  </separator>
  <separator name="External order field" >
   <i name="OFIELD_KAPPA">      0.00000000</i>
   <v name="OFIELD_K">      0.00000000      0.00000000      0.00000000</v>
   <i name="OFIELD_Q6_NEAR">      0.00000000</i>
   <i name="OFIELD_Q6_FAR">      0.00000000</i>
   <i name="OFIELD_A">      0.00000000</i>
  </separator>
  <separator name="optional k-points parameters" >
   <i type="int" name="KPOINTS_OPT_MODE">     1</i>
   <i type="logical" name="LKPOINTS_OPT"> F  </i>
  </separator>
 </parameters>
 <atominfo>
  <atoms>       8 </atoms>
  <types>       2 </types>
  <array name="atoms" >
   <dimension dim="1">ion</dimension>
   <field type="string">element</field>
   <field type="int">atomtype</field>
   <set>
    <rc><c>As</c><c>   1</c></rc>
    <rc><c>As</c><c>   1</c></rc>
    <rc><c>As</c><c>   1</c></rc>
    <rc><c>As</c><c>   1</c></rc>
    <rc><c>Ga</c><c>   2</c></rc>
    <rc><c>Ga</c><c>   2</c></rc>
    <rc><c>Ga</c><c>   2</c></rc>
    <rc><c>Ga</c><c>   2</c></rc>
   </set>
  </array>
  <array name="atomtypes" >
   <dimension dim="1">type</dimension>
   <field type="int">atomspertype</field>
   <field type="string">element</field>
   <field>mass</field>
   <field>valence</field>
   <field type="string">pseudopotential</field>
   <set>
    <rc><c>   4</c><c>As</c><c>     74.92200000</c><c>      5.00000000</c><c>  PAW_PBE As 22Sep2009                  </c></rc>
    <rc><c>   4</c><c>Ga</c><c>     69.72300000</c><c>      3.00000000</c><c>  PAW_PBE Ga 08Apr2002                  </c></rc>
   </set>
  </array>
 </atominfo>
 <structure name="initialpos" >
  <crystal>
   <varray name="basis" >
    <v>       5.63360713       0.00000000       0.00000000 </v>
    <v>       0.00000000       5.63360713       0.00000000 </v>
    <v>       0.00000000       0.00000000       5.63360713 </v>
   </varray>
   <i name="volume">    178.79677174 </i>
   <varray name="rec_basis" >
    <v>       0.17750617       0.00000000       0.00000000 </v>
    <v>       0.00000000       0.17750617       0.00000000 </v>
    <v>       0.00000000       0.00000000       0.17750617 </v>
   </varray>
  </crystal>
  <varray name="positions" >
   <v>       0.00000000       0.00000000       0.00000000 </v>
   <v>       0.50000000       0.50000000       0.00000000 </v>
   <v>       0.50000000       0.00000000       0.50000000 </v>
   <v>       0.00000000       0.50000000       0.50000000 </v>
   <v>       0.25000000       0.25000000       0.25000000 </v>
   <v>       0.75000000       0.25000000       0.75000000 </v>
   <v>       0.75000000       0.75000000       0.25000000 </v>
   <v>       0.25000000       0.75000000       0.75000000 </v>
  </varray>
 </structure>
 <calculation>
  <scstep>
   <time name="dav">    0.27    0.29</time>
   <time name="total">    0.31    0.32</time>
   <energy>
    <i name="alphaZ">     76.53299488 </i>
    <i name="ewald">   -919.88900360 </i>
    <i name="hartreedc">    -79.56375838 </i>
    <i name="XCdc">   -120.77516963 </i>
    <i name="pawpsdc">   2324.03287790 </i>
    <i name="pawaedc">  -2145.11702810 </i>
    <i name="eentropy">      0.00000000 </i>
    <i name="bandstr">    -84.48394153 </i>
    <i name="atom">    916.21963040 </i>
    <i name="e_fr_energy">    -33.04339807 </i>
    <i name="e_wo_entrp">    -33.04339807 </i>
    <i name="e_0_energy">    -33.04339807 </i>
   </energy>
  </scstep>
  <scstep>
   <time name="dav">    0.26    0.27</time>
   <time name="total">    0.29    0.30</time>
   <energy>
    <i name="e_fr_energy">    -32.98175986 </i>
    <i name="e_wo_entrp">    -32.98175986 </i>
    <i name="e_0_energy">    -32.98175986 </i>
   </energy>
  </scstep>
  <scstep>
   <time name="dav">    0.26    0.27</time>
   <time name="total">    0.29    0.30</time>
   <energy>
    <i name="e_fr_energy">    -32.96301220 </i>
    <i name="e_wo_entrp">    -32.96301220 </i>
    <i name="e_0_energy">    -32.96301220 </i>
   </energy>
  </scstep>
  <scstep>
   <time name="dav">    0.26    0.27</time>
   <time name="total">    0.29    0.30</time>
   <energy>
    <i name="e_fr_energy">    -32.96140373 </i>
    <i name="e_wo_entrp">    -32.96140373 </i>
    <i name="e_0_energy">    -32.96140373 </i>
   </energy>
  </scstep>
  <scstep>
   <time name="dav">    0.27    0.28</time>
   <time name="total">    0.30    0.31</time>
   <energy>
    <i name="e_fr_energy">    -32.96124856 </i>
    <i name="e_wo_entrp">    -32.96124856 </i>
    <i name="e_0_energy">    -32.96124856 </i>
   </energy>
  </scstep>
  <scstep>
   <time name="dav">    0.19    0.20</time>
   <time name="total">    0.21    0.22</time>
   <energy>
    <i name="alphaZ">     76.53299488 </i>
    <i name="ewald">   -919.88900360 </i>
    <i name="hartreedc">    -83.86994369 </i>
    <i name="XCdc">   -120.91500278 </i>
    <i name="pawpsdc">   2045.01961770 </i>
    <i name="pawaedc">  -1866.21819978 </i>
    <i name="eentropy">      0.00000000 </i>
    <i name="bandstr">    -79.84135209 </i>
    <i name="atom">    916.21963040 </i>
    <i name="e_fr_energy">    -32.96125897 </i>
    <i name="e_wo_entrp">    -32.96125897 </i>
    <i name="e_0_energy">    -32.96125897 </i>
   </energy>
  </scstep>
  <structure>
   <crystal>
    <varray name="basis" >
     <v>       5.63360713       0.00000000       0.00000000 </v>
     <v>       0.00000000       5.63360713       0.00000000 </v>
     <v>       0.00000000       0.00000000       5.63360713 </v>
    </varray>
    <i name="volume">    178.79677174 </i>
    <varray name="rec_basis" >
     <v>       0.17750617       0.00000000       0.00000000 </v>
     <v>       0.00000000       0.17750617       0.00000000 </v>
     <v>       0.00000000       0.00000000       0.17750617 </v>
    </varray>
   </crystal>
   <varray name="positions" >
    <v>       0.00000000       0.00000000       0.00000000 </v>
    <v>       0.50000000       0.50000000       0.00000000 </v>
    <v>       0.50000000       0.00000000       0.50000000 </v>
    <v>       0.00000000       0.50000000       0.50000000 </v>
    <v>       0.25000000       0.25000000       0.25000000 </v>
    <v>       0.75000000       0.25000000       0.75000000 </v>
    <v>       0.75000000       0.75000000       0.25000000 </v>
    <v>       0.25000000       0.75000000       0.75000000 </v>
   </varray>
  </structure>
  <varray name="forces" >
   <v>      -0.00000000       0.00000000      -0.00000000 </v>
   <v>      -0.00000000       0.00000000      -0.00000000 </v>
   <v>      -0.00000000      -0.00000000      -0.00000000 </v>
   <v>       0.00000000       0.00000000       0.00000000 </v>
   <v>      -0.00000000      -0.00000000       0.00000000 </v>
   <v>       0.00000000      -0.00000000       0.00000000 </v>
   <v>      -0.00000000      -0.00000000      -0.00000000 </v>
   <v>       0.00000000       0.00000000       0.00000000 </v>
  </varray>
  <varray name="stress" >
   <v>      49.59787171      -0.00000000       0.00000000 </v>
   <v>       0.00000000      49.59787171      -0.00000000 </v>
   <v>      -0.00000000       0.00000000      49.59787171 </v>
  </varray>
  <energy>
   <i name="e_fr_energy">    -32.96125897 </i>
   <i name="e_wo_entrp">    -32.96125897 </i>
   <i name="e_0_energy">    -32.96125897 </i>
  </energy>
  <time name="totalsc">    2.36    2.48</time>
  <eigenvalues>
   <array>
    <dimension dim="1">band</dimension>
    <dimension dim="2">kpoint</dimension>
    <dimension dim="3">spin</dimension>
    <field>eigene</field>
    <field>occ</field>
    <set>
     <set comment="spin 1">
      <set comment="kpoint 1">
       <r>   -9.9454    1.0000 </r>
       <r>   -7.5416    1.0000 </r>
       <r>   -7.5416    1.0000 </r>
       <r>   -7.5416    1.0000 </r>
       <r>   -3.9984    1.0000 </r>
       <r>   -3.9984    1.0000 </r>
       <r>   -3.9984    1.0000 </r>
       <r>    0.1341    1.0000 </r>
       <r>    0.1341    1.0000 </r>
       <r>    0.1341    1.0000 </r>
       <r>    0.1341    1.0000 </r>
       <r>    0.1341    1.0000 </r>
       <r>    0.1341    1.0000 </r>
       <r>    2.8354    1.0000 </r>
       <r>    2.8354    1.0000 </r>
       <r>    2.8354    1.0000 </r>
       <r>    3.4964    0.0000 </r>
       <r>    4.2850    0.0000 </r>
       <r>    4.2850    0.0000 </r>
       <r>    4.2850    0.0000 </r>
       <r>    4.5087    0.0000 </r>
       <r>    4.5087    0.0000 </r>
       <r>    4.5087    0.0000 </r>
       <r>    6.6050    0.0000 </r>
      </set>
      <set comment="kpoint 2">
       <r>   -9.7992    1.0000 </r>
       <r>   -7.9530    1.0000 </r>
       <r>   -7.5261    1.0000 </r>
       <r>   -7.5261    1.0000 </r>
       <r>   -3.9335    1.0000 </r>
       <r>   -3.9335    1.0000 </r>
       <r>   -3.3880    1.0000 </r>
       <r>   -0.2096    1.0000 </r>
       <r>   -0.2096    1.0000 </r>
       <r>   -0.1353    1.0000 </r>
       <r>   -0.1353    1.0000 </r>
       <r>    0.2990    1.0000 </r>
       <r>    0.2990    1.0000 </r>
       <r>    1.3123    1.0000 </r>
       <r>    2.3722    1.0000 </r>
       <r>    2.3722    1.0000 </r>
       <r>    4.2604    0.0000 </r>
       <r>    4.9510    0.0000 </r>
       <r>    4.9547    0.0000 </r>
       <r>    5.0283    0.0000 </r>
       <r>    5.0283    0.0000 </r>
       <r>    5.2619    0.0000 </r>
       <r>    5.2619    0.0000 </r>
       <r>    6.1293    0.0000 </r>
      </set>
      <set comment="kpoint 3">
       <r>   -9.3721    1.0000 </r>
       <r>   -8.7097    1.0000 </r>
       <r>   -7.5004    1.0000 </r>
       <r>   -7.5004    1.0000 </r>
       <r>   -3.8155    1.0000 </r>
       <r>   -3.8155    1.0000 </r>
       <r>   -2.0442    1.0000 </r>
       <r>   -0.6827    1.0000 </r>
       <r>   -0.6827    1.0000 </r>
       <r>   -0.4874    1.0000 </r>
       <r>   -0.4874    1.0000 </r>
       <r>   -0.4256    1.0000 </r>
       <r>    0.7798    1.0000 </r>
       <r>    0.7798    1.0000 </r>
       <r>    1.5235    1.0000 </r>
       <r>    1.5235    1.0000 </r>
       <r>    4.5558    0.0000 </r>
       <r>    5.1758    0.0000 </r>
       <r>    5.7988    0.0000 </r>
       <r>    6.2190    0.0000 </r>
       <r>    6.7751    0.0000 </r>
       <r>    6.7751    0.0000 </r>
       <r>    6.9407    0.0000 </r>
       <r>    6.9407    0.0000 </r>
      </set>
      <set comment="kpoint 4">
       <r>   -9.6567    1.0000 </r>
       <r>   -7.8977    1.0000 </r>
       <r>   -7.8977    1.0000 </r>
       <r>   -7.5477    1.0000 </r>
       <r>   -3.8688    1.0000 </r>
       <r>   -3.4243    1.0000 </r>
       <r>   -3.4243    1.0000 </r>
       <r>   -0.8608    1.0000 </r>
       <r>   -0.1291    1.0000 </r>
       <r>   -0.1291    1.0000 </r>
       <r>    0.1867    1.0000 </r>
       <r>    0.1867    1.0000 </r>
       <r>    0.3502    1.0000 </r>
       <r>    0.4079    1.0000 </r>
       <r>    1.8800    1.0000 </r>
       <r>    2.6638    1.0000 </r>
       <r>    4.6612    0.0000 </r>
       <r>    5.0046    0.0000 </r>
       <r>    5.0620    0.0000 </r>
       <r>    5.0620    0.0000 </r>
       <r>    5.6078    0.0000 </r>
       <r>    5.6078    0.0000 </r>
       <r>    6.6273    0.0000 </r>
       <r>    6.7838    0.0000 </r>
      </set>
      <set comment="kpoint 5">
       <r>   -9.2423    1.0000 </r>
       <r>   -8.6067    1.0000 </r>
       <r>   -7.7637    1.0000 </r>
       <r>   -7.6270    1.0000 </r>
       <r>   -3.7127    1.0000 </r>
       <r>   -3.5417    1.0000 </r>
       <r>   -2.3120    1.0000 </r>
       <r>   -1.1118    1.0000 </r>
       <r>   -1.0071    1.0000 </r>
       <r>   -0.7987    1.0000 </r>
       <r>    0.1458    1.0000 </r>
       <r>    0.2906    1.0000 </r>
       <r>    0.3572    1.0000 </r>
       <r>    0.9295    1.0000 </r>
       <r>    1.0132    1.0000 </r>
       <r>    1.9290    1.0000 </r>
       <r>    5.3761    0.0000 </r>
       <r>    5.6478    0.0000 </r>
       <r>    5.7546    0.0000 </r>
       <r>    6.2386    0.0000 </r>
       <r>    6.2407    0.0000 </r>
       <r>    6.7668    0.0000 </r>
       <r>    7.0949    0.0000 </r>
       <r>    8.0059    0.0000 </r>
      </set>
      <set comment="kpoint 6">
       <r>   -8.8711    1.0000 </r>
       <r>   -8.3247    1.0000 </r>
       <r>   -8.3247    1.0000 </r>
       <r>   -7.9499    1.0000 </r>
       <r>   -3.3912    1.0000 </r>
       <r>   -2.8724    1.0000 </r>
       <r>   -2.8724    1.0000 </r>
       <r>   -1.9823    1.0000 </r>
       <r>   -1.0550    1.0000 </r>
       <r>   -0.5127    1.0000 </r>
       <r>   -0.5127    1.0000 </r>
       <r>    0.1515    1.0000 </r>
       <r>    1.1447    1.0000 </r>
       <r>    1.2079    1.0000 </r>
       <r>    1.2079    1.0000 </r>
       <r>    2.0488    1.0000 </r>
       <r>    5.3417    0.0000 </r>
       <r>    5.6496    0.0000 </r>
       <r>    6.1958    0.0000 </r>
       <r>    6.1958    0.0000 </r>
       <r>    7.3180    0.0000 </r>
       <r>    7.3180    0.0000 </r>
       <r>    7.8282    0.0000 </r>
       <r>    7.8401    0.0000 </r>
      </set>
      <set comment="kpoint 7">
       <r>   -9.5189    1.0000 </r>
       <r>   -7.8708    1.0000 </r>
       <r>   -7.8708    1.0000 </r>
       <r>   -7.8708    1.0000 </r>
       <r>   -3.4979    1.0000 </r>
       <r>   -3.4979    1.0000 </r>
       <r>   -3.4979    1.0000 </r>
       <r>   -0.5312    1.0000 </r>
       <r>   -0.5312    1.0000 </r>
       <r>   -0.5312    1.0000 </r>
       <r>   -0.4674    1.0000 </r>
       <r>    0.5587    1.0000 </r>
       <r>    0.5587    1.0000 </r>
       <r>    0.5587    1.0000 </r>
       <r>    2.3285    1.0000 </r>
       <r>    2.3285    1.0000 </r>
       <r>    4.5047    0.0000 </r>
       <r>    4.8372    0.0000 </r>
       <r>    4.8372    0.0000 </r>
       <r>    4.8372    0.0000 </r>
       <r>    6.7937    0.0000 </r>
       <r>    6.7937    0.0000 </r>
       <r>    6.7937    0.0000 </r>
       <r>    7.3081    0.0000 </r>
      </set>
      <set comment="kpoint 8">
       <r>   -9.1204    1.0000 </r>
       <r>   -8.5189    1.0000 </r>
       <r>   -7.8255    1.0000 </r>
       <r>   -7.8255    1.0000 </r>
       <r>   -3.6284    1.0000 </r>
       <r>   -3.6284    1.0000 </r>
       <r>   -2.6682    1.0000 </r>
       <r>   -1.6326    1.0000 </r>
       <r>   -0.7231    1.0000 </r>
       <r>   -0.7231    1.0000 </r>
       <r>    0.3789    1.0000 </r>
       <r>    0.5887    1.0000 </r>
       <r>    0.5887    1.0000 </r>
       <r>    0.9928    1.0000 </r>
       <r>    1.5970    1.0000 </r>
       <r>    1.6415    1.0000 </r>
       <r>    5.1057    0.0000 </r>
       <r>    5.2513    0.0000 </r>
       <r>    5.7558    0.0000 </r>
       <r>    5.7558    0.0000 </r>
       <r>    6.8607    0.0000 </r>
       <r>    7.0175    0.0000 </r>
       <r>    7.6722    0.0000 </r>
       <r>    7.6722    0.0000 </r>
      </set>
      <set comment="kpoint 9">
       <r>   -8.7764    1.0000 </r>
       <r>   -8.2891    1.0000 </r>
       <r>   -8.2891    1.0000 </r>
       <r>   -8.0172    1.0000 </r>
       <r>   -3.6199    1.0000 </r>
       <r>   -3.2633    1.0000 </r>
       <r>   -3.2633    1.0000 </r>
       <r>   -2.5613    1.0000 </r>
       <r>   -0.3978    1.0000 </r>
       <r>    0.0836    1.0000 </r>
       <r>    0.0836    1.0000 </r>
       <r>    0.9093    1.0000 </r>
       <r>    1.2361    1.0000 </r>
       <r>    1.2770    1.0000 </r>
       <r>    1.2770    1.0000 </r>
       <r>    1.9762    1.0000 </r>
       <r>    4.8877    0.0000 </r>
       <r>    5.3271    0.0000 </r>
       <r>    5.5907    0.0000 </r>
       <r>    5.5907    0.0000 </r>
       <r>    7.0716    0.0000 </r>
       <r>    7.0716    0.0000 </r>
       <r>    7.6067    0.0000 </r>
       <r>    7.6330    0.0000 </r>
      </set>
      <set comment="kpoint 10">
       <r>   -8.5269    1.0000 </r>
       <r>   -8.2282    1.0000 </r>
       <r>   -8.2282    1.0000 </r>
       <r>   -8.2282    1.0000 </r>
       <r>   -3.7223    1.0000 </r>
       <r>   -3.7223    1.0000 </r>
       <r>   -3.7223    1.0000 </r>
       <r>   -3.3334    1.0000 </r>
       <r>    0.9047    1.0000 </r>
       <r>    0.9047    1.0000 </r>
       <r>    0.9047    1.0000 </r>
       <r>    1.4760    1.0000 </r>
       <r>    1.4760    1.0000 </r>
       <r>    1.4760    1.0000 </r>
       <r>    1.7640    1.0000 </r>
       <r>    1.7640    1.0000 </r>
       <r>    3.9880    0.0000 </r>
       <r>    4.7198    0.0000 </r>
       <r>    4.7198    0.0000 </r>
       <r>    4.7198    0.0000 </r>
       <r>    7.2337    0.0000 </r>
       <r>    7.2337    0.0000 </r>
       <r>    7.2337    0.0000 </r>
       <r>    7.5421    0.0000 </r>
      </set>
     </set>
    </set>
   </array>
  </eigenvalues>
  <separator name="orbital magnetization" >
   <v name="MAGDIPOLOUT">      0.00000000      0.00000000      0.00000000</v>
  </separator>
  <dielectricfunction comment="density-density">
   <imag>
    <array>
     <dimension dim="1">gridpoints</dimension>
     <field>energy</field>
     <field>xx</field>
     <field>yy</field>
     <field>zz</field>
     <field>xy</field>
     <field>yz</field>
     <field>zx</field>
     <set>
      <r>     0.0000     0.0000     0.0000     0.0000     0.0000     0.0000     0.0000 </r>
      <r>     0.0216     0.0078     0.0078     0.0078    -0.0000     0.0000     0.0000 </r>
      <r>     0.0431     0.0155     0.0155     0.0155    -0.0000     0.0000     0.0000 </r>
      <r>     0.0647     0.0233     0.0233     0.0233    -0.0000     0.0000     0.0000 </r>
      <r>     0.0863     0.0312     0.0312     0.0312    -0.0000     0.0000     0.0000 </r>
      <r>     0.1078     0.0391     0.0391     0.0391    -0.0000     0.0000     0.0000 </r>
      <r>     0.1294     0.0470     0.0470     0.0470    -0.0000     0.0000     0.0000 </r>
      <r>     0.1509     0.0551     0.0551     0.0551    -0.0000     0.0000     0.0000 </r>
      <r>     0.1725     0.0632     0.0632     0.0632    -0.0000     0.0000     0.0000 </r>
      <r>     0.1941     0.0715     0.0715     0.0715    -0.0000     0.0000     0.0000 </r>
      <r>     0.2156     0.0799     0.0799     0.0799    -0.0000     0.0000     0.0000 </r>
      <r>     0.2372     0.0884     0.0884     0.0884    -0.0000     0.0000     0.0000 </r>
      <r>     0.2588     0.0971     0.0971     0.0971    -0.0000     0.0000     0.0000 </r>
      <r>     0.2803     0.1060     0.1060     0.1060    -0.0000     0.0000     0.0000 </r>
      <r>     0.3019     0.1152     0.1152     0.1152    -0.0000     0.0000     0.0000 </r>
      <r>     0.3234     0.1245     0.1245     0.1245    -0.0000     0.0000     0.0000 </r>
      <r>     0.3450     0.1342     0.1342     0.1342    -0.0000     0.0000     0.0000 </r>
      <r>     0.3666     0.1441     0.1441     0.1441    -0.0000     0.0000     0.0000 </r>
      <r>     0.3881     0.1544     0.1544     0.1544    -0.0000     0.0000     0.0000 </r>
      <r>     0.4097     0.1651     0.1651     0.1651    -0.0000     0.0000     0.0000 </r>
      <r>     0.4313     0.1762     0.1762     0.1762    -0.0000     0.0000     0.0000 </r>
      <r>     0.4528     0.1877     0.1877     0.1877    -0.0000     0.0000     0.0000 </r>
      <r>     0.4744     0.1999     0.1999     0.1999    -0.0000     0.0000     0.0000 </r>
      <r>     0.4960     0.2127     0.2127     0.2127    -0.0000     0.0000     0.0000 </r>
      <r>     0.5175     0.2262     0.2262     0.2262    -0.0000     0.0000     0.0000 </r>
      <r>     0.5391     0.2405     0.2405     0.2405    -0.0000     0.0000     0.0000 </r>
      <r>     0.5606     0.2558     0.2558     0.2558    -0.0000     0.0000     0.0000 </r>
      <r>     0.5822     0.2723     0.2723     0.2723    -0.0000     0.0000     0.0000 </r>
      <r>     0.6038     0.2901     0.2901     0.2901    -0.0000     0.0000     0.0000 </r>
      <r>     0.6253     0.3096     0.3096     0.3096    -0.0000     0.0000     0.0000 </r>
      <r>     0.6469     0.3311     0.3311     0.3311    -0.0000     0.0000     0.0000 </r>
      <r>     0.6685     0.3548     0.3548     0.3548    -0.0000     0.0000     0.0000 </r>
      <r>     0.6900     0.3813     0.3813     0.3813    -0.0000     0.0000     0.0000 </r>
      <r>     0.7116     0.4109     0.4109     0.4109    -0.0000     0.0000     0.0000 </r>
      <r>     0.7331     0.4438     0.4438     0.4438    -0.0000     0.0000     0.0000 </r>
      <r>     0.7547     0.4805     0.4805     0.4805    -0.0000    -0.0000     0.0000 </r>
      <r>     0.7763     0.5211     0.5211     0.5211    -0.0000    -0.0000     0.0000 </r>
      <r>     0.7978     0.5658     0.5658     0.5658    -0.0000    -0.0000     0.0000 </r>
      <r>     0.8194     0.6147     0.6147     0.6147    -0.0000    -0.0000     0.0000 </r>
      <r>     0.8410     0.6681     0.6681     0.6681    -0.0000    -0.0000     0.0000 </r>
      <r>     0.8625     0.7258     0.7258     0.7258    -0.0000     0.0000     0.0000 </r>
      <r>     0.8841     0.7881     0.7881     0.7881    -0.0000     0.0000     0.0000 </r>
      <r>     0.9056     0.8550     0.8550     0.8550    -0.0000     0.0000     0.0000 </r>
      <r>     0.9272     0.9266     0.9266     0.9266    -0.0000     0.0000     0.0000 </r>
      <r>     0.9488     1.0028     1.0028     1.0028    -0.0000     0.0000     0.0000 </r>
      <r>     0.9703     1.0837     1.0837     1.0837    -0.0000     0.0000     0.0000 </r>
      <r>     0.9919     1.1694     1.1694     1.1694    -0.0000     0.0000     0.0000 </r>
      <r>     1.0135     1.2598     1.2598     1.2598    -0.0000     0.0000     0.0000 </r>
      <r>     1.0350     1.3550     1.3550     1.3550    -0.0000     0.0000     0.0000 </r>
      <r>     1.0566     1.4550     1.4550     1.4550    -0.0000     0.0000     0.0000 </r>
      <r>     1.0782     1.5597     1.5597     1.5597    -0.0000     0.0000     0.0000 </r>
      <r>     1.0997     1.6693     1.6693     1.6693    -0.0000     0.0000     0.0000 </r>
      <r>     1.1213     1.7836     1.7836     1.7836    -0.0000     0.0000     0.0000 </r>
      <r>     1.1428     1.9027     1.9027     1.9027     0.0000    -0.0000     0.0000 </r>
      <r>     1.1644     2.0266     2.0266     2.0266     0.0000    -0.0000     0.0000 </r>
      <r>     1.1860     2.1552     2.1552     2.1552     0.0000    -0.0000     0.0000 </r>
      <r>     1.2075     2.2885     2.2885     2.2885     0.0000    -0.0000     0.0000 </r>
      <r>     1.2291     2.4265     2.4265     2.4265     0.0000    -0.0000     0.0000 </r>
      <r>     1.2507     2.5692     2.5692     2.5692     0.0000    -0.0000     0.0000 </r>
      <r>     1.2722     2.7166     2.7166     2.7166    -0.0000    -0.0000     0.0000 </r>
      <r>     1.2938     2.8685     2.8685     2.8685    -0.0000    -0.0000     0.0000 </r>
      <r>     1.3153     3.0251     3.0251     3.0251    -0.0000    -0.0000    -0.0000 </r>
      <r>     1.3369     3.1861     3.1861     3.1861    -0.0000    -0.0000    -0.0000 </r>
      <r>     1.3585     3.3516     3.3516     3.3516    -0.0000    -0.0000    -0.0000 </r>
      <r>     1.3800     3.5215     3.5215     3.5215    -0.0000    -0.0000    -0.0000 </r>
      <r>     1.4016     3.6957     3.6957     3.6957    -0.0000    -0.0000    -0.0000 </r>
      <r>     1.4232     3.8742     3.8742     3.8742    -0.0000    -0.0000    -0.0000 </r>
      <r>     1.4447     4.0569     4.0569     4.0569    -0.0000    -0.0000    -0.0000 </r>
      <r>     1.4663     4.2437     4.2437     4.2437    -0.0000    -0.0000    -0.0000 </r>
      <r>     1.4879     4.4345     4.4345     4.4345    -0.0000    -0.0000    -0.0000 </r>
      <r>     1.5094     4.6290     4.6290     4.6290    -0.0000    -0.0000    -0.0000 </r>
      <r>     1.5310     4.8271     4.8271     4.8271    -0.0000     0.0000    -0.0000 </r>
      <r>     1.5525     5.0285     5.0285     5.0285    -0.0000     0.0000    -0.0000 </r>
      <r>     1.5741     5.2328     5.2328     5.2328    -0.0000     0.0000    -0.0000 </r>
      <r>     1.5957     5.4395     5.4395     5.4395    -0.0000     0.0000    -0.0000 </r>
      <r>     1.6172     5.6481     5.6481     5.6481    -0.0000     0.0000    -0.0000 </r>
      <r>     1.6388     5.8579     5.8579     5.8579    -0.0000     0.0000    -0.0000 </r>
      <r>     1.6604     6.0680     6.0680     6.0680    -0.0000     0.0000    -0.0000 </r>
      <r>     1.6819     6.2771     6.2771     6.2771     0.0000     0.0000    -0.0000 </r>
      <r>     1.7035     6.4838     6.4838     6.4838     0.0000     0.0000    -0.0000 </r>
      <r>     1.7250     6.6862     6.6862     6.6862     0.0000     0.0000    -0.0000 </r>
      <r>     1.7466     6.8817     6.8817     6.8817     0.0000     0.0000    -0.0000 </r>
      <r>     1.7682     7.0670     7.0670     7.0670     0.0000     0.0000    -0.0000 </r>
      <r>     1.7897     7.2379     7.2379     7.2379     0.0000     0.0000    -0.0000 </r>
      <r>     1.8113     7.3888     7.3888     7.3888     0.0000     0.0000    -0.0000 </r>
      <r>     1.8329     7.5135     7.5135     7.5135     0.0000     0.0000     0.0000 </r>
      <r>     1.8544     7.6051     7.6051     7.6051     0.0000     0.0000     0.0000 </r>
      <r>     1.8760     7.6585     7.6585     7.6585     0.0000     0.0000     0.0000 </r>
      <r>     1.8976     7.6730     7.6730     7.6730     0.0000     0.0000     0.0000 </r>
      <r>     1.9191     7.6541     7.6541     7.6541     0.0000     0.0000     0.0000 </r>
      <r>     1.9407     7.6120     7.6120     7.6120     0.0000     0.0000     0.0000 </r>
      <r>     1.9622     7.5580     7.5580     7.5580    -0.0000     0.0000     0.0000 </r>
      <r>     1.9838     7.5013     7.5013     7.5013    -0.0000     0.0000     0.0000 </r>
      <r>     2.0054     7.4494     7.4494     7.4494    -0.0000     0.0000     0.0000 </r>
      <r>     2.0269     7.4097     7.4097     7.4097    -0.0000     0.0000     0.0000 </r>
      <r>     2.0485     7.3919     7.3919     7.3919    -0.0000     0.0000     0.0000 </r>
      <r>     2.0701     7.4077     7.4077     7.4077    -0.0000    -0.0000     0.0000 </r>
      <r>     2.0916     7.4709     7.4709     7.4709    -0.0000    -0.0000     0.0000 </r>
      <r>     2.1132     7.5961     7.5961     7.5961    -0.0000     0.0000     0.0000 </r>
      <r>     2.1347     7.7986     7.7986     7.7986    -0.0000     0.0000     0.0000 </r>
      <r>     2.1563     8.0911     8.0911     8.0911    -0.0000     0.0000     0.0000 </r>
      <r>     2.1779     8.4775     8.4775     8.4775    -0.0000     0.0000     0.0000 </r>
      <r>     2.1994     8.9388     8.9388     8.9388    -0.0000     0.0000     0.0000 </r>
      <r>     2.2210     9.4196     9.4196     9.4196    -0.0000     0.0000     0.0000 </r>
      <r>     2.2426     9.8405     9.8405     9.8405    -0.0000    -0.0000    -0.0000 </r>
      <r>     2.2641    10.1527    10.1527    10.1527    -0.0000     0.0000    -0.0000 </r>
      <r>     2.2857    10.3795    10.3795    10.3795    -0.0000     0.0000    -0.0000 </r>
      <r>     2.3073    10.5864    10.5864    10.5864    -0.0000     0.0000    -0.0000 </r>
      <r>     2.3288    10.8262    10.8262    10.8262    -0.0000     0.0000    -0.0000 </r>
      <r>     2.3504    11.1181    11.1181    11.1181    -0.0000     0.0000    -0.0000 </r>
      <r>     2.3719    11.4523    11.4523    11.4523    -0.0000     0.0000    -0.0000 </r>
      <r>     2.3935    11.8036    11.8036    11.8036    -0.0000     0.0000    -0.0000 </r>
      <r>     2.4151    12.1424    12.1424    12.1424    -0.0000     0.0000    -0.0000 </r>
      <r>     2.4366    12.4439    12.4439    12.4439    -0.0000     0.0000    -0.0000 </r>
      <r>     2.4582    12.6924    12.6924    12.6924    -0.0000     0.0000    -0.0000 </r>
      <r>     2.4798    12.8827    12.8827    12.8827    -0.0000     0.0000    -0.0000 </r>
      <r>     2.5013    13.0197    13.0197    13.0197    -0.0000     0.0000    -0.0000 </r>
      <r>     2.5229    13.1167    13.1167    13.1167    -0.0000     0.0000    -0.0000 </r>
      <r>     2.5444    13.1918    13.1918    13.1918    -0.0000     0.0000    -0.0000 </r>
      <r>     2.5660    13.2640    13.2640    13.2640    -0.0000     0.0000    -0.0000 </r>
      <r>     2.5876    13.3487    13.3487    13.3487    -0.0000     0.0000    -0.0000 </r>
      <r>     2.6091    13.4548    13.4548    13.4548    -0.0000     0.0000    -0.0000 </r>
      <r>     2.6307    13.5848    13.5848    13.5848     0.0000     0.0000    -0.0000 </r>
      <r>     2.6523    13.7365    13.7365    13.7365     0.0000     0.0000     0.0000 </r>
      <r>     2.6738    13.9059    13.9059    13.9059     0.0000     0.0000     0.0000 </r>
      <r>     2.6954    14.0889    14.0889    14.0889     0.0000     0.0000     0.0000 </r>
      <r>     2.7169    14.2817    14.2817    14.2817     0.0000     0.0000     0.0000 </r>
      <r>     2.7385    14.4816    14.4816    14.4816     0.0000    -0.0000     0.0000 </r>
      <r>     2.7601    14.6864    14.6864    14.6864     0.0000    -0.0000     0.0000 </r>
      <r>     2.7816    14.8944    14.8944    14.8944     0.0000    -0.0000     0.0000 </r>
      <r>     2.8032    15.1042    15.1042    15.1042     0.0000    -0.0000     0.0000 </r>
      <r>     2.8248    15.3148    15.3148    15.3148     0.0000    -0.0000     0.0000 </r>
      <r>     2.8463    15.5253    15.5253    15.5253     0.0000    -0.0000     0.0000 </r>
      <r>     2.8679    15.7349    15.7349    15.7349     0.0000    -0.0000     0.0000 </r>
      <r>     2.8895    15.9428    15.9428    15.9428     0.0000    -0.0000     0.0000 </r>
      <r>     2.9110    16.1475    16.1475    16.1475    -0.0000    -0.0000     0.0000 </r>
      <r>     2.9326    16.3471    16.3471    16.3471    -0.0000    -0.0000     0.0000 </r>
      <r>     2.9541    16.5397    16.5397    16.5397    -0.0000    -0.0000     0.0000 </r>
      <r>     2.9757    16.7237    16.7237    16.7237    -0.0000    -0.0000     0.0000 </r>
      <r>     2.9973    16.8991    16.8991    16.8991    -0.0000    -0.0000     0.0000 </r>
      <r>     3.0188    17.0668    17.0668    17.0668    -0.0000    -0.0000     0.0000 </r>
      <r>     3.0404    17.2292    17.2292    17.2292    -0.0000    -0.0000     0.0000 </r>
      <r>     3.0620    17.3894    17.3894    17.3894    -0.0000    -0.0000     0.0000 </r>
      <r>     3.0835    17.5515    17.5515    17.5515    -0.0000    -0.0000     0.0000 </r>
      <r>     3.1051    17.7206    17.7206    17.7206    -0.0000    -0.0000     0.0000 </r>
      <r>     3.1266    17.9031    17.9031    17.9031    -0.0000     0.0000     0.0000 </r>
      <r>     3.1482    18.1063    18.1063    18.1063    -0.0000     0.0000    -0.0000 </r>
      <r>     3.1698    18.3361    18.3361    18.3361    -0.0000     0.0000    -0.0000 </r>
      <r>     3.1913    18.5928    18.5928    18.5928    -0.0000     0.0000    -0.0000 </r>
      <r>     3.2129    18.8614    18.8614    18.8614    -0.0000     0.0000    -0.0000 </r>
      <r>     3.2345    19.1022    19.1022    19.1022    -0.0000     0.0000    -0.0000 </r>
      <r>     3.2560    19.2605    19.2605    19.2605    -0.0000     0.0000    -0.0000 </r>
      <r>     3.2776    19.3044    19.3044    19.3044    -0.0000    -0.0000    -0.0000 </r>
      <r>     3.2992    19.2536    19.2536    19.2536    -0.0000    -0.0000    -0.0000 </r>
      <r>     3.3207    19.1566    19.1566    19.1566    -0.0000    -0.0000    -0.0000 </r>
      <r>     3.3423    19.0508    19.0508    19.0508    -0.0000    -0.0000    -0.0000 </r>
      <r>     3.3638    18.9470    18.9470    18.9470    -0.0000    -0.0000     0.0000 </r>
      <r>     3.3854    18.8339    18.8339    18.8339    -0.0000    -0.0000     0.0000 </r>
      <r>     3.4070    18.6878    18.6878    18.6878    -0.0000    -0.0000     0.0000 </r>
      <r>     3.4285    18.4820    18.4820    18.4820    -0.0000    -0.0000     0.0000 </r>
      <r>     3.4501    18.2025    18.2025    18.2025    -0.0000    -0.0000     0.0000 </r>
      <r>     3.4717    17.8666    17.8666    17.8666    -0.0000    -0.0000     0.0000 </r>
      <r>     3.4932    17.5200    17.5200    17.5200    -0.0000    -0.0000     0.0000 </r>
      <r>     3.5148    17.2057    17.2057    17.2057    -0.0000    -0.0000     0.0000 </r>
      <r>     3.5363    16.9392    16.9392    16.9392    -0.0000    -0.0000     0.0000 </r>
      <r>     3.5579    16.7124    16.7124    16.7124    -0.0000    -0.0000     0.0000 </r>
      <r>     3.5795    16.5083    16.5083    16.5083    -0.0000    -0.0000     0.0000 </r>
      <r>     3.6010    16.3118    16.3118    16.3118     0.0000    -0.0000     0.0000 </r>
      <r>     3.6226    16.1110    16.1110    16.1110     0.0000    -0.0000     0.0000 </r>
      <r>     3.6442    15.8958    15.8958    15.8958     0.0000    -0.0000     0.0000 </r>
      <r>     3.6657    15.6636    15.6636    15.6636     0.0000    -0.0000     0.0000 </r>
      <r>     3.6873    15.4275    15.4275    15.4275     0.0000     0.0000     0.0000 </r>
      <r>     3.7089    15.2184    15.2184    15.2184     0.0000     0.0000     0.0000 </r>
      <r>     3.7304    15.0754    15.0754    15.0754     0.0000     0.0000     0.0000 </r>
      <r>     3.7520    15.0288    15.0288    15.0288     0.0000     0.0000     0.0000 </r>
      <r>     3.7735    15.0874    15.0874    15.0874     0.0000     0.0000     0.0000 </r>
      <r>     3.7951    15.2379    15.2379    15.2379     0.0000     0.0000     0.0000 </r>
      <r>     3.8167    15.4544    15.4544    15.4544     0.0000     0.0000     0.0000 </r>
      <r>     3.8382    15.7114    15.7114    15.7114     0.0000     0.0000     0.0000 </r>
      <r>     3.8598    15.9918    15.9918    15.9918     0.0000     0.0000     0.0000 </r>
      <r>     3.8814    16.2877    16.2877    16.2877     0.0000     0.0000    -0.0000 </r>
      <r>     3.9029    16.5970    16.5970    16.5970     0.0000     0.0000    -0.0000 </r>
      <r>     3.9245    16.9200    16.9200    16.9200     0.0000     0.0000    -0.0000 </r>
      <r>     3.9460    17.2575    17.2575    17.2575     0.0000     0.0000    -0.0000 </r>
      <r>     3.9676    17.6110    17.6110    17.6110     0.0000     0.0000    -0.0000 </r>
      <r>     3.9892    17.9823    17.9823    17.9823     0.0000     0.0000    -0.0000 </r>
      <r>     4.0107    18.3733    18.3733    18.3733     0.0000     0.0000     0.0000 </r>
      <r>     4.0323    18.7852    18.7852    18.7852     0.0000     0.0000     0.0000 </r>
      <r>     4.0539    19.2166    19.2166    19.2166     0.0000     0.0000     0.0000 </r>
      <r>     4.0754    19.6623    19.6623    19.6623     0.0000     0.0000     0.0000 </r>
      <r>     4.0970    20.1132    20.1132    20.1132     0.0000     0.0000     0.0000 </r>
      <r>     4.1186    20.5569    20.5569    20.5569     0.0000     0.0000     0.0000 </r>
      <r>     4.1401    20.9797    20.9797    20.9797     0.0000     0.0000     0.0000 </r>
      <r>     4.1617    21.3680    21.3680    21.3680     0.0000     0.0000     0.0000 </r>
      <r>     4.1832    21.7087    21.7087    21.7087     0.0000     0.0000     0.0000 </r>
      <r>     4.2048    21.9904    21.9904    21.9904     0.0000     0.0000     0.0000 </r>
      <r>     4.2264    22.2042    22.2042    22.2042     0.0000     0.0000     0.0000 </r>
      <r>     4.2479    22.3436    22.3436    22.3436     0.0000     0.0000     0.0000 </r>
      <r>     4.2695    22.4063    22.4063    22.4063     0.0000    -0.0000     0.0000 </r>
      <r>     4.2911    22.3954    22.3954    22.3954    -0.0000    -0.0000     0.0000 </r>
      <r>     4.3126    22.3198    22.3198    22.3198    -0.0000    -0.0000     0.0000 </r>
      <r>     4.3342    22.1922    22.1922    22.1922    -0.0000    -0.0000     0.0000 </r>
      <r>     4.3557    22.0256    22.0256    22.0256    -0.0000    -0.0000     0.0000 </r>
      <r>     4.3773    21.8303    21.8303    21.8303    -0.0000    -0.0000     0.0000 </r>
      <r>     4.3989    21.6131    21.6131    21.6131    -0.0000    -0.0000    -0.0000 </r>
      <r>     4.4204    21.3795    21.3795    21.3795    -0.0000    -0.0000    -0.0000 </r>
      <r>     4.4420    21.1356    21.1356    21.1356    -0.0000    -0.0000    -0.0000 </r>
      <r>     4.4636    20.8886    20.8886    20.8886    -0.0000    -0.0000    -0.0000 </r>
      <r>     4.4851    20.6446    20.6446    20.6446    -0.0000    -0.0000    -0.0000 </r>
      <r>     4.5067    20.4064    20.4064    20.4064    -0.0000    -0.0000    -0.0000 </r>
      <r>     4.5282    20.1735    20.1735    20.1735    -0.0000    -0.0000     0.0000 </r>
      <r>     4.5498    19.9428    19.9428    19.9428    -0.0000    -0.0000     0.0000 </r>
      <r>     4.5714    19.7096    19.7096    19.7096    -0.0000    -0.0000     0.0000 </r>
      <r>     4.5929    19.4689    19.4689    19.4689    -0.0000    -0.0000     0.0000 </r>
      <r>     4.6145    19.2159    19.2159    19.2159    -0.0000    -0.0000     0.0000 </r>
      <r>     4.6361    18.9461    18.9461    18.9461    -0.0000    -0.0000     0.0000 </r>
      <r>     4.6576    18.6555    18.6555    18.6555    -0.0000    -0.0000     0.0000 </r>
      <r>     4.6792    18.3417    18.3417    18.3417    -0.0000    -0.0000     0.0000 </r>
      <r>     4.7008    18.0065    18.0065    18.0065     0.0000     0.0000     0.0000 </r>
      <r>     4.7223    17.6571    17.6571    17.6571     0.0000     0.0000     0.0000 </r>
      <r>     4.7439    17.3034    17.3034    17.3034     0.0000     0.0000     0.0000 </r>
      <r>     4.7654    16.9524    16.9524    16.9524     0.0000     0.0000     0.0000 </r>
      <r>     4.7870    16.6054    16.6054    16.6054     0.0000     0.0000     0.0000 </r>
      <r>     4.8086    16.2601    16.2601    16.2601     0.0000    -0.0000     0.0000 </r>
      <r>     4.8301    15.9132    15.9132    15.9132    -0.0000    -0.0000     0.0000 </r>
      <r>     4.8517    15.5630    15.5630    15.5630    -0.0000    -0.0000     0.0000 </r>
      <r>     4.8733    15.2099    15.2099    15.2099    -0.0000    -0.0000     0.0000 </r>
      <r>     4.8948    14.8558    14.8558    14.8558    -0.0000    -0.0000     0.0000 </r>
      <r>     4.9164    14.5023    14.5023    14.5023    -0.0000    -0.0000     0.0000 </r>
      <r>     4.9379    14.1504    14.1504    14.1504    -0.0000    -0.0000     0.0000 </r>
      <r>     4.9595    13.8017    13.8017    13.8017    -0.0000    -0.0000    -0.0000 </r>
      <r>     4.9811    13.4595    13.4595    13.4595    -0.0000    -0.0000    -0.0000 </r>
      <r>     5.0026    13.1287    13.1287    13.1287    -0.0000    -0.0000    -0.0000 </r>
      <r>     5.0242    12.8148    12.8148    12.8148    -0.0000    -0.0000    -0.0000 </r>
      <r>     5.0458    12.5208    12.5208    12.5208    -0.0000    -0.0000     0.0000 </r>
      <r>     5.0673    12.2474    12.2474    12.2474    -0.0000    -0.0000     0.0000 </r>
      <r>     5.0889    11.9948    11.9948    11.9948    -0.0000    -0.0000     0.0000 </r>
      <r>     5.1105    11.7619    11.7619    11.7619    -0.0000    -0.0000     0.0000 </r>
      <r>     5.1320    11.5442    11.5442    11.5442    -0.0000    -0.0000     0.0000 </r>
      <r>     5.1536    11.3320    11.3320    11.3320    -0.0000    -0.0000     0.0000 </r>
      <r>     5.1751    11.1131    11.1131    11.1131    -0.0000    -0.0000     0.0000 </r>
      <r>     5.1967    10.8772    10.8772    10.8772    -0.0000    -0.0000    -0.0000 </r>
      <r>     5.2183    10.6197    10.6197    10.6197    -0.0000    -0.0000    -0.0000 </r>
      <r>     5.2398    10.3429    10.3429    10.3429    -0.0000    -0.0000    -0.0000 </r>
      <r>     5.2614    10.0558    10.0558    10.0558    -0.0000    -0.0000    -0.0000 </r>
      <r>     5.2830     9.7742     9.7742     9.7742    -0.0000    -0.0000     0.0000 </r>
      <r>     5.3045     9.5151     9.5151     9.5151    -0.0000    -0.0000     0.0000 </r>
      <r>     5.3261     9.2909     9.2909     9.2909    -0.0000    -0.0000     0.0000 </r>
      <r>     5.3476     9.1064     9.1064     9.1064    -0.0000    -0.0000     0.0000 </r>
      <r>     5.3692     8.9607     8.9607     8.9607    -0.0000    -0.0000     0.0000 </r>
      <r>     5.3908     8.8488     8.8488     8.8488    -0.0000    -0.0000     0.0000 </r>
      <r>     5.4123     8.7652     8.7652     8.7652    -0.0000    -0.0000     0.0000 </r>
      <r>     5.4339     8.7068     8.7068     8.7068    -0.0000    -0.0000     0.0000 </r>
      <r>     5.4555     8.6748     8.6748     8.6748    -0.0000    -0.0000     0.0000 </r>
      <r>     5.4770     8.6720     8.6720     8.6720    -0.0000    -0.0000     0.0000 </r>
      <r>     5.4986     8.6993     8.6993     8.6993    -0.0000     0.0000     0.0000 </r>
      <r>     5.5202     8.7565     8.7565     8.7565    -0.0000     0.0000     0.0000 </r>
      <r>     5.5417     8.8433     8.8433     8.8433    -0.0000     0.0000     0.0000 </r>
      <r>     5.5633     8.9605     8.9605     8.9605    -0.0000     0.0000    -0.0000 </r>
      <r>     5.5848     9.1097     9.1097     9.1097    -0.0000     0.0000    -0.0000 </r>
      <r>     5.6064     9.2928     9.2928     9.2928    -0.0000     0.0000    -0.0000 </r>
      <r>     5.6280     9.5092     9.5092     9.5092    -0.0000     0.0000    -0.0000 </r>
      <r>     5.6495     9.7520     9.7520     9.7520    -0.0000     0.0000    -0.0000 </r>
      <r>     5.6711    10.0049    10.0049    10.0049    -0.0000     0.0000    -0.0000 </r>
      <r>     5.6927    10.2451    10.2451    10.2451    -0.0000     0.0000    -0.0000 </r>
      <r>     5.7142    10.4510    10.4510    10.4510    -0.0000     0.0000    -0.0000 </r>
      <r>     5.7358    10.6015    10.6015    10.6015    -0.0000     0.0000    -0.0000 </r>
      <r>     5.7573    10.6688    10.6688    10.6688    -0.0000     0.0000    -0.0000 </r>
      <r>     5.7789    10.6198    10.6198    10.6198    -0.0000     0.0000    -0.0000 </r>
      <r>     5.8005    10.4376    10.4376    10.4376    -0.0000     0.0000    -0.0000 </r>
      <r>     5.8220    10.1406    10.1406    10.1406    -0.0000     0.0000    -0.0000 </r>
      <r>     5.8436     9.7706     9.7706     9.7706    -0.0000     0.0000    -0.0000 </r>
      <r>     5.8652     9.3685     9.3685     9.3685    -0.0000     0.0000    -0.0000 </r>
      <r>     5.8867     8.9617     8.9617     8.9617    -0.0000     0.0000    -0.0000 </r>
      <r>     5.9083     8.5642     8.5642     8.5642    -0.0000     0.0000    -0.0000 </r>
      <r>     5.9299     8.1799     8.1799     8.1799    -0.0000     0.0000    -0.0000 </r>
      <r>     5.9514     7.8081     7.8081     7.8081    -0.0000     0.0000    -0.0000 </r>
      <r>     5.9730     7.4466     7.4466     7.4466    -0.0000    -0.0000    -0.0000 </r>
      <r>     5.9945     7.0939     7.0939     7.0939    -0.0000    -0.0000    -0.0000 </r>
      <r>     6.0161     6.7502     6.7502     6.7502    -0.0000    -0.0000    -0.0000 </r>
      <r>     6.0377     6.4173     6.4173     6.4173    -0.0000    -0.0000    -0.0000 </r>
      <r>     6.0592     6.0988     6.0988     6.0988    -0.0000    -0.0000    -0.0000 </r>
      <r>     6.0808     5.7987     5.7987     5.7987    -0.0000    -0.0000    -0.0000 </r>
      <r>     6.1024     5.5212     5.5212     5.5212    -0.0000    -0.0000    -0.0000 </r>
      <r>     6.1239     5.2701     5.2701     5.2701    -0.0000    -0.0000    -0.0000 </r>
      <r>     6.1455     5.0477     5.0477     5.0477    -0.0000    -0.0000    -0.0000 </r>
      <r>     6.1670     4.8542     4.8542     4.8542    -0.0000    -0.0000    -0.0000 </r>
      <r>     6.1886     4.6885     4.6885     4.6885    -0.0000    -0.0000    -0.0000 </r>
      <r>     6.2102     4.5485     4.5485     4.5485    -0.0000    -0.0000    -0.0000 </r>
      <r>     6.2317     4.4328     4.4328     4.4328    -0.0000    -0.0000    -0.0000 </r>
      <r>     6.2533     4.3405     4.3405     4.3405    -0.0000    -0.0000    -0.0000 </r>
      <r>     6.2749     4.2704     4.2704     4.2704    -0.0000     0.0000    -0.0000 </r>
      <r>     6.2964     4.2191     4.2191     4.2191    -0.0000     0.0000    -0.0000 </r>
      <r>     6.3180     4.1792     4.1792     4.1792    -0.0000     0.0000    -0.0000 </r>
      <r>     6.3395     4.1412     4.1412     4.1412    -0.0000     0.0000    -0.0000 </r>
      <r>     6.3611     4.0987     4.0987     4.0987    -0.0000     0.0000    -0.0000 </r>
      <r>     6.3827     4.0534     4.0534     4.0534    -0.0000     0.0000    -0.0000 </r>
      <r>     6.4042     4.0118     4.0118     4.0118    -0.0000     0.0000    -0.0000 </r>
      <r>     6.4258     3.9790     3.9790     3.9790    -0.0000     0.0000    -0.0000 </r>
      <r>     6.4474     3.9574     3.9574     3.9574    -0.0000     0.0000     0.0000 </r>
      <r>     6.4689     3.9471     3.9471     3.9471     0.0000     0.0000     0.0000 </r>
      <r>     6.4905     3.9476     3.9476     3.9476     0.0000     0.0000     0.0000 </r>
      <r>     6.5121     3.9586     3.9586     3.9586     0.0000     0.0000     0.0000 </r>
      <r>     6.5336     3.9803     3.9803     3.9803     0.0000     0.0000     0.0000 </r>
      <r>     6.5552     4.0131     4.0131     4.0131     0.0000     0.0000     0.0000 </r>
      <r>     6.5767     4.0574     4.0574     4.0574     0.0000     0.0000     0.0000 </r>
      <r>     6.5983     4.1116     4.1116     4.1116     0.0000     0.0000     0.0000 </r>
      <r>     6.6199     4.1704     4.1704     4.1704     0.0000     0.0000     0.0000 </r>
      <r>     6.6414     4.2252     4.2252     4.2252     0.0000     0.0000     0.0000 </r>
      <r>     6.6630     4.2687     4.2687     4.2687     0.0000     0.0000     0.0000 </r>
      <r>     6.6846     4.2985     4.2985     4.2985     0.0000     0.0000     0.0000 </r>
      <r>     6.7061     4.3166     4.3166     4.3166     0.0000     0.0000     0.0000 </r>
      <r>     6.7277     4.3248     4.3248     4.3248     0.0000     0.0000     0.0000 </r>
      <r>     6.7492     4.3236     4.3236     4.3236     0.0000     0.0000     0.0000 </r>
      <r>     6.7708     4.3125     4.3125     4.3125     0.0000     0.0000     0.0000 </r>
      <r>     6.7924     4.2912     4.2912     4.2912     0.0000     0.0000     0.0000 </r>
      <r>     6.8139     4.2596     4.2596     4.2596     0.0000     0.0000     0.0000 </r>
      <r>     6.8355     4.2185     4.2185     4.2185     0.0000     0.0000     0.0000 </r>
      <r>     6.8571     4.1688     4.1688     4.1688     0.0000     0.0000     0.0000 </r>
      <r>     6.8786     4.1116     4.1116     4.1116     0.0000     0.0000    -0.0000 </r>
      <r>     6.9002     4.0482     4.0482     4.0482     0.0000     0.0000    -0.0000 </r>
      <r>     6.9218     3.9793     3.9793     3.9793     0.0000     0.0000    -0.0000 </r>
      <r>     6.9433     3.9053     3.9053     3.9053     0.0000     0.0000    -0.0000 </r>
      <r>     6.9649     3.8263     3.8263     3.8263     0.0000     0.0000    -0.0000 </r>
      <r>     6.9864     3.7429     3.7429     3.7429     0.0000     0.0000     0.0000 </r>
      <r>     7.0080     3.6568     3.6568     3.6568     0.0000     0.0000     0.0000 </r>
      <r>     7.0296     3.5705     3.5705     3.5705     0.0000     0.0000    -0.0000 </r>
      <r>     7.0511     3.4868     3.4868     3.4868     0.0000     0.0000    -0.0000 </r>
      <r>     7.0727     3.4073     3.4073     3.4073     0.0000     0.0000    -0.0000 </r>
      <r>     7.0943     3.3328     3.3328     3.3328     0.0000     0.0000    -0.0000 </r>
      <r>     7.1158     3.2636     3.2636     3.2636     0.0000     0.0000    -0.0000 </r>
      <r>     7.1374     3.1993     3.1993     3.1993     0.0000     0.0000     0.0000 </r>
      <r>     7.1589     3.1392     3.1392     3.1392     0.0000     0.0000     0.0000 </r>
      <r>     7.1805     3.0825     3.0825     3.0825     0.0000     0.0000     0.0000 </r>
      <r>     7.2021     3.0287     3.0287     3.0287     0.0000     0.0000     0.0000 </r>
      <r>     7.2236     2.9772     2.9772     2.9772    -0.0000     0.0000     0.0000 </r>
      <r>     7.2452     2.9276     2.9276     2.9276    -0.0000     0.0000     0.0000 </r>
      <r>     7.2668     2.8800     2.8800     2.8800    -0.0000     0.0000     0.0000 </r>
      <r>     7.2883     2.8341     2.8341     2.8341    -0.0000     0.0000     0.0000 </r>
      <r>     7.3099     2.7897     2.7897     2.7897    -0.0000     0.0000     0.0000 </r>
      <r>     7.3315     2.7459     2.7459     2.7459    -0.0000     0.0000     0.0000 </r>
      <r>     7.3530     2.7016     2.7016     2.7016    -0.0000     0.0000     0.0000 </r>
      <r>     7.3746     2.6554     2.6554     2.6554    -0.0000    -0.0000     0.0000 </r>
      <r>     7.3961     2.6069     2.6069     2.6069    -0.0000    -0.0000     0.0000 </r>
      <r>     7.4177     2.5558     2.5558     2.5558    -0.0000    -0.0000     0.0000 </r>
      <r>     7.4393     2.5024     2.5024     2.5024     0.0000    -0.0000     0.0000 </r>
      <r>     7.4608     2.4475     2.4475     2.4475     0.0000    -0.0000     0.0000 </r>
      <r>     7.4824     2.3923     2.3923     2.3923     0.0000    -0.0000     0.0000 </r>
      <r>     7.5040     2.3374     2.3374     2.3374     0.0000    -0.0000     0.0000 </r>
      <r>     7.5255     2.2831     2.2831     2.2831     0.0000     0.0000     0.0000 </r>
      <r>     7.5471     2.2288     2.2288     2.2288     0.0000     0.0000     0.0000 </r>
      <r>     7.5686     2.1741     2.1741     2.1741     0.0000     0.0000     0.0000 </r>
      <r>     7.5902     2.1183     2.1183     2.1183     0.0000     0.0000     0.0000 </r>
      <r>     7.6118     2.0606     2.0606     2.0606     0.0000     0.0000     0.0000 </r>
      <r>     7.6333     2.0007     2.0007     2.0007     0.0000     0.0000     0.0000 </r>
      <r>     7.6549     1.9383     1.9383     1.9383     0.0000     0.0000     0.0000 </r>
      <r>     7.6765     1.8735     1.8735     1.8735     0.0000     0.0000     0.0000 </r>
      <r>     7.6980     1.8070     1.8070     1.8070     0.0000     0.0000     0.0000 </r>
      <r>     7.7196     1.7397     1.7397     1.7397     0.0000     0.0000     0.0000 </r>
      <r>     7.7412     1.6731     1.6731     1.6731     0.0000     0.0000     0.0000 </r>
      <r>     7.7627     1.6082     1.6082     1.6082     0.0000     0.0000     0.0000 </r>
      <r>     7.7843     1.5460     1.5460     1.5460     0.0000     0.0000     0.0000 </r>
      <r>     7.8058     1.4873     1.4873     1.4873     0.0000     0.0000     0.0000 </r>
      <r>     7.8274     1.4326     1.4326     1.4326     0.0000     0.0000     0.0000 </r>
      <r>     7.8490     1.3824     1.3824     1.3824     0.0000     0.0000     0.0000 </r>
      <r>     7.8705     1.3373     1.3373     1.3373     0.0000     0.0000     0.0000 </r>
      <r>     7.8921     1.2976     1.2976     1.2976     0.0000     0.0000     0.0000 </r>
      <r>     7.9137     1.2632     1.2632     1.2632     0.0000     0.0000     0.0000 </r>
      <r>     7.9352     1.2333     1.2333     1.2333     0.0000     0.0000     0.0000 </r>
      <r>     7.9568     1.2066     1.2066     1.2066     0.0000     0.0000     0.0000 </r>
      <r>     7.9783     1.1822     1.1822     1.1822     0.0000     0.0000     0.0000 </r>
      <r>     7.9999     1.1595     1.1595     1.1595     0.0000     0.0000     0.0000 </r>
      <r>     8.0215     1.1379     1.1379     1.1379     0.0000     0.0000     0.0000 </r>
      <r>     8.0430     1.1174     1.1174     1.1174     0.0000     0.0000     0.0000 </r>
      <r>     8.0646     1.0976     1.0976     1.0976     0.0000     0.0000     0.0000 </r>
      <r>     8.0862     1.0784     1.0784     1.0784     0.0000     0.0000     0.0000 </r>
      <r>     8.1077     1.0598     1.0598     1.0598     0.0000     0.0000     0.0000 </r>
      <r>     8.1293     1.0417     1.0417     1.0417     0.0000    -0.0000     0.0000 </r>
      <r>     8.1508     1.0240     1.0240     1.0240     0.0000    -0.0000     0.0000 </r>
      <r>     8.1724     1.0068     1.0068     1.0068     0.0000     0.0000     0.0000 </r>
      <r>     8.1940     0.9903     0.9903     0.9903    -0.0000     0.0000     0.0000 </r>
      <r>     8.2155     0.9747     0.9747     0.9747    -0.0000     0.0000     0.0000 </r>
      <r>     8.2371     0.9603     0.9603     0.9603    -0.0000     0.0000    -0.0000 </r>
      <r>     8.2587     0.9475     0.9475     0.9475    -0.0000     0.0000    -0.0000 </r>
      <r>     8.2802     0.9365     0.9365     0.9365     0.0000     0.0000    -0.0000 </r>
      <r>     8.3018     0.9272     0.9272     0.9272     0.0000     0.0000    -0.0000 </r>
      <r>     8.3234     0.9190     0.9190     0.9190     0.0000     0.0000    -0.0000 </r>
      <r>     8.3449     0.9110     0.9110     0.9110     0.0000     0.0000    -0.0000 </r>
      <r>     8.3665     0.9023     0.9023     0.9023     0.0000     0.0000     0.0000 </r>
      <r>     8.3880     0.8921     0.8921     0.8921     0.0000     0.0000    -0.0000 </r>
      <r>     8.4096     0.8803     0.8803     0.8803     0.0000     0.0000    -0.0000 </r>
      <r>     8.4312     0.8665     0.8665     0.8665     0.0000     0.0000    -0.0000 </r>
      <r>     8.4527     0.8509     0.8509     0.8509     0.0000     0.0000    -0.0000 </r>
      <r>     8.4743     0.8337     0.8337     0.8337     0.0000     0.0000    -0.0000 </r>
      <r>     8.4959     0.8159     0.8159     0.8159     0.0000     0.0000    -0.0000 </r>
      <r>     8.5174     0.7985     0.7985     0.7985     0.0000     0.0000    -0.0000 </r>
      <r>     8.5390     0.7822     0.7822     0.7822     0.0000     0.0000    -0.0000 </r>
      <r>     8.5605     0.7674     0.7674     0.7674     0.0000     0.0000    -0.0000 </r>
      <r>     8.5821     0.7539     0.7539     0.7539     0.0000     0.0000    -0.0000 </r>
      <r>     8.6037     0.7412     0.7412     0.7412     0.0000     0.0000    -0.0000 </r>
      <r>     8.6252     0.7292     0.7292     0.7292     0.0000     0.0000    -0.0000 </r>
      <r>     8.6468     0.7174     0.7174     0.7174     0.0000     0.0000    -0.0000 </r>
      <r>     8.6684     0.7057     0.7057     0.7057     0.0000     0.0000    -0.0000 </r>
      <r>     8.6899     0.6938     0.6938     0.6938     0.0000     0.0000    -0.0000 </r>
      <r>     8.7115     0.6816     0.6816     0.6816     0.0000     0.0000    -0.0000 </r>
      <r>     8.7331     0.6690     0.6690     0.6690     0.0000     0.0000    -0.0000 </r>
      <r>     8.7546     0.6560     0.6560     0.6560    -0.0000    -0.0000    -0.0000 </r>
      <r>     8.7762     0.6427     0.6427     0.6427    -0.0000    -0.0000    -0.0000 </r>
      <r>     8.7977     0.6294     0.6294     0.6294    -0.0000    -0.0000    -0.0000 </r>
      <r>     8.8193     0.6165     0.6165     0.6165    -0.0000    -0.0000    -0.0000 </r>
      <r>     8.8409     0.6043     0.6043     0.6043    -0.0000    -0.0000    -0.0000 </r>
      <r>     8.8624     0.5930     0.5930     0.5930    -0.0000    -0.0000    -0.0000 </r>
      <r>     8.8840     0.5827     0.5827     0.5827    -0.0000    -0.0000    -0.0000 </r>
      <r>     8.9056     0.5729     0.5729     0.5729    -0.0000    -0.0000    -0.0000 </r>
      <r>     8.9271     0.5630     0.5630     0.5630    -0.0000    -0.0000    -0.0000 </r>
      <r>     8.9487     0.5525     0.5525     0.5525    -0.0000    -0.0000    -0.0000 </r>
      <r>     8.9702     0.5409     0.5409     0.5409    -0.0000    -0.0000    -0.0000 </r>
      <r>     8.9918     0.5284     0.5284     0.5284    -0.0000    -0.0000    -0.0000 </r>
      <r>     9.0134     0.5152     0.5152     0.5152    -0.0000    -0.0000    -0.0000 </r>
      <r>     9.0349     0.5020     0.5020     0.5020    -0.0000    -0.0000    -0.0000 </r>
      <r>     9.0565     0.4890     0.4890     0.4890    -0.0000    -0.0000    -0.0000 </r>
      <r>     9.0781     0.4767     0.4767     0.4767    -0.0000    -0.0000    -0.0000 </r>
      <r>     9.0996     0.4651     0.4651     0.4651    -0.0000    -0.0000    -0.0000 </r>
      <r>     9.1212     0.4541     0.4541     0.4541    -0.0000    -0.0000    -0.0000 </r>
      <r>     9.1428     0.4438     0.4438     0.4438    -0.0000    -0.0000    -0.0000 </r>
      <r>     9.1643     0.4339     0.4339     0.4339    -0.0000    -0.0000    -0.0000 </r>
      <r>     9.1859     0.4244     0.4244     0.4244    -0.0000    -0.0000    -0.0000 </r>
      <r>     9.2074     0.4152     0.4152     0.4152    -0.0000    -0.0000    -0.0000 </r>
      <r>     9.2290     0.4063     0.4063     0.4063    -0.0000    -0.0000    -0.0000 </r>
      <r>     9.2506     0.3975     0.3975     0.3975    -0.0000    -0.0000    -0.0000 </r>
      <r>     9.2721     0.3886     0.3886     0.3886    -0.0000    -0.0000    -0.0000 </r>
      <r>     9.2937     0.3795     0.3795     0.3795    -0.0000    -0.0000    -0.0000 </r>
      <r>     9.3153     0.3701     0.3701     0.3701    -0.0000    -0.0000    -0.0000 </r>
      <r>     9.3368     0.3606     0.3606     0.3606    -0.0000    -0.0000     0.0000 </r>
      <r>     9.3584     0.3509     0.3509     0.3509    -0.0000    -0.0000     0.0000 </r>
      <r>     9.3799     0.3415     0.3415     0.3415    -0.0000    -0.0000     0.0000 </r>
      <r>     9.4015     0.3325     0.3325     0.3325    -0.0000    -0.0000     0.0000 </r>
      <r>     9.4231     0.3241     0.3241     0.3241    -0.0000    -0.0000     0.0000 </r>
      <r>     9.4446     0.3164     0.3164     0.3164    -0.0000    -0.0000     0.0000 </r>
      <r>     9.4662     0.3093     0.3093     0.3093    -0.0000    -0.0000     0.0000 </r>
      <r>     9.4878     0.3027     0.3027     0.3027    -0.0000    -0.0000     0.0000 </r>
      <r>     9.5093     0.2966     0.2966     0.2966    -0.0000    -0.0000     0.0000 </r>
      <r>     9.5309     0.2909     0.2909     0.2909    -0.0000    -0.0000     0.0000 </r>
      <r>     9.5525     0.2856     0.2856     0.2856    -0.0000    -0.0000     0.0000 </r>
      <r>     9.5740     0.2807     0.2807     0.2807    -0.0000    -0.0000     0.0000 </r>
      <r>     9.5956     0.2760     0.2760     0.2760    -0.0000    -0.0000     0.0000 </r>
      <r>     9.6171     0.2718     0.2718     0.2718    -0.0000    -0.0000     0.0000 </r>
      <r>     9.6387     0.2678     0.2678     0.2678    -0.0000    -0.0000     0.0000 </r>
      <r>     9.6603     0.2641     0.2641     0.2641    -0.0000    -0.0000    -0.0000 </r>
      <r>     9.6818     0.2607     0.2607     0.2607    -0.0000    -0.0000    -0.0000 </r>
      <r>     9.7034     0.2575     0.2575     0.2575    -0.0000    -0.0000    -0.0000 </r>
      <r>     9.7250     0.2547     0.2547     0.2547    -0.0000    -0.0000    -0.0000 </r>
      <r>     9.7465     0.2521     0.2521     0.2521     0.0000    -0.0000    -0.0000 </r>
      <r>     9.7681     0.2498     0.2498     0.2498     0.0000    -0.0000    -0.0000 </r>
      <r>     9.7896     0.2477     0.2477     0.2477     0.0000    -0.0000    -0.0000 </r>
      <r>     9.8112     0.2457     0.2457     0.2457    -0.0000    -0.0000    -0.0000 </r>
      <r>     9.8328     0.2438     0.2438     0.2438    -0.0000    -0.0000    -0.0000 </r>
      <r>     9.8543     0.2418     0.2418     0.2418    -0.0000    -0.0000    -0.0000 </r>
      <r>     9.8759     0.2397     0.2397     0.2397    -0.0000    -0.0000    -0.0000 </r>
[...]
     <r>     7.4992     0.0750     0.0750     0.0750     0.0000    -0.0000     0.0000 </r>
     <r>     7.5092     0.0757     0.0757     0.0757    -0.0000    -0.0000    -0.0000 </r>
     <r>     7.5192     0.0764     0.0764     0.0764     0.0000     0.0000    -0.0000 </r>
     <r>     7.5292     0.0771     0.0771     0.0771     0.0000     0.0000     0.0000 </r>
     <r>     7.5392     0.0778     0.0778     0.0778    -0.0000    -0.0000    -0.0000 </r>
     <r>     7.5493     0.0828     0.0828     0.0828     0.0000     0.0000    -0.0000 </r>
     <r>     7.5593     0.0853     0.0853     0.0853    -0.0000    -0.0000    -0.0000 </r>
     <r>     7.5693     0.0891     0.0891     0.0891    -0.0000    -0.0000    -0.0000 </r>
     <r>     7.5793     0.0932     0.0932     0.0932     0.0000     0.0000     0.0000 </r>
     <r>     7.5893     0.0976     0.0976     0.0976    -0.0000    -0.0000    -0.0000 </r>
     <r>     7.5993     0.1024     0.1024     0.1024    -0.0000    -0.0000    -0.0000 </r>
     <r>     7.6093     0.1261     0.1261     0.1261     0.0000     0.0000     0.0000 </r>
     <r>     7.6193     0.1367     0.1367     0.1367     0.0000     0.0000     0.0000 </r>
     <r>     7.6293     0.1437     0.1437     0.1437    -0.0000    -0.0000     0.0000 </r>
     <r>     7.6393     0.1833     0.1833     0.1833     0.0000     0.0000    -0.0000 </r>
     <r>     7.6494     0.1826     0.1826     0.1826    -0.0000     0.0000    -0.0000 </r>
     <r>     7.6594     0.1622     0.1622     0.1622    -0.0000    -0.0000     0.0000 </r>
     <r>     7.6694     0.1221     0.1221     0.1221    -0.0000    -0.0000    -0.0000 </r>
     <r>     7.6794     0.1047     0.1047     0.1047     0.0000     0.0000     0.0000 </r>
     <r>     7.6894     0.1015     0.1015     0.1015     0.0000     0.0000     0.0000 </r>
     <r>     7.6994     0.0985     0.0985     0.0985    -0.0000     0.0000    -0.0000 </r>
     <r>     7.7094     0.0955     0.0955     0.0955    -0.0000     0.0000    -0.0000 </r>
     <r>     7.7194     0.0926     0.0926     0.0926     0.0000     0.0000     0.0000 </r>
     <r>     7.7294     0.0897     0.0897     0.0897    -0.0000    -0.0000    -0.0000 </r>
     <r>     7.7394     0.0870     0.0870     0.0870    -0.0000    -0.0000    -0.0000 </r>
     <r>     7.7495     0.0842     0.0842     0.0842     0.0000     0.0000    -0.0000 </r>
     <r>     7.7595     0.0816     0.0816     0.0816     0.0000     0.0000     0.0000 </r>
     <r>     7.7695     0.0790     0.0790     0.0790     0.0000     0.0000    -0.0000 </r>
     <r>     7.7795     0.0765     0.0765     0.0765     0.0000     0.0000    -0.0000 </r>
     <r>     7.7895     0.0741     0.0741     0.0741    -0.0000     0.0000    -0.0000 </r>
     <r>     7.7995     0.0717     0.0717     0.0717     0.0000     0.0000     0.0000 </r>
     <r>     7.8095     0.0694     0.0694     0.0694     0.0000     0.0000    -0.0000 </r>
     <r>     7.8195     0.0672     0.0672     0.0672    -0.0000    -0.0000    -0.0000 </r>
     <r>     7.8295     0.0604     0.0604     0.0604    -0.0000     0.0000    -0.0000 </r>
     <r>     7.8395     0.0597     0.0597     0.0597    -0.0000     0.0000     0.0000 </r>
     <r>     7.8496     0.0534     0.0534     0.0534     0.0000     0.0000     0.0000 </r>
     <r>     7.8596     0.0511     0.0511     0.0511    -0.0000     0.0000    -0.0000 </r>
     <r>     7.8696     0.0488     0.0488     0.0488    -0.0000    -0.0000    -0.0000 </r>
     <r>     7.8796     0.0465     0.0465     0.0465     0.0000     0.0000     0.0000 </r>
     <r>     7.8896     0.0441     0.0441     0.0441     0.0000     0.0000     0.0000 </r>
    </set>
   </array>
  </conductivity>
  <dos>
   <i name="efermi">      2.88959137 </i>
   <total>
    <array>
     <dimension dim="1">gridpoints</dimension>
     <dimension dim="2">spin</dimension>
     <field>energy</field>
     <field>total</field>
     <field>integrated</field>
     <set>
      <set comment="spin 1">
       <r>   -10.9454     0.0000     0.0000 </r>
       <r>   -10.8789     0.0000     0.0000 </r>
       <r>   -10.8124     0.0000     0.0000 </r>
       <r>   -10.7459     0.0000     0.0000 </r>
       <r>   -10.6794     0.0000     0.0000 </r>
       <r>   -10.6128     0.0000     0.0000 </r>
       <r>   -10.5463     0.0000     0.0000 </r>
       <r>   -10.4798     0.0000     0.0000 </r>
       <r>   -10.4133     0.0000     0.0000 </r>
       <r>   -10.3468     0.0000     0.0000 </r>
       <r>   -10.2803     0.0000     0.0000 </r>
       <r>   -10.2138     0.0000     0.0000 </r>
       <r>   -10.1473     0.0000     0.0000 </r>
       <r>   -10.0808     0.0000     0.0000 </r>
       <r>   -10.0143     0.0000     0.0000 </r>
       <r>    -9.9478     0.0000     0.0000 </r>
       <r>    -9.8813     0.0858     0.0018 </r>
       <r>    -9.8148     0.3563     0.0155 </r>
       <r>    -9.7483     0.7145     0.0518 </r>
       <r>    -9.6818     0.8975     0.1064 </r>
       <r>    -9.6153     0.9343     0.1675 </r>
       <r>    -9.5488     1.0233     0.2322 </r>
       <r>    -9.4823     1.1786     0.3052 </r>
       <r>    -9.4158     1.3517     0.3893 </r>
       <r>    -9.3493     1.7852     0.4881 </r>
       <r>    -9.2828     2.5383     0.6332 </r>
       <r>    -9.2163     2.7232     0.8166 </r>
       <r>    -9.1498     2.2771     0.9823 </r>
       <r>    -9.0833     2.1105     1.1252 </r>
       <r>    -9.0167     2.0861     1.2649 </r>
       <r>    -8.9502     2.0325     1.4020 </r>
       <r>    -8.8837     1.9496     1.5346 </r>
       <r>    -8.8172     2.2763     1.6994 </r>
       <r>    -8.7507     1.1828     1.8146 </r>
       <r>    -8.6842     1.4086     1.8904 </r>
       <r>    -8.6177     2.6253     2.0230 </r>
       <r>    -8.5512     3.2816     2.2285 </r>
       <r>    -8.4847     3.5324     2.4568 </r>
       <r>    -8.4182     3.7752     2.6924 </r>
       <r>    -8.3517     4.1595     2.9568 </r>
       <r>    -8.2852    12.4377     3.4419 </r>
       <r>    -8.2187     4.3590     3.9754 </r>
       <r>    -8.1522     3.9118     4.2261 </r>
       <r>    -8.0857     4.2527     4.4972 </r>
       <r>    -8.0192     4.6602     4.7932 </r>
       <r>    -7.9527     7.4775     5.2231 </r>
       <r>    -7.8862     7.3389     5.7117 </r>
       <r>    -7.8197     8.8010     6.2574 </r>
       <r>    -7.7532     6.1720     6.7802 </r>
       <r>    -7.6867     5.6178     7.1721 </r>
       <r>    -7.6202     5.2884     7.5296 </r>
       <r>    -7.5537     4.2161     7.8438 </r>
       <r>    -7.4871     0.9623     8.0000 </r>
       <r>    -7.4206     0.0000     8.0000 </r>
       <r>    -7.3541     0.0000     8.0000 </r>
       <r>    -7.2876     0.0000     8.0000 </r>
       <r>    -7.2211     0.0000     8.0000 </r>
       <r>    -7.1546     0.0000     8.0000 </r>
       <r>    -7.0881     0.0000     8.0000 </r>
       <r>    -7.0216     0.0000     8.0000 </r>
       <r>    -6.9551     0.0000     8.0000 </r>
       <r>    -6.8886     0.0000     8.0000 </r>
       <r>    -6.8221     0.0000     8.0000 </r>
       <r>    -6.7556     0.0000     8.0000 </r>
       <r>    -6.6891     0.0000     8.0000 </r>
       <r>    -6.6226     0.0000     8.0000 </r>
       <r>    -6.5561     0.0000     8.0000 </r>
       <r>    -6.4896     0.0000     8.0000 </r>
       <r>    -6.4231     0.0000     8.0000 </r>
       <r>    -6.3566     0.0000     8.0000 </r>
       <r>    -6.2901     0.0000     8.0000 </r>
       <r>    -6.2236     0.0000     8.0000 </r>
       <r>    -6.1571     0.0000     8.0000 </r>
       <r>    -6.0906     0.0000     8.0000 </r>
       <r>    -6.0241     0.0000     8.0000 </r>
       <r>    -5.9576     0.0000     8.0000 </r>
       <r>    -5.8910     0.0000     8.0000 </r>
       <r>    -5.8245     0.0000     8.0000 </r>
       <r>    -5.7580     0.0000     8.0000 </r>
       <r>    -5.6915     0.0000     8.0000 </r>
       <r>    -5.6250     0.0000     8.0000 </r>
       <r>    -5.5585     0.0000     8.0000 </r>
       <r>    -5.4920     0.0000     8.0000 </r>
       <r>    -5.4255     0.0000     8.0000 </r>
       <r>    -5.3590     0.0000     8.0000 </r>
       <r>    -5.2925     0.0000     8.0000 </r>
       <r>    -5.2260     0.0000     8.0000 </r>
       <r>    -5.1595     0.0000     8.0000 </r>
       <r>    -5.0930     0.0000     8.0000 </r>
       <r>    -5.0265     0.0000     8.0000 </r>
       <r>    -4.9600     0.0000     8.0000 </r>
       <r>    -4.8935     0.0000     8.0000 </r>
       <r>    -4.8270     0.0000     8.0000 </r>
       <r>    -4.7605     0.0000     8.0000 </r>
       <r>    -4.6940     0.0000     8.0000 </r>
       <r>    -4.6275     0.0000     8.0000 </r>
       <r>    -4.5610     0.0000     8.0000 </r>
       <r>    -4.4945     0.0000     8.0000 </r>
       <r>    -4.4280     0.0000     8.0000 </r>
       <r>    -4.3614     0.0000     8.0000 </r>
       <r>    -4.2949     0.0000     8.0000 </r>
       <r>    -4.2284     0.0000     8.0000 </r>
       <r>    -4.1619     0.0000     8.0000 </r>
       <r>    -4.0954     0.0000     8.0000 </r>
       <r>    -4.0289     0.0000     8.0000 </r>
       <r>    -3.9624     0.3168     8.0038 </r>
       <r>    -3.8959     1.6752     8.0754 </r>
       <r>    -3.8294     2.3476     8.2013 </r>
       <r>    -3.7629     4.6579     8.4276 </r>
       <r>    -3.6964     9.9247     8.9098 </r>
       <r>    -3.6299    14.9608     9.6963 </r>
       <r>    -3.5634    11.6227    10.4789 </r>
       <r>    -3.4969     7.5360    11.0866 </r>
       <r>    -3.4304     5.5731    11.5166 </r>
       <r>    -3.3639     4.0091    11.8346 </r>
       <r>    -3.2974     3.6764    12.0822 </r>
       <r>    -3.2309     2.8607    12.2910 </r>
       <r>    -3.1644     2.7906    12.4789 </r>
       <r>    -3.0979     2.7257    12.6623 </r>
       <r>    -3.0314     2.6659    12.8415 </r>
       <r>    -2.9649     2.6113    13.0170 </r>
       <r>    -2.8984     2.5619    13.1890 </r>
       <r>    -2.8319     2.0306    13.3381 </r>
       <r>    -2.7653     1.9879    13.4717 </r>
       <r>    -2.6988     1.9375    13.6023 </r>
       <r>    -2.6323     1.8649    13.7290 </r>
       <r>    -2.5658     1.7692    13.8499 </r>
       <r>    -2.4993     1.6921    13.9656 </r>
       <r>    -2.4328     1.5850    14.0747 </r>
       <r>    -2.3663     1.4678    14.1762 </r>
       <r>    -2.2998     1.4188    14.2707 </r>
       <r>    -2.2333     1.2410    14.3590 </r>
       <r>    -2.1668     1.0851    14.4362 </r>
       <r>    -2.1003     0.9511    14.5038 </r>
       <r>    -2.0338     0.8646    14.5634 </r>
       <r>    -1.9673     0.7505    14.6204 </r>
       <r>    -1.9008     0.7662    14.6708 </r>
       <r>    -1.8343     0.7808    14.7222 </r>
       <r>    -1.7678     0.7943    14.7746 </r>
       <r>    -1.7013     0.8067    14.8279 </r>
       <r>    -1.6348     0.8179    14.8819 </r>
       <r>    -1.5683     0.8369    14.9369 </r>
       <r>    -1.5018     0.8620    14.9933 </r>
       <r>    -1.4353     0.8928    15.0517 </r>
       <r>    -1.3688     0.9295    15.1122 </r>
       <r>    -1.3023     0.9720    15.1754 </r>
       <r>    -1.2358     1.0203    15.2416 </r>
       <r>    -1.1692     1.0745    15.3113 </r>
       <r>    -1.1027     1.1592    15.3850 </r>
       <r>    -1.0362     1.6806    15.4672 </r>
       <r>    -0.9697     3.2437    15.6474 </r>
       <r>    -0.9032     3.4405    15.8693 </r>
       <r>    -0.8367     3.6409    16.1056 </r>
       <r>    -0.7702     5.9532    16.4056 </r>
       <r>    -0.7037     6.8123    16.8482 </r>
       <r>    -0.6372     6.1360    17.2729 </r>
       <r>    -0.5707     5.5435    17.6626 </r>
       <r>    -0.5042     5.0871    18.0081 </r>
       <r>    -0.4377     4.7795    18.3333 </r>
       <r>    -0.3712     4.3730    18.6382 </r>
       <r>    -0.3047     4.3710    18.9289 </r>
       <r>    -0.2382     4.3915    19.2201 </r>
       <r>    -0.1717     5.1202    19.5308 </r>
       <r>    -0.1052     4.8019    19.8732 </r>
       <r>    -0.0387     4.4116    20.1635 </r>
       <r>     0.0278     4.5069    20.4601 </r>
       <r>     0.0943     5.0374    20.7673 </r>
       <r>     0.1608     6.3161    21.1311 </r>
       <r>     0.2273     7.4687    21.5783 </r>
       <r>     0.2938     7.0197    22.0742 </r>
       <r>     0.3604     8.8967    22.5596 </r>
       <r>     0.4269     7.0260    23.0489 </r>
       <r>     0.4934     6.5652    23.5010 </r>
       <r>     0.5599     6.0781    23.9216 </r>
       <r>     0.6264     5.2983    24.2966 </r>
       <r>     0.6929     4.8472    24.6332 </r>
       <r>     0.7594     4.5224    24.9441 </r>
       <r>     0.8259     4.8748    25.2507 </r>
       <r>     0.8924     5.3931    25.5927 </r>
       <r>     0.9589     6.3320    26.0094 </r>
       <r>     1.0254     5.2633    26.3520 </r>
       <r>     1.0919     5.6068    26.7135 </r>
       <r>     1.1584     6.9227    27.1118 </r>
       <r>     1.2249     9.1987    27.6146 </r>
       <r>     1.2914     5.8152    28.1260 </r>
       <r>     1.3579     5.1003    28.4889 </r>
       <r>     1.4244     4.3788    28.8042 </r>
       <r>     1.4909     3.4293    29.1042 </r>
       <r>     1.5574     2.4129    29.2751 </r>
       <r>     1.6239     2.2272    29.4258 </r>
       <r>     1.6904     2.9225    29.5917 </r>
       <r>     1.7569     3.8752    29.8175 </r>
       <r>     1.8234     5.3831    30.1494 </r>
       <r>     1.8899     5.5023    30.4960 </r>
       <r>     1.9565     5.5603    30.8651 </r>
       <r>     2.0230     4.1693    31.2123 </r>
       <r>     2.0895     1.7735    31.3828 </r>
       <r>     2.1560     1.5531    31.4934 </r>
       <r>     2.2225     1.3369    31.5895 </r>
       <r>     2.2890     1.1249    31.6713 </r>
       <r>     2.3555     0.9360    31.7394 </r>
       <r>     2.4220     1.0112    31.8032 </r>
       <r>     2.4885     0.9963    31.8708 </r>
       <r>     2.5550     0.8181    31.9321 </r>
       <r>     2.6215     0.4766    31.9760 </r>
       <r>     2.6880     0.1285    31.9937 </r>
       <r>     2.7545     0.0387    31.9990 </r>
       <r>     2.8210     0.0012    32.0000 </r>
       <r>     2.8875     0.0000    32.0000 </r>
       <r>     2.9540     0.0000    32.0000 </r>
       <r>     3.0205     0.0000    32.0000 </r>
       <r>     3.0870     0.0000    32.0000 </r>
       <r>     3.1535     0.0000    32.0000 </r>
       <r>     3.2200     0.0000    32.0000 </r>
       <r>     3.2865     0.0000    32.0000 </r>
       <r>     3.3530     0.0000    32.0000 </r>
       <r>     3.4195     0.0000    32.0000 </r>
       <r>     3.4861     0.0000    32.0000 </r>
       <r>     3.5526     0.0008    32.0000 </r>
       <r>     3.6191     0.0037    32.0002 </r>
       <r>     3.6856     0.0089    32.0006 </r>
       <r>     3.7521     0.0162    32.0014 </r>
       <r>     3.8186     0.0258    32.0028 </r>
       <r>     3.8851     0.0375    32.0049 </r>
       <r>     3.9516     0.0514    32.0078 </r>
       <r>     4.0181     0.4244    32.0311 </r>
       <r>     4.0846     0.2252    32.0447 </r>
       <r>     4.1511     0.2713    32.0612 </r>
       <r>     4.2176     0.3222    32.0809 </r>
       <r>     4.2841     0.3941    32.1043 </r>
       <r>     4.3506     0.5371    32.1349 </r>
       <r>     4.4171     0.7440    32.1772 </r>
       <r>     4.4836     1.0149    32.2353 </r>
       <r>     4.5501     1.2720    32.3124 </r>
       <r>     4.6166     1.4281    32.4020 </r>
       <r>     4.6831     1.6361    32.5030 </r>
       <r>     4.7496     3.0845    32.6817 </r>
       <r>     4.8161     2.8110    32.8534 </r>
       <r>     4.8826     3.5051    33.0596 </r>
       <r>     4.9491     5.6941    33.3732 </r>
       <r>     5.0156     7.4309    33.8381 </r>
       <r>     5.0822     6.9954    34.3180 </r>
       <r>     5.1487     6.8303    34.7620 </r>
       <r>     5.2152     7.3583    35.2311 </r>
       <r>     5.2817     9.0840    35.7595 </r>
       <r>     5.3482     7.7803    36.3616 </r>
       <r>     5.4147     5.9788    36.7922 </r>
       <r>     5.4812     5.9472    37.1889 </r>
       <r>     5.5477     5.8774    37.5823 </r>
       <r>     5.6142     7.1702    37.9986 </r>
       <r>     5.6807     5.8042    38.4332 </r>
       <r>     5.7472     6.1026    38.8321 </r>
       <r>     5.8137     6.9353    39.3210 </r>
       <r>     5.8802     3.8349    39.5830 </r>
       <r>     5.9467     3.6463    39.8316 </r>
       <r>     6.0132     3.4825    40.0686 </r>
       <r>     6.0797     3.3434    40.2954 </r>
       <r>     6.1462     3.2470    40.5140 </r>
       <r>     6.2127     2.6304    40.7214 </r>
       <r>     6.2792     2.5514    40.8979 </r>
       <r>     6.3457     1.9811    41.0247 </r>
       <r>     6.4122     2.1321    41.1614 </r>
       <r>     6.4787     2.2828    41.3082 </r>
       <r>     6.5452     2.4331    41.4651 </r>
       <r>     6.6118     2.5829    41.6319 </r>
       <r>     6.6783     2.8110    41.8106 </r>
       <r>     6.7448     3.0742    42.0062 </r>
       <r>     6.8113     5.2601    42.3197 </r>
       <r>     6.8778     4.9074    42.6293 </r>
       <r>     6.9443     5.5542    42.9771 </r>
       <r>     7.0108     6.4649    43.3775 </r>
       <r>     7.0773    11.1892    43.9310 </r>
       <r>     7.1438     7.2078    44.4947 </r>
       <r>     7.2103     5.2560    44.9068 </r>
       <r>     7.2768     4.2283    45.2269 </r>
       <r>     7.3433     2.6519    45.4332 </r>
       <r>     7.4098     2.9767    45.6201 </r>
       <r>     7.4763     3.3595    45.8304 </r>
       <r>     7.5428     5.1167    46.0849 </r>
       <r>     7.6093     8.8838    46.4963 </r>
       <r>     7.6758     6.5578    47.0840 </r>
       <r>     7.7423     4.4208    47.4088 </r>
       <r>     7.8088     3.5353    47.6731 </r>
       <r>     7.8753     1.9336    47.8481 </r>
       <r>     7.9418     1.1528    47.9508 </r>
       <r>     8.0083     0.0000    48.0000 </r>
       <r>     8.0748     0.0000    48.0000 </r>
       <r>     8.1413     0.0000    48.0000 </r>
       <r>     8.2079     0.0000    48.0000 </r>
       <r>     8.2744     0.0000    48.0000 </r>
       <r>     8.3409     0.0000    48.0000 </r>
       <r>     8.4074     0.0000    48.0000 </r>
       <r>     8.4739     0.0000    48.0000 </r>
       <r>     8.5404     0.0000    48.0000 </r>
       <r>     8.6069     0.0000    48.0000 </r>
       <r>     8.6734     0.0000    48.0000 </r>
       <r>     8.7399     0.0000    48.0000 </r>
       <r>     8.8064     0.0000    48.0000 </r>
       <r>     8.8729     0.0000    48.0000 </r>
       <r>     8.9394     0.0000    48.0000 </r>
       <r>     9.0059     0.0000    48.0000 </r>
      </set>
     </set>
    </array>
   </total>
  </dos>
 </calculation>
 <structure name="finalpos" >
  <crystal>
   <varray name="basis" >
    <v>       5.63360713       0.00000000       0.00000000 </v>
    <v>       0.00000000       5.63360713       0.00000000 </v>
    <v>       0.00000000       0.00000000       5.63360713 </v>
   </varray>
   <i name="volume">    178.79677174 </i>
   <varray name="rec_basis" >
    <v>       0.17750617       0.00000000       0.00000000 </v>
    <v>       0.00000000       0.17750617       0.00000000 </v>
    <v>       0.00000000       0.00000000       0.17750617 </v>
   </varray>
  </crystal>
  <varray name="positions" >
   <v>       0.00000000       0.00000000       0.00000000 </v>
   <v>       0.50000000       0.50000000       0.00000000 </v>
   <v>       0.50000000       0.00000000       0.50000000 </v>
   <v>       0.00000000       0.50000000       0.50000000 </v>
   <v>       0.25000000       0.25000000       0.25000000 </v>
   <v>       0.75000000       0.25000000       0.75000000 </v>
   <v>       0.75000000       0.75000000       0.25000000 </v>
   <v>       0.25000000       0.75000000       0.75000000 </v>
  </varray>
 </structure>
</modeling>
