  64  64   0   0
  0.2393928E+02  0.1153833E-08  0.1152323E-08  0.1152323E-08  0.1000000E-15
  1.000000000000000E-004
  CAR 
 GaAs                                    
      7.66345652    -11.02113785  301      2.31499138      1.00000000
    -11.021  0.0000E+00  0.0000E+00
    -10.959  0.0000E+00  0.0000E+00
    -10.897  0.0000E+00  0.0000E+00
    -10.834  0.0000E+00  0.0000E+00
    -10.772  0.0000E+00  0.0000E+00
    -10.710  0.0000E+00  0.0000E+00
    -10.647  0.0000E+00  0.0000E+00
    -10.585  0.0000E+00  0.0000E+00
    -10.523  0.0000E+00  0.0000E+00
    -10.461  0.0000E+00  0.0000E+00
    -10.398  0.0000E+00  0.0000E+00
    -10.336  0.0000E+00  0.0000E+00
    -10.274  0.0000E+00  0.0000E+00
    -10.211  0.0000E+00  0.0000E+00
    -10.149  0.0000E+00  0.0000E+00
    -10.087  0.0000E+00  0.0000E+00
    -10.025  0.0000E+00  0.0000E+00
     -9.962  0.3723E-01  0.9683E-03
     -9.900  0.5357E-01  0.3659E-02
     -9.838  0.1018E+00  0.9046E-02
     -9.775  0.7316E-01  0.1397E-01
     -9.713  0.6730E-01  0.1824E-01
     -9.651  0.1132E+00  0.2396E-01
     -9.589  0.1682E+00  0.3121E-01
     -9.526  0.1151E+00  0.3952E-01
     -9.464  0.1253E+00  0.4715E-01
     -9.402  0.1945E+00  0.5755E-01
     -9.340  0.9857E-01  0.6670E-01
     -9.277  0.1572E+00  0.7507E-01
     -9.215  0.1444E+00  0.8421E-01
     -9.153  0.2834E+00  0.9902E-01
     -9.090  0.3371E+00  0.1171E+00
     -9.028  0.9560E-01  0.1279E+00
     -8.966  0.4533E+00  0.1378E+00
     -8.904  0.2279E+00  0.1541E+00
     -8.841  0.1933E+00  0.1656E+00
     -8.779  0.4036E+00  0.1873E+00
     -8.717  0.2743E+00  0.2070E+00
     -8.654  0.3221E+00  0.2260E+00
     -8.592  0.3785E+00  0.2481E+00
     -8.530  0.5480E+00  0.2752E+00
     -8.468  0.5654E+00  0.3115E+00
     -8.405  0.8621E+00  0.3447E+00
     -8.343  0.6703E+00  0.3791E+00
     -8.281  0.4076E+00  0.4079E+00
     -8.218  0.4887E+00  0.4303E+00
     -8.156  0.6277E+00  0.4638E+00
     -8.094  0.6502E+00  0.5027E+00
     -8.032  0.5451E+00  0.5330E+00
     -7.969  0.7037E+00  0.5670E+00
     -7.907  0.7832E+00  0.6163E+00
     -7.845  0.7707E-01  0.6400E+00
     -7.782  0.0000E+00  0.6400E+00
     -7.720  0.0000E+00  0.6400E+00
     -7.658  0.0000E+00  0.6400E+00
     -7.596  0.0000E+00  0.6400E+00
     -7.533  0.0000E+00  0.6400E+00
     -7.471  0.0000E+00  0.6400E+00
     -7.409  0.0000E+00  0.6400E+00
     -7.347  0.0000E+00  0.6400E+00
     -7.284  0.0000E+00  0.6400E+00
     -7.222  0.0000E+00  0.6400E+00
     -7.160  0.0000E+00  0.6400E+00
     -7.097  0.0000E+00  0.6400E+00
     -7.035  0.0000E+00  0.6400E+00
     -6.973  0.0000E+00  0.6400E+00
     -6.911  0.0000E+00  0.6400E+00
     -6.848  0.0000E+00  0.6400E+00
     -6.786  0.0000E+00  0.6400E+00
     -6.724  0.0000E+00  0.6400E+00
     -6.661  0.0000E+00  0.6400E+00
     -6.599  0.0000E+00  0.6400E+00
     -6.537  0.0000E+00  0.6400E+00
     -6.475  0.0000E+00  0.6400E+00
     -6.412  0.0000E+00  0.6400E+00
     -6.350  0.0000E+00  0.6400E+00
     -6.288  0.0000E+00  0.6400E+00
     -6.225  0.0000E+00  0.6400E+00
     -6.163  0.0000E+00  0.6400E+00
     -6.101  0.0000E+00  0.6400E+00
     -6.039  0.0000E+00  0.6400E+00
     -5.976  0.0000E+00  0.6400E+00
     -5.914  0.0000E+00  0.6400E+00
     -5.852  0.0000E+00  0.6400E+00
     -5.789  0.0000E+00  0.6400E+00
     -5.727  0.0000E+00  0.6400E+00
     -5.665  0.0000E+00  0.6400E+00
     -5.603  0.0000E+00  0.6400E+00
     -5.540  0.0000E+00  0.6400E+00
     -5.478  0.0000E+00  0.6400E+00
     -5.416  0.0000E+00  0.6400E+00
     -5.353  0.0000E+00  0.6400E+00
     -5.291  0.0000E+00  0.6400E+00
     -5.229  0.0000E+00  0.6400E+00
     -5.167  0.0000E+00  0.6400E+00
     -5.104  0.0000E+00  0.6400E+00
     -5.042  0.0000E+00  0.6400E+00
     -4.980  0.0000E+00  0.6400E+00
     -4.918  0.0000E+00  0.6400E+00
     -4.855  0.0000E+00  0.6400E+00
     -4.793  0.0000E+00  0.6400E+00
     -4.731  0.0000E+00  0.6400E+00
     -4.668  0.0000E+00  0.6400E+00
     -4.606  0.0000E+00  0.6400E+00
     -4.544  0.0000E+00  0.6400E+00
     -4.482  0.0000E+00  0.6400E+00
     -4.419  0.0000E+00  0.6400E+00
     -4.357  0.0000E+00  0.6400E+00
     -4.295  0.0000E+00  0.6400E+00
     -4.232  0.2618E-01  0.6401E+00
     -4.170  0.1383E+00  0.6451E+00
     -4.108  0.2888E+00  0.6564E+00
     -4.046  0.7027E+00  0.6906E+00
     -3.983  0.7898E+00  0.7296E+00
     -3.921  0.1175E+01  0.7822E+00
     -3.859  0.1091E+01  0.8470E+00
     -3.796  0.2732E+00  0.8804E+00
     -3.734  0.1087E+01  0.9297E+00
     -3.672  0.1912E+00  0.9452E+00
     -3.610  0.1982E+00  0.9558E+00
     -3.547  0.5418E+00  0.9770E+00
     -3.485  0.2969E+00  0.9994E+00
     -3.423  0.1972E+00  0.1014E+01
     -3.360  0.1475E+00  0.1024E+01
     -3.298  0.3276E+00  0.1036E+01
     -3.236  0.3068E+00  0.1064E+01
     -3.174  0.1558E+00  0.1073E+01
     -3.111  0.1124E+00  0.1082E+01
     -3.049  0.7532E-01  0.1087E+01
     -2.987  0.1194E+00  0.1093E+01
     -2.924  0.1237E+00  0.1101E+01
     -2.862  0.1759E+00  0.1111E+01
     -2.800  0.1404E+00  0.1120E+01
     -2.738  0.1339E+00  0.1129E+01
     -2.675  0.1289E+00  0.1137E+01
     -2.613  0.1308E+00  0.1145E+01
     -2.551  0.1259E+00  0.1153E+01
     -2.489  0.6271E-01  0.1158E+01
     -2.426  0.6344E-01  0.1162E+01
     -2.364  0.7120E-01  0.1166E+01
     -2.302  0.8144E-01  0.1171E+01
     -2.239  0.1166E+00  0.1177E+01
     -2.177  0.1077E+00  0.1184E+01
     -2.115  0.7132E-01  0.1190E+01
     -2.053  0.8082E-01  0.1195E+01
     -1.990  0.6223E-01  0.1200E+01
     -1.928  0.4829E-01  0.1202E+01
     -1.866  0.4227E-01  0.1205E+01
     -1.803  0.3686E-01  0.1208E+01
     -1.741  0.3770E-01  0.1210E+01
     -1.679  0.4015E-01  0.1212E+01
     -1.617  0.7769E-01  0.1216E+01
     -1.554  0.9784E-01  0.1222E+01
     -1.492  0.8531E-01  0.1228E+01
     -1.430  0.7051E-01  0.1232E+01
     -1.367  0.6916E-01  0.1237E+01
     -1.305  0.1583E+00  0.1243E+01
     -1.243  0.2828E+00  0.1257E+01
     -1.181  0.4841E+00  0.1280E+01
     -1.118  0.4409E+00  0.1309E+01
     -1.056  0.4604E+00  0.1336E+01
     -0.994  0.4731E+00  0.1369E+01
     -0.931  0.3684E+00  0.1395E+01
     -0.869  0.4373E+00  0.1420E+01
     -0.807  0.3587E+00  0.1441E+01
     -0.745  0.2523E+00  0.1462E+01
     -0.682  0.3356E+00  0.1480E+01
     -0.620  0.3296E+00  0.1499E+01
     -0.558  0.4316E+00  0.1525E+01
     -0.495  0.3966E+00  0.1549E+01
     -0.433  0.4620E+00  0.1575E+01
     -0.371  0.5154E+00  0.1605E+01
     -0.309  0.4900E+00  0.1637E+01
     -0.246  0.4775E+00  0.1668E+01
     -0.184  0.4639E+00  0.1696E+01
     -0.122  0.4681E+00  0.1726E+01
     -0.060  0.6026E+00  0.1763E+01
      0.003  0.4441E+00  0.1796E+01
      0.065  0.5122E+00  0.1831E+01
      0.127  0.5124E+00  0.1860E+01
      0.190  0.5492E+00  0.1894E+01
      0.252  0.5348E+00  0.1927E+01
      0.314  0.4380E+00  0.1950E+01
      0.376  0.3955E+00  0.1978E+01
      0.439  0.6201E+00  0.2013E+01
      0.501  0.6961E+00  0.2048E+01
      0.563  0.9480E+00  0.2084E+01
      0.626  0.3478E+00  0.2114E+01
      0.688  0.5139E+00  0.2141E+01
      0.750  0.4968E+00  0.2173E+01
      0.812  0.4084E+00  0.2201E+01
      0.875  0.6220E+00  0.2227E+01
      0.937  0.4084E+00  0.2258E+01
      0.999  0.3687E+00  0.2281E+01
      1.062  0.4427E+00  0.2304E+01
      1.124  0.4638E+00  0.2333E+01
      1.186  0.4226E+00  0.2361E+01
      1.248  0.5457E+00  0.2392E+01
      1.311  0.3989E+00  0.2421E+01
      1.373  0.2464E+00  0.2440E+01
      1.435  0.1968E+00  0.2453E+01
      1.498  0.2290E+00  0.2468E+01
      1.560  0.2271E+00  0.2481E+01
      1.622  0.1890E+00  0.2495E+01
      1.684  0.1165E+00  0.2504E+01
      1.747  0.1349E+00  0.2511E+01
      1.809  0.1219E+00  0.2519E+01
      1.871  0.2061E+00  0.2532E+01
      1.934  0.5884E-01  0.2537E+01
      1.996  0.1180E+00  0.2542E+01
      2.058  0.1158E+00  0.2550E+01
      2.120  0.6312E-01  0.2556E+01
      2.183  0.3573E-01  0.2558E+01
      2.245  0.6472E-02  0.2560E+01
      2.307  0.0000E+00  0.2560E+01
      2.369  0.0000E+00  0.2560E+01
      2.432  0.6891E-07  0.2560E+01
      2.494  0.1381E-04  0.2560E+01
      2.556  0.5140E-04  0.2560E+01
      2.619  0.1129E-03  0.2560E+01
      2.681  0.1982E-03  0.2560E+01
      2.743  0.3073E-03  0.2560E+01
      2.805  0.4403E-03  0.2560E+01
      2.868  0.5972E-03  0.2560E+01
      2.930  0.7779E-03  0.2560E+01
      2.992  0.9825E-03  0.2560E+01
      3.055  0.1211E-02  0.2560E+01
      3.117  0.1463E-02  0.2560E+01
      3.179  0.1806E-02  0.2560E+01
      3.241  0.5325E-02  0.2561E+01
      3.304  0.1337E-01  0.2561E+01
      3.366  0.2105E-01  0.2562E+01
      3.428  0.2853E-01  0.2564E+01
      3.491  0.6379E-01  0.2567E+01
      3.553  0.6878E-01  0.2571E+01
      3.615  0.8516E-01  0.2576E+01
      3.677  0.6857E-01  0.2580E+01
      3.740  0.8426E-01  0.2585E+01
      3.802  0.1111E+00  0.2591E+01
      3.864  0.1361E+00  0.2599E+01
      3.927  0.2356E+00  0.2613E+01
      3.989  0.2790E+00  0.2625E+01
      4.051  0.3669E+00  0.2645E+01
      4.113  0.2721E+00  0.2666E+01
      4.176  0.1984E+00  0.2679E+01
      4.238  0.2597E+00  0.2692E+01
      4.300  0.3039E+00  0.2710E+01
      4.363  0.5457E+00  0.2739E+01
      4.425  0.3986E+00  0.2766E+01
      4.487  0.5500E+00  0.2790E+01
      4.549  0.6336E+00  0.2823E+01
      4.612  0.5086E+00  0.2859E+01
      4.674  0.7172E+00  0.2898E+01
      4.736  0.6758E+00  0.2940E+01
      4.798  0.6274E+00  0.2982E+01
      4.861  0.4415E+00  0.3017E+01
      4.923  0.3863E+00  0.3042E+01
      4.985  0.3792E+00  0.3068E+01
      5.048  0.4645E+00  0.3089E+01
      5.110  0.3576E+00  0.3116E+01
      5.172  0.3094E+00  0.3136E+01
      5.234  0.3442E+00  0.3156E+01
      5.297  0.2552E+00  0.3178E+01
      5.359  0.1740E+00  0.3190E+01
      5.421  0.3908E+00  0.3206E+01
      5.484  0.3255E+00  0.3227E+01
      5.546  0.2229E+00  0.3244E+01
      5.608  0.4638E+00  0.3265E+01
      5.670  0.1873E+00  0.3278E+01
      5.733  0.2002E+00  0.3290E+01
      5.795  0.2146E+00  0.3303E+01
      5.857  0.2042E+00  0.3317E+01
      5.920  0.1494E+00  0.3327E+01
      5.982  0.1230E+00  0.3335E+01
      6.044  0.1025E+00  0.3342E+01
      6.106  0.8602E-01  0.3348E+01
      6.169  0.6812E-01  0.3353E+01
      6.231  0.3494E-01  0.3356E+01
      6.293  0.2439E-01  0.3358E+01
      6.356  0.1270E-01  0.3359E+01
      6.418  0.9208E-02  0.3359E+01
      6.480  0.5888E-02  0.3360E+01
      6.542  0.3231E-03  0.3360E+01
      6.605  0.7336E-04  0.3360E+01
      6.667  0.0000E+00  0.3360E+01
      6.729  0.0000E+00  0.3360E+01
      6.792  0.0000E+00  0.3360E+01
      6.854  0.0000E+00  0.3360E+01
      6.916  0.0000E+00  0.3360E+01
      6.978  0.0000E+00  0.3360E+01
      7.041  0.0000E+00  0.3360E+01
      7.103  0.0000E+00  0.3360E+01
      7.165  0.0000E+00  0.3360E+01
      7.227  0.0000E+00  0.3360E+01
      7.290  0.0000E+00  0.3360E+01
      7.352  0.0000E+00  0.3360E+01
      7.414  0.0000E+00  0.3360E+01
      7.477  0.0000E+00  0.3360E+01
      7.539  0.0000E+00  0.3360E+01
      7.601  0.0000E+00  0.3360E+01
      7.663  0.0000E+00  0.3360E+01
