 vasp.6.4.3 19Mar24 (build Aug 29 2024 15:27:20) complex                        
  
 executed on             LinuxIFC date 2025.03.24  12:04:03
 running    8 mpi-ranks, on    1 nodes
 distrk:  each k-point on    8 cores,    1 groups
 distr:  one band on NCORE=   1 cores,    8 groups


--------------------------------------------------------------------------------------------------------


 INCAR:
   SYSTEM = GaAs
   PREC = Normal
   ENCUT = 400
   ISMEAR = -5
   SIGMA = 0.1
   IBRION = 2
   POTIM = 0.1
   NFREE = 2
   NSW = 100
   ISIF = 2
   LEPSILON = .TRUE.
   LOPTICS = .TRUE.

 POTCAR:    PAW_PBE As 22Sep2009                  
 POTCAR:    PAW_PBE Ga 08Apr2002                  
 -----------------------------------------------------------------------------
|                                                                             |
|           W    W    AA    RRRRR   N    N  II  N    N   GGGG   !!!           |
|           W    W   A  A   R    R  NN   N  II  NN   N  G    G  !!!           |
|           W    W  A    A  R    R  N N  N  II  N N  N  G       !!!           |
|           W WW W  AAAAAA  RRRRR   N  N N  II  N  N N  G  GGG   !            |
|           WW  WW  A    A  R   R   N   NN  II  N   NN  G    G                |
|           W    W  A    A  R    R  N    N  II  N    N   GGGG   !!!           |
|                                                                             |
|     For optimal performance we recommend to set                             |
|       NCORE = 2 up to number-of-cores-per-socket                            |
|     NCORE specifies how many cores store one orbital (NPAR=cpu/NCORE).      |
|     This setting can greatly improve the performance of VASP for DFT.       |
|     The default, NCORE=1 might be grossly inefficient on modern             |
|     multi-core architectures or massively parallel machines. Do your        |
|     own testing! More info at https://www.vasp.at/wiki/index.php/NCORE      |
|     Unfortunately you need to use the default for GW and RPA                |
|     calculations (for HF NCORE is supported but not extensively tested      |
|     yet).                                                                   |
|                                                                             |
 -----------------------------------------------------------------------------

 POTCAR:    PAW_PBE As 22Sep2009                  
   VRHFIN =As: s2p3                                                                                 
   LEXCH  = PE                                                                                      
   EATOM  =   170.1867 eV,   12.5084 Ry                                                             
                                                                                                    
   TITEL  = PAW_PBE As 22Sep2009                                                                    
   LULTRA =        F    use ultrasoft PP ?                                                          
   IUNSCR =        1    unscreen: 0-lin 1-nonlin 2-no                                               
   RPACOR =    1.900    partial core radius                                                         
   POMASS =   74.922; ZVAL   =    5.000    mass and valenz                                          
   RCORE  =    2.100    outmost cutoff radius                                                       
   RWIGS  =    2.300; RWIGS  =    1.217    wigner-seitz radius (au A)                               
   ENMAX  =  208.702; ENMIN  =  156.526 eV                                                          
   ICORE  =        3    local potential                                                             
   LCOR   =        T    correct aug charges                                                         
   LPAW   =        T    paw PP                                                                      
   EAUG   =  462.758                                                                                
   DEXC   =    0.000                                                                                
   RMAX   =    2.144    core radius for proj-oper                                                   
   RAUG   =    1.300    factor for augmentation sphere                                              
   RDEP   =    2.140    radius for radial grids                                                     
   RDEPT  =    1.956    core radius for aug-charge                                                  
                                                                                                    
   Atomic configuration                                                                             
   10 entries                                                                                       
     n  l   j            E        occ.                                                              
     1  0  0.50    -11718.0418   2.0000                                                             
     2  0  0.50     -1486.5454   2.0000                                                             
     2  1  1.50     -1303.3889   6.0000                                                             
     3  0  0.50      -190.2849   2.0000                                                             
     3  1  1.50      -133.6555   6.0000                                                             
     3  2  2.50       -40.6443  10.0000                                                             
     4  0  0.50       -14.4936   2.0000                                                             
     4  1  0.50        -5.1947   3.0000                                                             
     4  2  1.50        -5.4423   0.0000                                                             
     4  3  2.50        -5.4423   0.0000                                                             
   Description                                                                                      
     l       E           TYP  RCUT    TYP  RCUT                                                     
     0    -14.4935570     23  2.100                                                                 
     0    -11.9212055     23  2.100                                                                 
     1     -5.1947127     23  2.100                                                                 
     1     27.2116520     23  2.100                                                                 
     2     -5.4423304     23  2.100                                                                 
     3     -1.3605826      7  2.100                                                                 
  local pseudopotential read in
  partial core-charges read in
  partial kinetic energy density read in
  atomic valenz-charges read in
  non local Contribution for L=           0  read in
    real space projection operators read in
  non local Contribution for L=           0  read in
    real space projection operators read in
  non local Contribution for L=           1  read in
    real space projection operators read in
  non local Contribution for L=           1  read in
    real space projection operators read in
  non local Contribution for L=           2  read in
    real space projection operators read in
    PAW grid and wavefunctions read in
 
   number of l-projection  operators is LMAX  =           5
   number of lm-projection operators is LMMAX =          13
 
 POTCAR:    PAW_PBE Ga 08Apr2002                  
   VRHFIN =Ga: s2p1                                                                                 
   LEXCH  = PE                                                                                      
   EATOM  =    58.8688 eV,    4.3267 Ry                                                             
                                                                                                    
   TITEL  = PAW_PBE Ga 08Apr2002                                                                    
   LULTRA =        F    use ultrasoft PP ?                                                          
   IUNSCR =        1    unscreen: 0-lin 1-nonlin 2-no                                               
   RPACOR =    2.170    partial core radius                                                         
   POMASS =   69.723; ZVAL   =    3.000    mass and valenz                                          
   RCORE  =    2.600    outmost cutoff radius                                                       
   RWIGS  =    2.650; RWIGS  =    1.402    wigner-seitz radius (au A)                               
   ENMAX  =  134.678; ENMIN  =  101.009 eV                                                          
   ICORE  =        3    local potential                                                             
   LCOR   =        T    correct aug charges                                                         
   LPAW   =        T    paw PP                                                                      
   EAUG   =  320.264                                                                                
   DEXC   =    0.000                                                                                
   RMAX   =    2.658    core radius for proj-oper                                                   
   RAUG   =    1.300    factor for augmentation sphere                                              
   RDEP   =    2.684    radius for radial grids                                                     
   RDEPT  =    2.308    core radius for aug-charge                                                  
                                                                                                    
   Atomic configuration                                                                             
   10 entries                                                                                       
     n  l   j            E        occ.                                                              
     1  0  0.50    -10228.7830   2.0000                                                             
     2  0  0.50     -1262.1604   2.0000                                                             
     2  1  1.50     -1098.6333   6.0000                                                             
     3  0  0.50      -148.1110   2.0000                                                             
     3  1  1.50       -98.8436   6.0000                                                             
     3  2  2.50       -19.1549  10.0000                                                             
     4  0  0.50        -8.9483   2.0000                                                             
     4  1  0.50        -2.5791   1.0000                                                             
     4  2  1.50         5.4423   0.0000                                                             
     4  3  2.50        -2.7416   0.0000                                                             
   Description                                                                                      
     l       E           TYP  RCUT    TYP  RCUT                                                     
     0     -8.9483097     23  2.600                                                                 
     0     -5.8232215     23  2.600                                                                 
     1     -2.5790793     23  2.600                                                                 
     1      5.2230115     23  2.600                                                                 
     2      1.3605826     23  2.600                                                                 
     3     -1.3605826      7  2.600                                                                 
  local pseudopotential read in
  partial core-charges read in
  partial kinetic energy density read in
  atomic valenz-charges read in
  non local Contribution for L=           0  read in
    real space projection operators read in
  non local Contribution for L=           0  read in
    real space projection operators read in
  non local Contribution for L=           1  read in
    real space projection operators read in
  non local Contribution for L=           1  read in
    real space projection operators read in
  non local Contribution for L=           2  read in
    real space projection operators read in
    PAW grid and wavefunctions read in
 
   number of l-projection  operators is LMAX  =           5
   number of lm-projection operators is LMMAX =          13
 
 -----------------------------------------------------------------------------
|                                                                             |
|               ----> ADVICE to this user running VASP <----                  |
|                                                                             |
|     You have a (more or less) 'large supercell' and for larger cells it     |
|     might be more efficient to use real-space projection operators.         |
|     Therefore, try LREAL= Auto in the INCAR file.                           |
|     Mind: For very accurate calculation, you might also keep the            |
|     reciprocal projection scheme (i.e. LREAL=.FALSE.).                      |
|                                                                             |
 -----------------------------------------------------------------------------

  PAW_PBE As 22Sep2009                  :
 energy of atom  1       EATOM= -170.1867
 kinetic energy error for atom=    0.0013 (will be added to EATOM!!)
  PAW_PBE Ga 08Apr2002                  :
 energy of atom  2       EATOM=  -58.8688
 kinetic energy error for atom=    0.0001 (will be added to EATOM!!)
 
 
 POSCAR: cubic gallium arsenide
  positions in direct lattice
  velocities in cartesian coordinates


 exchange-correlation table for PE
   RHO(1)=    0.500       N(1)  =     2000
   RHO(2)=  100.500       N(2)  =     4000
 


--------------------------------------------------------------------------------------------------------


 ion  position               nearest neighbor table
   1  0.000  0.000  0.000-  33 2.50  46 2.50  55 2.50  60 2.50
   2  0.000  0.000  0.500-  34 2.50  45 2.50  56 2.50  59 2.50
   3  0.000  0.500  0.000-  35 2.50  48 2.50  53 2.50  58 2.50
   4  0.000  0.500  0.500-  36 2.50  47 2.50  54 2.50  57 2.50
   5  0.500  0.000  0.000-  37 2.50  42 2.50  51 2.50  64 2.50
   6  0.500  0.000  0.500-  38 2.50  41 2.50  52 2.50  63 2.50
   7  0.500  0.500  0.000-  39 2.50  44 2.50  49 2.50  62 2.50
   8  0.500  0.500  0.500-  40 2.50  43 2.50  50 2.50  61 2.50
   9  0.250  0.250  0.000-  33 2.50  42 2.50  49 2.50  58 2.50
  10  0.250  0.250  0.500-  34 2.50  41 2.50  50 2.50  57 2.50
  11  0.250  0.750  0.000-  35 2.50  44 2.50  51 2.50  60 2.50
  12  0.250  0.750  0.500-  36 2.50  43 2.50  52 2.50  59 2.50
  13  0.750  0.250  0.000-  37 2.50  46 2.50  53 2.50  62 2.50
  14  0.750  0.250  0.500-  38 2.50  45 2.50  54 2.50  61 2.50
  15  0.750  0.750  0.000-  39 2.50  48 2.50  55 2.50  64 2.50
  16  0.750  0.750  0.500-  40 2.50  47 2.50  56 2.50  63 2.50
  17  0.250  0.000  0.250-  33 2.50  41 2.50  51 2.50  59 2.50
  18  0.250  0.000  0.750-  34 2.50  42 2.50  52 2.50  60 2.50
  19  0.250  0.500  0.250-  35 2.50  43 2.50  49 2.50  57 2.50
  20  0.250  0.500  0.750-  36 2.50  44 2.50  50 2.50  58 2.50
  21  0.750  0.000  0.250-  37 2.50  45 2.50  55 2.50  63 2.50
  22  0.750  0.000  0.750-  38 2.50  46 2.50  56 2.50  64 2.50
  23  0.750  0.500  0.250-  39 2.50  47 2.50  53 2.50  61 2.50
  24  0.750  0.500  0.750-  40 2.50  48 2.50  54 2.50  62 2.50
  25  0.000  0.250  0.250-  33 2.50  45 2.50  53 2.50  57 2.50
  26  0.000  0.250  0.750-  34 2.50  46 2.50  54 2.50  58 2.50
  27  0.000  0.750  0.250-  35 2.50  47 2.50  55 2.50  59 2.50
  28  0.000  0.750  0.750-  36 2.50  48 2.50  56 2.50  60 2.50
  29  0.500  0.250  0.250-  37 2.50  41 2.50  49 2.50  61 2.50
  30  0.500  0.250  0.750-  38 2.50  42 2.50  50 2.50  62 2.50
  31  0.500  0.750  0.250-  39 2.50  43 2.50  51 2.50  63 2.50
  32  0.500  0.750  0.750-  40 2.50  44 2.50  52 2.50  64 2.50
  33  0.125  0.125  0.125-   1 2.50   9 2.50  17 2.50  25 2.50
  34  0.125  0.125  0.625-   2 2.50  10 2.50  18 2.50  26 2.50
  35  0.125  0.625  0.125-   3 2.50  11 2.50  19 2.50  27 2.50
  36  0.125  0.625  0.625-   4 2.50  12 2.50  20 2.50  28 2.50
  37  0.625  0.125  0.125-   5 2.50  13 2.50  21 2.50  29 2.50
  38  0.625  0.125  0.625-   6 2.50  14 2.50  22 2.50  30 2.50
  39  0.625  0.625  0.125-   7 2.50  15 2.50  23 2.50  31 2.50
  40  0.625  0.625  0.625-   8 2.50  16 2.50  24 2.50  32 2.50
  41  0.375  0.125  0.375-   6 2.50  10 2.50  17 2.50  29 2.50
  42  0.375  0.125  0.875-   5 2.50   9 2.50  18 2.50  30 2.50
  43  0.375  0.625  0.375-   8 2.50  12 2.50  19 2.50  31 2.50
  44  0.375  0.625  0.875-   7 2.50  11 2.50  20 2.50  32 2.50
  45  0.875  0.125  0.375-   2 2.50  14 2.50  21 2.50  25 2.50
  46  0.875  0.125  0.875-   1 2.50  13 2.50  22 2.50  26 2.50
  47  0.875  0.625  0.375-   4 2.50  16 2.50  23 2.50  27 2.50
  48  0.875  0.625  0.875-   3 2.50  15 2.50  24 2.50  28 2.50
  49  0.375  0.375  0.125-   7 2.50   9 2.50  19 2.50  29 2.50
  50  0.375  0.375  0.625-   8 2.50  10 2.50  20 2.50  30 2.50
  51  0.375  0.875  0.125-   5 2.50  11 2.50  17 2.50  31 2.50
  52  0.375  0.875  0.625-   6 2.50  12 2.50  18 2.50  32 2.50
  53  0.875  0.375  0.125-   3 2.50  13 2.50  23 2.50  25 2.50
  54  0.875  0.375  0.625-   4 2.50  14 2.50  24 2.50  26 2.50
  55  0.875  0.875  0.125-   1 2.50  15 2.50  21 2.50  27 2.50
  56  0.875  0.875  0.625-   2 2.50  16 2.50  22 2.50  28 2.50
  57  0.125  0.375  0.375-   4 2.50  10 2.50  19 2.50  25 2.50
  58  0.125  0.375  0.875-   3 2.50   9 2.50  20 2.50  26 2.50
  59  0.125  0.875  0.375-   2 2.50  12 2.50  17 2.50  27 2.50
  60  0.125  0.875  0.875-   1 2.50  11 2.50  18 2.50  28 2.50
  61  0.625  0.375  0.375-   8 2.50  14 2.50  23 2.50  29 2.50
  62  0.625  0.375  0.875-   7 2.50  13 2.50  24 2.50  30 2.50
  63  0.625  0.875  0.375-   6 2.50  16 2.50  21 2.50  31 2.50
  64  0.625  0.875  0.875-   5 2.50  15 2.50  22 2.50  32 2.50
 
  LATTYP: Found a simple tetragonal cell.
 ALAT       =    11.5232265256
 C/A-ratio  =     1.0013104062
  
  Lattice vectors:
  
 A1 = (   0.0000000000,  11.5232265256,   0.0000000000)
 A2 = (   0.0000000000,   0.0000000000,  11.5232265256)
 A3 = (  11.5383266334,   0.0000000000,   0.0000000000)


Analysis of symmetry for initial positions (statically):
=====================================================================
 Subroutine PRICEL returns following result:
 
  LATTYP: Found a body centered tetragonal cell.
 ALAT       =     4.0740758087
 C/A-ratio  =     1.4160667566
  
  Lattice vectors:
  
 A1 = (   2.8845816583,   0.0000000000,   2.8808066314)
 A2 = (   2.8845816583,   0.0000000000,  -2.8808066314)
 A3 = (  -2.8845816583,   2.8808066314,   0.0000000000)
 
  32 primitive cells build up your supercell.
 

 Routine SETGRP: Setting up the symmetry group for a 
 simple tetragonal supercell.


 Subroutine GETGRP returns: Found  8 space group operations
 (whereof  8 operations were pure point group operations)
 out of a pool of 16 trial point group operations.


The static configuration has the point symmetry D_2d.


Analysis of symmetry for dynamics (positions and initial velocities):
=====================================================================
 Subroutine PRICEL returns following result:
 
  LATTYP: Found a body centered tetragonal cell.
 ALAT       =     4.0740758087
 C/A-ratio  =     1.4160667566
  
  Lattice vectors:
  
 A1 = (   2.8845816583,   0.0000000000,   2.8808066314)
 A2 = (   2.8845816583,   0.0000000000,  -2.8808066314)
 A3 = (  -2.8845816583,   2.8808066314,   0.0000000000)
 
  32 primitive cells build up your supercell.
 

 Routine SETGRP: Setting up the symmetry group for a 
 simple tetragonal supercell.


 Subroutine GETGRP returns: Found  8 space group operations
 (whereof  8 operations were pure point group operations)
 out of a pool of 16 trial point group operations.


The dynamic configuration has the point symmetry D_2d.


 Subroutine INISYM returns: Found  8 space group operations
 (whereof  8 operations are pure point group operations),
 and found    32 'primitive' translations


----------------------------------------------------------------------------------------

                                     Primitive cell                                     

  volume of cell :      47.8786

  direct lattice vectors                    reciprocal lattice vectors
     2.884581658  0.000000000  2.880806631     0.173335360  0.173562500  0.173562500
     2.884581658  0.000000000 -2.880806631     0.173335360  0.173562500 -0.173562500
    -2.884581658  2.880806631  0.000000000     0.000000000  0.347124999  0.000000000

  length of vectors
     4.076746030  4.076746030  4.076746030     0.300487986  0.300487986  0.347124999

  position of ions in fractional coordinates (direct lattice)
     0.000000000  0.000000000  0.000000000
     0.750000000  0.250000000  0.500000000

  ion indices of the primitive-cell ions
   primitive index   ion index
                 1           1
                 2          33

----------------------------------------------------------------------------------------

 
 
 KPOINTS: Automatic mesh                          

Automatic generation of k-mesh.
 Grid dimensions read from file:
 generate k-points for:    5    5    5

 Generating k-lattice:

  Cartesian coordinates                     Fractional coordinates (reciprocal lattice)
     0.017333536  0.000000000  0.000000000     0.200000000  0.000000000  0.000000000
     0.000000000  0.017356250  0.000000000     0.000000000  0.200000000  0.000000000
     0.000000000  0.000000000  0.017356250     0.000000000  0.000000000  0.200000000

  Length of vectors
     0.017333536  0.017356250  0.017356250

  Shift w.r.t. Gamma in fractional coordinates (k-lattice)
     0.000000000  0.000000000  0.000000000

 TETIRR: Found    177 inequivalent tetrahedra from      750
 
 Subroutine IBZKPT returns following result:
 ===========================================
 
 Found     18 irreducible k-points:
 
 Following reciprocal coordinates:
            Coordinates               Weight
  0.000000  0.000000  0.000000      1.000000
  0.200000  0.000000  0.000000      2.000000
  0.400000  0.000000  0.000000      2.000000
  0.000000  0.200000  0.000000      4.000000
  0.200000  0.200000  0.000000      8.000000
  0.400000  0.200000  0.000000      8.000000
  0.000000  0.400000  0.000000      4.000000
  0.200000  0.400000  0.000000      8.000000
  0.400000  0.400000  0.000000      8.000000
  0.000000  0.200000  0.200000      4.000000
  0.200000  0.200000  0.200000      8.000000
  0.400000  0.200000  0.200000      8.000000
  0.000000  0.400000  0.200000      8.000000
  0.200000  0.400000  0.200000     16.000000
  0.400000  0.400000  0.200000     16.000000
  0.000000  0.400000  0.400000      4.000000
  0.200000  0.400000  0.400000      8.000000
  0.400000  0.400000  0.400000      8.000000
 
 Following cartesian coordinates:
            Coordinates               Weight
  0.000000  0.000000  0.000000      1.000000
  0.017334  0.000000  0.000000      2.000000
  0.034667  0.000000  0.000000      2.000000
  0.000000  0.017356  0.000000      4.000000
  0.017334  0.017356  0.000000      8.000000
  0.034667  0.017356  0.000000      8.000000
  0.000000  0.034712  0.000000      4.000000
  0.017334  0.034712  0.000000      8.000000
  0.034667  0.034712  0.000000      8.000000
  0.000000  0.017356  0.017356      4.000000
  0.017334  0.017356  0.017356      8.000000
  0.034667  0.017356  0.017356      8.000000
  0.000000  0.034712  0.017356      8.000000
  0.017334  0.034712  0.017356     16.000000
  0.034667  0.034712  0.017356     16.000000
  0.000000  0.034712  0.034712      4.000000
  0.017334  0.034712  0.034712      8.000000
  0.034667  0.034712  0.034712      8.000000
 
 
 Subroutine IBZKPT_HF returns following result:
 ==============================================
 
 Found    125 k-points in 1st BZ
 the following    125 k-points will be used (e.g. in the exchange kernel)
 Following reciprocal coordinates:   # in IRBZ
  0.000000  0.000000  0.000000    0.00800000   1 t-inv F
  0.200000  0.000000  0.000000    0.00800000   2 t-inv F
  0.400000  0.000000  0.000000    0.00800000   3 t-inv F
  0.000000  0.200000  0.000000    0.00800000   4 t-inv F
  0.200000  0.200000  0.000000    0.00800000   5 t-inv F
  0.400000  0.200000  0.000000    0.00800000   6 t-inv F
  0.000000  0.400000  0.000000    0.00800000   7 t-inv F
  0.200000  0.400000  0.000000    0.00800000   8 t-inv F
  0.400000  0.400000  0.000000    0.00800000   9 t-inv F
  0.000000  0.200000  0.200000    0.00800000  10 t-inv F
  0.200000  0.200000  0.200000    0.00800000  11 t-inv F
  0.400000  0.200000  0.200000    0.00800000  12 t-inv F
  0.000000  0.400000  0.200000    0.00800000  13 t-inv F
  0.200000  0.400000  0.200000    0.00800000  14 t-inv F
  0.400000  0.400000  0.200000    0.00800000  15 t-inv F
  0.000000  0.400000  0.400000    0.00800000  16 t-inv F
  0.200000  0.400000  0.400000    0.00800000  17 t-inv F
  0.400000  0.400000  0.400000    0.00800000  18 t-inv F
 -0.200000  0.000000  0.000000    0.00800000   2 t-inv F
 -0.400000  0.000000  0.000000    0.00800000   3 t-inv F
  0.000000  0.000000 -0.200000    0.00800000   4 t-inv F
  0.000000 -0.200000  0.000000    0.00800000   4 t-inv F
  0.000000  0.000000  0.200000    0.00800000   4 t-inv F
 -0.200000  0.000000 -0.200000    0.00800000   5 t-inv F
  0.200000 -0.200000  0.000000    0.00800000   5 t-inv F
 -0.200000  0.000000  0.200000    0.00800000   5 t-inv F
 -0.200000 -0.200000  0.000000    0.00800000   5 t-inv F
  0.200000  0.000000 -0.200000    0.00800000   5 t-inv F
 -0.200000  0.200000  0.000000    0.00800000   5 t-inv F
  0.200000  0.000000  0.200000    0.00800000   5 t-inv F
 -0.400000  0.000000 -0.200000    0.00800000   6 t-inv F
  0.400000 -0.200000  0.000000    0.00800000   6 t-inv F
 -0.400000  0.000000  0.200000    0.00800000   6 t-inv F
 -0.400000 -0.200000  0.000000    0.00800000   6 t-inv F
  0.400000  0.000000 -0.200000    0.00800000   6 t-inv F
 -0.400000  0.200000  0.000000    0.00800000   6 t-inv F
  0.400000  0.000000  0.200000    0.00800000   6 t-inv F
  0.000000  0.000000 -0.400000    0.00800000   7 t-inv F
  0.000000 -0.400000  0.000000    0.00800000   7 t-inv F
  0.000000  0.000000  0.400000    0.00800000   7 t-inv F
 -0.200000  0.000000 -0.400000    0.00800000   8 t-inv F
  0.200000 -0.400000  0.000000    0.00800000   8 t-inv F
 -0.200000  0.000000  0.400000    0.00800000   8 t-inv F
 -0.200000 -0.400000  0.000000    0.00800000   8 t-inv F
  0.200000  0.000000 -0.400000    0.00800000   8 t-inv F
 -0.200000  0.400000  0.000000    0.00800000   8 t-inv F
  0.200000  0.000000  0.400000    0.00800000   8 t-inv F
 -0.400000  0.000000 -0.400000    0.00800000   9 t-inv F
  0.400000 -0.400000  0.000000    0.00800000   9 t-inv F
 -0.400000  0.000000  0.400000    0.00800000   9 t-inv F
 -0.400000 -0.400000  0.000000    0.00800000   9 t-inv F
  0.400000  0.000000 -0.400000    0.00800000   9 t-inv F
 -0.400000  0.400000  0.000000    0.00800000   9 t-inv F
  0.400000  0.000000  0.400000    0.00800000   9 t-inv F
  0.000000  0.200000 -0.200000    0.00800000  10 t-inv F
  0.000000 -0.200000 -0.200000    0.00800000  10 t-inv F
  0.000000 -0.200000  0.200000    0.00800000  10 t-inv F
 -0.200000  0.200000 -0.200000    0.00800000  11 t-inv F
  0.200000 -0.200000 -0.200000    0.00800000  11 t-inv F
 -0.200000 -0.200000  0.200000    0.00800000  11 t-inv F
 -0.400000  0.200000 -0.200000    0.00800000  12 t-inv F
  0.400000 -0.200000 -0.200000    0.00800000  12 t-inv F
 -0.400000 -0.200000  0.200000    0.00800000  12 t-inv F
  0.000000  0.200000 -0.400000    0.00800000  13 t-inv F
  0.000000 -0.400000 -0.200000    0.00800000  13 t-inv F
  0.000000 -0.200000  0.400000    0.00800000  13 t-inv F
  0.000000 -0.400000  0.200000    0.00800000  13 t-inv F
  0.000000 -0.200000 -0.400000    0.00800000  13 t-inv F
  0.000000  0.400000 -0.200000    0.00800000  13 t-inv F
  0.000000  0.200000  0.400000    0.00800000  13 t-inv F
 -0.200000  0.200000 -0.400000    0.00800000  14 t-inv F
  0.200000 -0.400000 -0.200000    0.00800000  14 t-inv F
 -0.200000 -0.200000  0.400000    0.00800000  14 t-inv F
 -0.200000 -0.400000  0.200000    0.00800000  14 t-inv F
  0.200000 -0.200000 -0.400000    0.00800000  14 t-inv F
 -0.200000  0.400000 -0.200000    0.00800000  14 t-inv F
  0.200000  0.200000  0.400000    0.00800000  14 t-inv F
 -0.400000  0.200000 -0.400000    0.00800000  15 t-inv F
  0.400000 -0.400000 -0.200000    0.00800000  15 t-inv F
 -0.400000 -0.200000  0.400000    0.00800000  15 t-inv F
 -0.400000 -0.400000  0.200000    0.00800000  15 t-inv F
  0.400000 -0.200000 -0.400000    0.00800000  15 t-inv F
 -0.400000  0.400000 -0.200000    0.00800000  15 t-inv F
  0.400000  0.200000  0.400000    0.00800000  15 t-inv F
  0.000000  0.400000 -0.400000    0.00800000  16 t-inv F
  0.000000 -0.400000 -0.400000    0.00800000  16 t-inv F
  0.000000 -0.400000  0.400000    0.00800000  16 t-inv F
 -0.200000  0.400000 -0.400000    0.00800000  17 t-inv F
  0.200000 -0.400000 -0.400000    0.00800000  17 t-inv F
 -0.200000 -0.400000  0.400000    0.00800000  17 t-inv F
 -0.400000  0.400000 -0.400000    0.00800000  18 t-inv F
  0.400000 -0.400000 -0.400000    0.00800000  18 t-inv F
 -0.400000 -0.400000  0.400000    0.00800000  18 t-inv F
 -0.200000 -0.200000 -0.200000    0.00800000  11 t-inv T
  0.200000 -0.200000  0.200000    0.00800000  11 t-inv T
 -0.200000  0.200000  0.200000    0.00800000  11 t-inv T
  0.200000  0.200000 -0.200000    0.00800000  11 t-inv T
 -0.400000 -0.200000 -0.200000    0.00800000  12 t-inv T
  0.400000 -0.200000  0.200000    0.00800000  12 t-inv T
 -0.400000  0.200000  0.200000    0.00800000  12 t-inv T
  0.400000  0.200000 -0.200000    0.00800000  12 t-inv T
 -0.200000 -0.400000 -0.200000    0.00800000  14 t-inv T
  0.200000 -0.200000  0.400000    0.00800000  14 t-inv T
 -0.200000  0.400000  0.200000    0.00800000  14 t-inv T
  0.200000  0.200000 -0.400000    0.00800000  14 t-inv T
  0.200000  0.400000 -0.200000    0.00800000  14 t-inv T
 -0.200000  0.200000  0.400000    0.00800000  14 t-inv T
  0.200000 -0.400000  0.200000    0.00800000  14 t-inv T
 -0.200000 -0.200000 -0.400000    0.00800000  14 t-inv T
 -0.400000 -0.400000 -0.200000    0.00800000  15 t-inv T
  0.400000 -0.200000  0.400000    0.00800000  15 t-inv T
 -0.400000  0.400000  0.200000    0.00800000  15 t-inv T
  0.400000  0.200000 -0.400000    0.00800000  15 t-inv T
  0.400000  0.400000 -0.200000    0.00800000  15 t-inv T
 -0.400000  0.200000  0.400000    0.00800000  15 t-inv T
  0.400000 -0.400000  0.200000    0.00800000  15 t-inv T
 -0.400000 -0.200000 -0.400000    0.00800000  15 t-inv T
 -0.200000 -0.400000 -0.400000    0.00800000  17 t-inv T
  0.200000 -0.400000  0.400000    0.00800000  17 t-inv T
 -0.200000  0.400000  0.400000    0.00800000  17 t-inv T
  0.200000  0.400000 -0.400000    0.00800000  17 t-inv T
 -0.400000 -0.400000 -0.400000    0.00800000  18 t-inv T
  0.400000 -0.400000  0.400000    0.00800000  18 t-inv T
 -0.400000  0.400000  0.400000    0.00800000  18 t-inv T
  0.400000  0.400000 -0.400000    0.00800000  18 t-inv T


--------------------------------------------------------------------------------------------------------




 Dimension of arrays:
   k-points           NKPTS =     18   k-points in BZ     NKDIM =     18   number of bands    NBANDS=    168
   number of dos      NEDOS =    301   number of ions     NIONS =     64
   non local maximal  LDIM  =      5   non local SUM 2l+1 LMDIM =     13
   total plane-waves  NPLWV = 175616
   max r-space proj   IRMAX =      1   max aug-charges    IRDMAX=   8437
   dimension x,y,z NGX =    56 NGY =   56 NGZ =   56
   dimension x,y,z NGXF=   112 NGYF=  112 NGZF=  112
   support grid    NGXF=   112 NGYF=  112 NGZF=  112
   ions per type =              32  32
   NGX,Y,Z   is equivalent  to a cutoff of   8.07,  8.08,  8.08 a.u.
   NGXF,Y,Z  is equivalent  to a cutoff of  16.14, 16.16, 16.16 a.u.

 SYSTEM =  GaAs                                    
 POSCAR =  cubic gallium arsenide                  

 Startparameter for this run:
   NWRITE =      2    write-flag & timer
   PREC   = normal    normal or accurate (medium, high low for compatibility)
   ISTART =      0    job   : 0-new  1-cont  2-samecut
   ICHARG =      2    charge: 1-file 2-atom 10-const
   ISPIN  =      1    spin polarized calculation?
   LNONCOLLINEAR =      F non collinear calculations
   LSORBIT =      F    spin-orbit coupling
   INIWAV =      1    electr: 0-lowe 1-rand  2-diag
   LASPH  =      F    aspherical Exc in radial PAW
 Electronic Relaxation 1
   ENCUT  =  400.0 eV  29.40 Ry    5.42 a.u.  18.82 18.79 18.79*2*pi/ulx,y,z
   ENINI  =  400.0     initial cutoff
   ENAUG  =  462.8 eV  augmentation charge cutoff
   NELM   =     60;   NELMIN=  2; NELMDL= -5     # of ELM steps 
   EDIFF  = 0.1E-05   stopping-criterion for ELM
   LREAL  =      F    real-space projection
   NLSPLINE    = F    spline interpolate recip. space projectors
   LCOMPAT=      F    compatible to vasp.4.4
   GGA_COMPAT  = T    GGA compatible to vasp.4.4-vasp.4.6
   LMAXPAW     = -100 max onsite density
   LMAXMIX     =    2 max onsite mixed and CHGCAR
   VOSKOWN=      0    Vosko Wilk Nusair interpolation
   ROPT   =    0.00000   0.00000
 Ionic relaxation
   EDIFFG = 0.1E-02   stopping-criterion for IOM
   NSW    =    100    number of steps for IOM
   NBLOCK =      1;   KBLOCK =    100    inner block; outer block 
   IBRION =      2    ionic relax: 0-MD 1-quasi-New 2-CG
   NFREE  =      2    steps in history (QN), initial steepest desc. (CG)
   ISIF   =      2    stress and relaxation
   IWAVPR =     11    prediction:  0-non 1-charg 2-wave 3-comb
   ISYM   =      2    0-nonsym 1-usesym 2-fastsym
   LCORR  =      T    Harris-Foulkes like correction to forces

   POTIM  = 0.1000    time-step for ionic-motion
   TEIN   =    0.0    initial temperature
   TEBEG  =    0.0;   TEEND  =   0.0 temperature during run
   SMASS  =  -3.00    Nose mass-parameter (am)
   estimated Nose-frequenzy (Omega)   =  0.10E-29 period in steps = 0.63E+47 mass=  -0.304E-26a.u.
   SCALEE = 1.0000    scale energy and forces
   NPACO  =    256;   APACO  = 10.0  distance and # of slots for P.C.
   PSTRESS=    0.0 pullay stress

  Mass of Ions in am
   POMASS =  74.92 69.72
  Ionic Valenz
   ZVAL   =   5.00  3.00
  Atomic Wigner-Seitz radii
   RWIGS  =  -1.00 -1.00
  virtual crystal weights 
   VCA    =   1.00  1.00
   NELECT =     256.0000    total number of electrons
   NUPDOWN=      -1.0000    fix difference up-down

 DOS related values:
   EMIN   =  10.00;   EMAX   =-10.00  energy-range for DOS
   EFERMI =   0.00;   METHOD = LEGACY      
   ISMEAR =    -5;   SIGMA  =   0.10  broadening in eV -4-tet -1-fermi 0-gaus

 Electronic relaxation 2 (details)
   IALGO  =     38    algorithm
   LDIAG  =      T    sub-space diagonalisation (order eigenvalues)
   LSUBROT=      F    optimize rotation matrix (better conditioning)
   TURBO    =      0    0=normal 1=particle mesh
   IRESTART =      0    0=no restart 2=restart with 2 vectors
   NREBOOT  =      0    no. of reboots
   NMIN     =      0    reboot dimension
   EREF     =   0.00    reference energy to select bands
   IMIX   =      4    mixing-type and parameters
     AMIX     =   0.40;   BMIX     =  1.00
     AMIX_MAG =   1.60;   BMIX_MAG =  1.00
     AMIN     =   0.10
     WC   =   100.;   INIMIX=   1;  MIXPRE=   1;  MAXMIX= -45

 Intra band minimization:
   WEIMIN = 0.0010     energy-eigenvalue tresh-hold
   EBREAK =  0.15E-08  absolut break condition
   DEPER  =   0.30     relativ break condition  

   TIME   =   0.40     timestep for ELM

  volume/ion in A,a.u.               =      23.94       161.55
  Fermi-wavevector in a.u.,A,eV,Ry     =   0.901691  1.703949 11.062175  0.813047
  Thomas-Fermi vector in A             =   2.024803
 
 Write flags
   LWAVE        =      T    write WAVECAR
   LDOWNSAMPLE  =      F    k-point downsampling of WAVECAR
   LCHARG       =      T    write CHGCAR
   LVTOT        =      F    write LOCPOT, total local potential
   LVHAR        =      F    write LOCPOT, Hartree potential only
   WRT_POTENTIAL= false  ! write potential to hdf5 file
   LELF         =      F    write electronic localiz. function (ELF)
   LORBIT       =      0    0 simple, 1 ext, 2 COOP (PROOUT), +10 PAW based schemes


 Dipole corrections
   LMONO      =      F    monopole corrections only (constant potential shift)
   LDIPOL     =      F    correct potential (dipole corrections)
   IDIPOL     =      0    1-x, 2-y, 3-z, 4-all directions 
   EPSILON    =  1.0000000 bulk dielectric constant
   LVACPOTAV  =      F  vacuum potentials using an averaging scheme for the charge density
   VACPOTFLAT =  0.1000000 required flatness to determine vacuum potential
 Exchange correlation treatment:
   GGA     = PE    functional components
   XC_C    = 1    coefficients multiplying the functional components
   LIBXC   =     F    Libxc                    
   VOSKOWN =     0    Vosko Wilk Nusair interpolation
   LHFCALC =     F    Hartree Fock is set to
   LHFONE  =     F    Hartree Fock one center treatment
   AEXX    =    0.0000 exact exchange contribution

 Parameters of functionals:
   PE:
     No parameter
 
 Van der Waals corrections
   IVDW    =     0    specifies the selected vdW correction

 Linear response parameters
   LEPSILON=     T    determine dielectric tensor
   LRPA    =     F    only Hartree local field effects (RPA)
   LNABLA  =     F    use nabla operator in PAW spheres
   LVEL    =     F    velocity operator in full k-point grid
   CSHIFT  =0.1000    complex shift for real part using Kramers Kronig
   OMEGAMAX=  -1.0    maximum frequency
   DEG_THRESHOLD= 0.2000000E-02 threshold for treating states as degnerate
   RTIME   =   -0.100 relaxation time in fs
  (WPLASMAI=    0.000 imaginary part of plasma frequency in eV, 0.658/RTIME)
   DFIELD  = 0.0000000 0.0000000 0.0000000 field for delta impulse in time
 
  Optional k-point grid parameters
   LKPOINTS_OPT  =     F    use optional k-point grid
   KPOINTS_OPT_MODE=     1    mode for optional k-point grid
 
 Orbital magnetization related:
   ORBITALMAG=     F  switch on orbital magnetization
   LCHIMAG   =     F  perturbation theory with respect to B field
   DQ        =  0.001000  dq finite difference perturbation B field
   LLRAUG    =     F  two centre corrections for induced B field
   LBONE     =     F  B-component reconstruction in AE one-centre
   LVGVCALC  =     T  calculate vGv susceptibility
   LVGVAPPL  =     F  apply vGv susceptibility instead of pGv for G=0

 Random number generation:
   RANDOM_GENERATOR = DEFAULT
   PCG_SEED         = not used


--------------------------------------------------------------------------------------------------------


 conjugate gradient relaxation of ions
 charge density and potential will be updated during run
 non-spin polarized calculation
 Variant of blocked Davidson
 Davidson routine will perform the subspace rotation
 perform sub-space diagonalisation
    after iterative eigenvector-optimisation
 modified Broyden-mixing scheme, WC =      100.0
 initial mixing is a Kerker type mixing with AMIX =  0.4000 and BMIX =      1.0000
 Hartree-type preconditioning will be used
 using additional bands           40
 reciprocal scheme for non local part
 use partial core corrections
 calculate Harris-corrections to forces 
   (improved forces if not selfconsistent)
 use gradient corrections 
 use of overlap-Matrix (Vanderbilt PP)
 Fermi weights with tetrahedron method with Bloechl corrections


--------------------------------------------------------------------------------------------------------


  energy-cutoff  :      400.00
  volume of cell :     1532.11
      direct lattice vectors                 reciprocal lattice vectors
    11.538326633  0.000000000  0.000000000     0.086667680  0.000000000  0.000000000
     0.000000000 11.523226526  0.000000000     0.000000000  0.086781250  0.000000000
     0.000000000  0.000000000 11.523226526     0.000000000  0.000000000  0.086781250

  length of vectors
    11.538326633 11.523226526 11.523226526     0.086667680  0.086781250  0.086781250


 
 k-points in units of 2pi/SCALE and weight: Automatic mesh                          
   0.00000000  0.00000000  0.00000000       0.008
   0.01733354  0.00000000  0.00000000       0.016
   0.03466707  0.00000000  0.00000000       0.016
   0.00000000  0.01735625  0.00000000       0.032
   0.01733354  0.01735625  0.00000000       0.064
   0.03466707  0.01735625  0.00000000       0.064
   0.00000000  0.03471250  0.00000000       0.032
   0.01733354  0.03471250  0.00000000       0.064
   0.03466707  0.03471250  0.00000000       0.064
   0.00000000  0.01735625  0.01735625       0.032
   0.01733354  0.01735625  0.01735625       0.064
   0.03466707  0.01735625  0.01735625       0.064
   0.00000000  0.03471250  0.01735625       0.064
   0.01733354  0.03471250  0.01735625       0.128
   0.03466707  0.03471250  0.01735625       0.128
   0.00000000  0.03471250  0.03471250       0.032
   0.01733354  0.03471250  0.03471250       0.064
   0.03466707  0.03471250  0.03471250       0.064
 
 k-points in reciprocal lattice and weights: Automatic mesh                          
   0.00000000  0.00000000  0.00000000       0.008
   0.20000000  0.00000000  0.00000000       0.016
   0.40000000  0.00000000  0.00000000       0.016
   0.00000000  0.20000000  0.00000000       0.032
   0.20000000  0.20000000  0.00000000       0.064
   0.40000000  0.20000000  0.00000000       0.064
   0.00000000  0.40000000  0.00000000       0.032
   0.20000000  0.40000000  0.00000000       0.064
   0.40000000  0.40000000  0.00000000       0.064
   0.00000000  0.20000000  0.20000000       0.032
   0.20000000  0.20000000  0.20000000       0.064
   0.40000000  0.20000000  0.20000000       0.064
   0.00000000  0.40000000  0.20000000       0.064
   0.20000000  0.40000000  0.20000000       0.128
   0.40000000  0.40000000  0.20000000       0.128
   0.00000000  0.40000000  0.40000000       0.032
   0.20000000  0.40000000  0.40000000       0.064
   0.40000000  0.40000000  0.40000000       0.064
 
 position of ions in fractional coordinates (direct lattice) 
   0.00000000  0.00000000  0.00000000
   0.00000000  0.00000000  0.50000000
   0.00000000  0.50000000  0.00000000
   0.00000000  0.50000000  0.50000000
   0.50000000  0.00000000  0.00000000
   0.50000000  0.00000000  0.50000000
   0.50000000  0.50000000  0.00000000
   0.50000000  0.50000000  0.50000000
   0.25000000  0.25000000  0.00000000
   0.25000000  0.25000000  0.50000000
   0.25000000  0.75000000  0.00000000
   0.25000000  0.75000000  0.50000000
   0.75000000  0.25000000  0.00000000
   0.75000000  0.25000000  0.50000000
   0.75000000  0.75000000  0.00000000
   0.75000000  0.75000000  0.50000000
   0.25000000  0.00000000  0.25000000
   0.25000000  0.00000000  0.75000000
   0.25000000  0.50000000  0.25000000
   0.25000000  0.50000000  0.75000000
   0.75000000  0.00000000  0.25000000
   0.75000000  0.00000000  0.75000000
   0.75000000  0.50000000  0.25000000
   0.75000000  0.50000000  0.75000000
   0.00000000  0.25000000  0.25000000
   0.00000000  0.25000000  0.75000000
   0.00000000  0.75000000  0.25000000
   0.00000000  0.75000000  0.75000000
   0.50000000  0.25000000  0.25000000
   0.50000000  0.25000000  0.75000000
   0.50000000  0.75000000  0.25000000
   0.50000000  0.75000000  0.75000000
   0.12500000  0.12500000  0.12500000
   0.12500000  0.12500000  0.62500000
   0.12500000  0.62500000  0.12500000
   0.12500000  0.62500000  0.62500000
   0.62500000  0.12500000  0.12500000
   0.62500000  0.12500000  0.62500000
   0.62500000  0.62500000  0.12500000
   0.62500000  0.62500000  0.62500000
   0.37500000  0.12500000  0.37500000
   0.37500000  0.12500000  0.87500000
   0.37500000  0.62500000  0.37500000
   0.37500000  0.62500000  0.87500000
   0.87500000  0.12500000  0.37500000
   0.87500000  0.12500000  0.87500000
   0.87500000  0.62500000  0.37500000
   0.87500000  0.62500000  0.87500000
   0.37500000  0.37500000  0.12500000
   0.37500000  0.37500000  0.62500000
   0.37500000  0.87500000  0.12500000
   0.37500000  0.87500000  0.62500000
   0.87500000  0.37500000  0.12500000
   0.87500000  0.37500000  0.62500000
   0.87500000  0.87500000  0.12500000
   0.87500000  0.87500000  0.62500000
   0.12500000  0.37500000  0.37500000
   0.12500000  0.37500000  0.87500000
   0.12500000  0.87500000  0.37500000
   0.12500000  0.87500000  0.87500000
   0.62500000  0.37500000  0.37500000
   0.62500000  0.37500000  0.87500000
   0.62500000  0.87500000  0.37500000
   0.62500000  0.87500000  0.87500000
 
 position of ions in cartesian coordinates  (Angst):
   0.00000000  0.00000000  0.00000000
   0.00000000  0.00000000  5.76161326
   0.00000000  5.76161326  0.00000000
   0.00000000  5.76161326  5.76161326
   5.76916332  0.00000000  0.00000000
   5.76916332  0.00000000  5.76161326
   5.76916332  5.76161326  0.00000000
   5.76916332  5.76161326  5.76161326
   2.88458166  2.88080663  0.00000000
   2.88458166  2.88080663  5.76161326
   2.88458166  8.64241989  0.00000000
   2.88458166  8.64241989  5.76161326
   8.65374498  2.88080663  0.00000000
   8.65374498  2.88080663  5.76161326
   8.65374498  8.64241989  0.00000000
   8.65374498  8.64241989  5.76161326
   2.88458166  0.00000000  2.88080663
   2.88458166  0.00000000  8.64241989
   2.88458166  5.76161326  2.88080663
   2.88458166  5.76161326  8.64241989
   8.65374498  0.00000000  2.88080663
   8.65374498  0.00000000  8.64241989
   8.65374498  5.76161326  2.88080663
   8.65374498  5.76161326  8.64241989
   0.00000000  2.88080663  2.88080663
   0.00000000  2.88080663  8.64241989
   0.00000000  8.64241989  2.88080663
   0.00000000  8.64241989  8.64241989
   5.76916332  2.88080663  2.88080663
   5.76916332  2.88080663  8.64241989
   5.76916332  8.64241989  2.88080663
   5.76916332  8.64241989  8.64241989
   1.44229083  1.44040332  1.44040332
   1.44229083  1.44040332  7.20201658
   1.44229083  7.20201658  1.44040332
   1.44229083  7.20201658  7.20201658
   7.21145415  1.44040332  1.44040332
   7.21145415  1.44040332  7.20201658
   7.21145415  7.20201658  1.44040332
   7.21145415  7.20201658  7.20201658
   4.32687249  1.44040332  4.32120995
   4.32687249  1.44040332 10.08282321
   4.32687249  7.20201658  4.32120995
   4.32687249  7.20201658 10.08282321
  10.09603580  1.44040332  4.32120995
  10.09603580  1.44040332 10.08282321
  10.09603580  7.20201658  4.32120995
  10.09603580  7.20201658 10.08282321
   4.32687249  4.32120995  1.44040332
   4.32687249  4.32120995  7.20201658
   4.32687249 10.08282321  1.44040332
   4.32687249 10.08282321  7.20201658
  10.09603580  4.32120995  1.44040332
  10.09603580  4.32120995  7.20201658
  10.09603580 10.08282321  1.44040332
  10.09603580 10.08282321  7.20201658
   1.44229083  4.32120995  4.32120995
   1.44229083  4.32120995 10.08282321
   1.44229083 10.08282321  4.32120995
   1.44229083 10.08282321 10.08282321
   7.21145415  4.32120995  4.32120995
   7.21145415  4.32120995 10.08282321
   7.21145415 10.08282321  4.32120995
   7.21145415 10.08282321 10.08282321
 


--------------------------------------------------------------------------------------------------------


 k-point     1 :   0.0000 0.0000 0.0000  plane waves:   27825
 k-point     2 :   0.2000 0.0000 0.0000  plane waves:   27834
 k-point     3 :   0.4000 0.0000 0.0000  plane waves:   27810
 k-point     4 :   0.0000 0.2000 0.0000  plane waves:   27825
 k-point     5 :   0.2000 0.2000 0.0000  plane waves:   27851
 k-point     6 :   0.4000 0.2000 0.0000  plane waves:   27838
 k-point     7 :   0.0000 0.4000 0.0000  plane waves:   27820
 k-point     8 :   0.2000 0.4000 0.0000  plane waves:   27834
 k-point     9 :   0.4000 0.4000 0.0000  plane waves:   27823
 k-point    10 :   0.0000 0.2000 0.2000  plane waves:   27843
 k-point    11 :   0.2000 0.2000 0.2000  plane waves:   27810
 k-point    12 :   0.4000 0.2000 0.2000  plane waves:   27788
 k-point    13 :   0.0000 0.4000 0.2000  plane waves:   27842
 k-point    14 :   0.2000 0.4000 0.2000  plane waves:   27792
 k-point    15 :   0.4000 0.4000 0.2000  plane waves:   27845
 k-point    16 :   0.0000 0.4000 0.4000  plane waves:   27818
 k-point    17 :   0.2000 0.4000 0.4000  plane waves:   27836
 k-point    18 :   0.4000 0.4000 0.4000  plane waves:   27873

 maximum and minimum number of plane-waves per node :     27873    27788

 maximum number of plane-waves:     27873
 maximum index in each direction: 
   IXMAX=   18   IYMAX=   18   IZMAX=   18
   IXMIN=  -19   IYMIN=  -19   IZMIN=  -19


 serial   3D FFT for wavefunctions
 parallel 3D FFT for charge:
    minimum data exchange during FFTs selected (reduces bandwidth)


 total amount of memory used by VASP MPI-rank0   360854. kBytes
=======================================================================

   base      :      30000. kBytes
   nonl-proj :     132931. kBytes
   fftplans  :       6720. kBytes
   grid      :      17034. kBytes
   one-center:        519. kBytes
   wavefun   :     173650. kBytes
 
     INWAV:  cpu time      0.0000: real time      0.0013
 Broyden mixing: mesh for mixing (old mesh)
   NGX = 37   NGY = 37   NGZ = 37
  (NGX  =112   NGY  =112   NGZ  =112)
  gives a total of  50653 points

 initial charge density was supplied:
 charge density of overlapping atoms calculated
 number of electron     256.0000000 magnetization 
 keeping initial charge density in first step


--------------------------------------------------------------------------------------------------------


 Maximum index for augmentation-charges         1031 (set IRDMAX)


--------------------------------------------------------------------------------------------------------


 First call to EWALD:  gamma=   0.154
 Maximum number of real-space cells 3x 3x 3
 Maximum number of reciprocal cells 3x 3x 3

    FEWALD:  cpu time      0.0025: real time      0.0025


--------------------------------------- Ionic step        1  -------------------------------------------




--------------------------------------- Iteration      1(   1)  ---------------------------------------


    POTLOK:  cpu time      0.1127: real time      0.1259
    SETDIJ:  cpu time      0.0110: real time      0.0110
     EDDAV:  cpu time     68.5083: real time     69.5796
 BZINTS: Fermi energy:    9.771205;  256.000000 electrons
         Band energy: 0.381011E+03;  BLOECHL correction:   -0.022060
       DOS:  cpu time      0.0143: real time      0.0144
    --------------------------------------------
      LOOP:  cpu time     68.6463: real time     69.7309

 eigenvalue-minimisations  :  6048
 total energy-change (2. order) : 0.9358483E+03  (-0.8091685E+04)
 number of electron     256.0000000 magnetization 
 augmentation part      256.0000000 magnetization 

 Free energy of the ion-electron system (eV)
  ---------------------------------------------------
  alpha Z        PSCENC =       571.60672240
  Ewald energy   TEWEN  =     -7192.47644434
  -Hartree energ DENC   =      -602.00183895
  -exchange      EXHF   =         0.00000000
  -V(xc)+E(xc)   XCENC  =      -996.25030808
  PAW double counting   =      6692.16565901    -5247.93935635
  entropy T*S    EENTRO =         0.00000000
  eigenvalues    EBANDS =       381.01084626
  atomic energy  EATOM  =      7329.73306348
  Solvation  Ediel_sol  =         0.00000000
  ---------------------------------------------------
  free energy    TOTEN  =       935.84834342 eV

  energy without entropy =      935.84834342  energy(sigma->0) =      935.84834342


--------------------------------------------------------------------------------------------------------




--------------------------------------- Iteration      1(   2)  ---------------------------------------


     EDDAV:  cpu time     79.1952: real time     80.4553
 BZINTS: Fermi energy:    3.048544;  256.000000 electrons
         Band energy:-0.721923E+03;  BLOECHL correction:    0.000000
       DOS:  cpu time      0.0094: real time      0.0094
    --------------------------------------------
      LOOP:  cpu time     79.2046: real time     80.4647

 eigenvalue-minimisations  :  7184
 total energy-change (2. order) :-0.1102934E+04  (-0.1050881E+04)
 number of electron     256.0000000 magnetization 
 augmentation part      256.0000000 magnetization 

 Free energy of the ion-electron system (eV)
  ---------------------------------------------------
  alpha Z        PSCENC =       571.60672240
  Ewald energy   TEWEN  =     -7192.47644434
  -Hartree energ DENC   =      -602.00183895
  -exchange      EXHF   =         0.00000000
  -V(xc)+E(xc)   XCENC  =      -996.25030808
  PAW double counting   =      6692.16565901    -5247.93935635
  entropy T*S    EENTRO =         0.00000000
  eigenvalues    EBANDS =      -721.92325079
  atomic energy  EATOM  =      7329.73306348
  Solvation  Ediel_sol  =         0.00000000
  ---------------------------------------------------
  free energy    TOTEN  =      -167.08575362 eV

  energy without entropy =     -167.08575362  energy(sigma->0) =     -167.08575362


--------------------------------------------------------------------------------------------------------




--------------------------------------- Iteration      1(   3)  ---------------------------------------


     EDDAV:  cpu time     81.6629: real time     82.9767
 BZINTS: Fermi energy:    1.821505;  256.000000 electrons
         Band energy:-0.822489E+03;  BLOECHL correction:    0.000000
       DOS:  cpu time      0.0091: real time      0.0092
    --------------------------------------------
      LOOP:  cpu time     81.6720: real time     82.9859

 eigenvalue-minimisations  :  7424
 total energy-change (2. order) :-0.1005653E+03  (-0.9917881E+02)
 number of electron     256.0000000 magnetization 
 augmentation part      256.0000000 magnetization 

 Free energy of the ion-electron system (eV)
  ---------------------------------------------------
  alpha Z        PSCENC =       571.60672240
  Ewald energy   TEWEN  =     -7192.47644434
  -Hartree energ DENC   =      -602.00183895
  -exchange      EXHF   =         0.00000000
  -V(xc)+E(xc)   XCENC  =      -996.25030808
  PAW double counting   =      6692.16565901    -5247.93935635
  entropy T*S    EENTRO =         0.00000000
  eigenvalues    EBANDS =      -822.48854334
  atomic energy  EATOM  =      7329.73306348
  Solvation  Ediel_sol  =         0.00000000
  ---------------------------------------------------
  free energy    TOTEN  =      -267.65104618 eV

  energy without entropy =     -267.65104618  energy(sigma->0) =     -267.65104618


--------------------------------------------------------------------------------------------------------




--------------------------------------- Iteration      1(   4)  ---------------------------------------


     EDDAV:  cpu time     79.9670: real time     81.2437
 BZINTS: Fermi energy:    1.819171;  256.000000 electrons
         Band energy:-0.825012E+03;  BLOECHL correction:    0.000000
       DOS:  cpu time      0.0095: real time      0.0096
    --------------------------------------------
      LOOP:  cpu time     79.9765: real time     81.2533

 eigenvalue-minimisations  :  7264
 total energy-change (2. order) :-0.2523700E+01  (-0.2493419E+01)
 number of electron     256.0000000 magnetization 
 augmentation part      256.0000000 magnetization 

 Free energy of the ion-electron system (eV)
  ---------------------------------------------------
  alpha Z        PSCENC =       571.60672240
  Ewald energy   TEWEN  =     -7192.47644434
  -Hartree energ DENC   =      -602.00183895
  -exchange      EXHF   =         0.00000000
  -V(xc)+E(xc)   XCENC  =      -996.25030808
  PAW double counting   =      6692.16565901    -5247.93935635
  entropy T*S    EENTRO =         0.00000000
  eigenvalues    EBANDS =      -825.01224318
  atomic energy  EATOM  =      7329.73306348
  Solvation  Ediel_sol  =         0.00000000
  ---------------------------------------------------
  free energy    TOTEN  =      -270.17474601 eV

  energy without entropy =     -270.17474601  energy(sigma->0) =     -270.17474601


--------------------------------------------------------------------------------------------------------




--------------------------------------- Iteration      1(   5)  ---------------------------------------


     EDDAV:  cpu time     81.2656: real time     82.4570
 BZINTS: Fermi energy:    1.807871;  256.000000 electrons
         Band energy:-0.825089E+03;  BLOECHL correction:    0.000000
       DOS:  cpu time      0.0098: real time      0.0098
    CHARGE:  cpu time      0.7015: real time      0.7063
    MIXING:  cpu time      0.0032: real time      0.0033
    --------------------------------------------
      LOOP:  cpu time     81.9801: real time     83.1765

 eigenvalue-minimisations  :  7424
 total energy-change (2. order) :-0.7670228E-01  (-0.7644016E-01)
 number of electron     255.9999560 magnetization 
 augmentation part      -41.5303745 magnetization 

 Broyden mixing:
  rms(total) = 0.20175E+01    rms(broyden)= 0.20175E+01
  rms(prec ) = 0.23001E+01
  weight for this iteration     100.00

 Free energy of the ion-electron system (eV)
  ---------------------------------------------------
  alpha Z        PSCENC =       571.60672240
  Ewald energy   TEWEN  =     -7192.47644434
  -Hartree energ DENC   =      -602.00183895
  -exchange      EXHF   =         0.00000000
  -V(xc)+E(xc)   XCENC  =      -996.25030808
  PAW double counting   =      6692.16565901    -5247.93935635
  entropy T*S    EENTRO =         0.00000000
  eigenvalues    EBANDS =      -825.08894545
  atomic energy  EATOM  =      7329.73306348
  Solvation  Ediel_sol  =         0.00000000
  ---------------------------------------------------
  free energy    TOTEN  =      -270.25144828 eV

  energy without entropy =     -270.25144828  energy(sigma->0) =     -270.25144828


--------------------------------------------------------------------------------------------------------




--------------------------------------- Iteration      1(   6)  ---------------------------------------


    POTLOK:  cpu time      0.1117: real time      0.1172
    SETDIJ:  cpu time      0.0108: real time      0.0109
     EDDAV:  cpu time     78.3933: real time     79.5297
 BZINTS: Fermi energy:    2.055324;  256.000000 electrons
         Band energy:-0.773429E+03;  BLOECHL correction:    0.000000
       DOS:  cpu time      0.0093: real time      0.0094
    CHARGE:  cpu time      0.7575: real time      0.7625
    MIXING:  cpu time      0.0034: real time      0.0034
    --------------------------------------------
      LOOP:  cpu time     79.2862: real time     80.4331

 eigenvalue-minimisations  :  7048
 total energy-change (2. order) : 0.4196160E+01  (-0.6514447E+00)
 number of electron     255.9999568 magnetization 
 augmentation part      -41.4044904 magnetization 

 Broyden mixing:
  rms(total) = 0.11845E+01    rms(broyden)= 0.11845E+01
  rms(prec ) = 0.13095E+01
  weight for this iteration     100.00

 eigenvalues of (default mixing * dielectric matrix)
  average eigenvalue GAMMA=   2.2614
  2.2614

 Free energy of the ion-electron system (eV)
  ---------------------------------------------------
  alpha Z        PSCENC =       571.60672240
  Ewald energy   TEWEN  =     -7192.47644434
  -Hartree energ DENC   =      -652.75254125
  -exchange      EXHF   =         0.00000000
  -V(xc)+E(xc)   XCENC  =      -987.44091548
  PAW double counting   =      9413.19369295    -7974.48968755
  entropy T*S    EENTRO =         0.00000000
  eigenvalues    EBANDS =      -773.42917894
  atomic energy  EATOM  =      7329.73306348
  Solvation  Ediel_sol  =         0.00000000
  ---------------------------------------------------
  free energy    TOTEN  =      -266.05528875 eV

  energy without entropy =     -266.05528875  energy(sigma->0) =     -266.05528875


--------------------------------------------------------------------------------------------------------




--------------------------------------- Iteration      1(   7)  ---------------------------------------


    POTLOK:  cpu time      0.1097: real time      0.1167
    SETDIJ:  cpu time      0.0113: real time      0.0114
     EDDAV:  cpu time     85.4870: real time     86.7020
 BZINTS: Fermi energy:    2.321038;  256.000000 electrons
         Band energy:-0.724540E+03;  BLOECHL correction:    0.000000
       DOS:  cpu time      0.0095: real time      0.0096
    CHARGE:  cpu time      0.7217: real time      0.7257
    MIXING:  cpu time      0.0043: real time      0.0043
    --------------------------------------------
      LOOP:  cpu time     86.3436: real time     87.5696

 eigenvalue-minimisations  :  7320
 total energy-change (2. order) : 0.8340604E+00  (-0.4318209E+00)
 number of electron     255.9999575 magnetization 
 augmentation part      -41.2757081 magnetization 

 Broyden mixing:
  rms(total) = 0.24472E+00    rms(broyden)= 0.24472E+00
  rms(prec ) = 0.28755E+00
  weight for this iteration     100.00

 eigenvalues of (default mixing * dielectric matrix)
  average eigenvalue GAMMA=   1.9365
  1.6148  2.2582

 Free energy of the ion-electron system (eV)
  ---------------------------------------------------
  alpha Z        PSCENC =       571.60672240
  Ewald energy   TEWEN  =     -7192.47644434
  -Hartree energ DENC   =      -705.83183958
  -exchange      EXHF   =         0.00000000
  -V(xc)+E(xc)   XCENC  =      -976.59823687
  PAW double counting   =     13948.79846259   -12515.91301326
  entropy T*S    EENTRO =         0.00000000
  eigenvalues    EBANDS =      -724.53994278
  atomic energy  EATOM  =      7329.73306348
  Solvation  Ediel_sol  =         0.00000000
  ---------------------------------------------------
  free energy    TOTEN  =      -265.22122838 eV

  energy without entropy =     -265.22122838  energy(sigma->0) =     -265.22122838


--------------------------------------------------------------------------------------------------------




--------------------------------------- Iteration      1(   8)  ---------------------------------------


    POTLOK:  cpu time      0.1103: real time      0.1135
    SETDIJ:  cpu time      0.0110: real time      0.0111
     EDDAV:  cpu time     82.6041: real time     83.8834
 BZINTS: Fermi energy:    2.285940;  256.000000 electrons
         Band energy:-0.726253E+03;  BLOECHL correction:    0.000000
       DOS:  cpu time      0.0092: real time      0.0092
    CHARGE:  cpu time      0.7515: real time      0.7682
    MIXING:  cpu time      0.0035: real time      0.0035
    --------------------------------------------
      LOOP:  cpu time     83.4895: real time     84.7890

 eigenvalue-minimisations  :  7056
 total energy-change (2. order) : 0.4112418E-01  (-0.5032267E-01)
 number of electron     255.9999573 magnetization 
 augmentation part      -41.2847794 magnetization 

 Broyden mixing:
  rms(total) = 0.61579E-01    rms(broyden)= 0.61579E-01
  rms(prec ) = 0.71664E-01
  weight for this iteration     100.00

 eigenvalues of (default mixing * dielectric matrix)
  average eigenvalue GAMMA=   1.9502
  2.6817  1.5845  1.5845

 Free energy of the ion-electron system (eV)
  ---------------------------------------------------
  alpha Z        PSCENC =       571.60672240
  Ewald energy   TEWEN  =     -7192.47644434
  -Hartree energ DENC   =      -705.12933362
  -exchange      EXHF   =         0.00000000
  -V(xc)+E(xc)   XCENC  =      -975.24741829
  PAW double counting   =     14613.92055576   -13181.33464137
  entropy T*S    EENTRO =         0.00000000
  eigenvalues    EBANDS =      -726.25260820
  atomic energy  EATOM  =      7329.73306348
  Solvation  Ediel_sol  =         0.00000000
  ---------------------------------------------------
  free energy    TOTEN  =      -265.18010419 eV

  energy without entropy =     -265.18010419  energy(sigma->0) =     -265.18010419


--------------------------------------------------------------------------------------------------------




--------------------------------------- Iteration      1(   9)  ---------------------------------------


    POTLOK:  cpu time      0.1131: real time      0.1164
    SETDIJ:  cpu time      0.0109: real time      0.0110
     EDDAV:  cpu time     81.7965: real time     82.9780
 BZINTS: Fermi energy:    2.334310;  256.000000 electrons
         Band energy:-0.722356E+03;  BLOECHL correction:    0.000000
       DOS:  cpu time      0.0094: real time      0.0094
    CHARGE:  cpu time      0.7377: real time      0.7423
    MIXING:  cpu time      0.0034: real time      0.0034
    --------------------------------------------
      LOOP:  cpu time     82.6709: real time     83.8605

 eigenvalue-minimisations  :  6928
 total energy-change (2. order) :-0.1180920E-01  (-0.3557574E-02)
 number of electron     255.9999573 magnetization 
 augmentation part      -41.2859195 magnetization 

 Broyden mixing:
  rms(total) = 0.23182E-01    rms(broyden)= 0.23182E-01
  rms(prec ) = 0.24615E-01
  weight for this iteration     100.00

 eigenvalues of (default mixing * dielectric matrix)
  average eigenvalue GAMMA=   1.6591
  2.5833  1.6635  1.6635  0.7260

 Free energy of the ion-electron system (eV)
  ---------------------------------------------------
  alpha Z        PSCENC =       571.60672240
  Ewald energy   TEWEN  =     -7192.47644434
  -Hartree energ DENC   =      -709.73977706
  -exchange      EXHF   =         0.00000000
  -V(xc)+E(xc)   XCENC  =      -974.34344141
  PAW double counting   =     14805.81517562   -13373.43094267
  entropy T*S    EENTRO =         0.00000000
  eigenvalues    EBANDS =      -722.35626942
  atomic energy  EATOM  =      7329.73306348
  Solvation  Ediel_sol  =         0.00000000
  ---------------------------------------------------
  free energy    TOTEN  =      -265.19191340 eV

  energy without entropy =     -265.19191340  energy(sigma->0) =     -265.19191340


--------------------------------------------------------------------------------------------------------




--------------------------------------- Iteration      1(  10)  ---------------------------------------


    POTLOK:  cpu time      0.1118: real time      0.1177
    SETDIJ:  cpu time      0.0110: real time      0.0111
     EDDAV:  cpu time     87.5230: real time     88.7723
 BZINTS: Fermi energy:    2.323660;  256.000000 electrons
         Band energy:-0.722303E+03;  BLOECHL correction:    0.000000
       DOS:  cpu time      0.0096: real time      0.0097
    CHARGE:  cpu time      0.7405: real time      0.7450
    MIXING:  cpu time      0.0035: real time      0.0036
    --------------------------------------------
      LOOP:  cpu time     88.3994: real time     89.6593

 eigenvalue-minimisations  :  7560
 total energy-change (2. order) :-0.1032038E-02  (-0.9469554E-04)
 number of electron     255.9999573 magnetization 
 augmentation part      -41.2863276 magnetization 

 Broyden mixing:
  rms(total) = 0.10875E-01    rms(broyden)= 0.10875E-01
  rms(prec ) = 0.12620E-01
  weight for this iteration     100.00

 eigenvalues of (default mixing * dielectric matrix)
  average eigenvalue GAMMA=   1.9228
  3.1106  2.4970  1.0342  1.4861  1.4861

 Free energy of the ion-electron system (eV)
  ---------------------------------------------------
  alpha Z        PSCENC =       571.60672240
  Ewald energy   TEWEN  =     -7192.47644434
  -Hartree energ DENC   =      -709.82660828
  -exchange      EXHF   =         0.00000000
  -V(xc)+E(xc)   XCENC  =      -974.38729767
  PAW double counting   =     14724.06199975   -13291.60129267
  entropy T*S    EENTRO =         0.00000000
  eigenvalues    EBANDS =      -722.30308809
  atomic energy  EATOM  =      7329.73306348
  Solvation  Ediel_sol  =         0.00000000
  ---------------------------------------------------
  free energy    TOTEN  =      -265.19294543 eV

  energy without entropy =     -265.19294543  energy(sigma->0) =     -265.19294543


--------------------------------------------------------------------------------------------------------




--------------------------------------- Iteration      1(  11)  ---------------------------------------


    POTLOK:  cpu time      0.1118: real time      0.1150
    SETDIJ:  cpu time      0.0109: real time      0.0110
     EDDAV:  cpu time     78.0808: real time     79.1494
 BZINTS: Fermi energy:    2.319866;  256.000000 electrons
         Band energy:-0.721872E+03;  BLOECHL correction:    0.000000
       DOS:  cpu time      0.0077: real time      0.0078
    CHARGE:  cpu time      0.7193: real time      0.7237
    MIXING:  cpu time      0.0038: real time      0.0038
    --------------------------------------------
      LOOP:  cpu time     78.9343: real time     80.0108

 eigenvalue-minimisations  :  6504
 total energy-change (2. order) :-0.1311044E-02  (-0.2182613E-03)
 number of electron     255.9999573 magnetization 
 augmentation part      -41.2836214 magnetization 

 Broyden mixing:
  rms(total) = 0.49786E-02    rms(broyden)= 0.49786E-02
  rms(prec ) = 0.52155E-02
  weight for this iteration     100.00

 eigenvalues of (default mixing * dielectric matrix)
  average eigenvalue GAMMA=   1.7866
  3.0723  2.4852  1.6565  1.6565  0.9626  0.8861

 Free energy of the ion-electron system (eV)
  ---------------------------------------------------
  alpha Z        PSCENC =       571.60672240
  Ewald energy   TEWEN  =     -7192.47644434
  -Hartree energ DENC   =      -710.39608795
  -exchange      EXHF   =         0.00000000
  -V(xc)+E(xc)   XCENC  =      -974.30647089
  PAW double counting   =     14673.50637396   -13240.98915144
  entropy T*S    EENTRO =         0.00000000
  eigenvalues    EBANDS =      -721.87226168
  atomic energy  EATOM  =      7329.73306348
  Solvation  Ediel_sol  =         0.00000000
  ---------------------------------------------------
  free energy    TOTEN  =      -265.19425648 eV

  energy without entropy =     -265.19425648  energy(sigma->0) =     -265.19425648


--------------------------------------------------------------------------------------------------------




--------------------------------------- Iteration      1(  12)  ---------------------------------------


    POTLOK:  cpu time      0.1100: real time      0.1130
    SETDIJ:  cpu time      0.0110: real time      0.0111
     EDDAV:  cpu time     86.5697: real time     87.8617
 BZINTS: Fermi energy:    2.317328;  256.000000 electrons
         Band energy:-0.721831E+03;  BLOECHL correction:    0.000000
       DOS:  cpu time      0.0078: real time      0.0079
    CHARGE:  cpu time      0.7331: real time      0.7375
    MIXING:  cpu time      0.0037: real time      0.0037
    --------------------------------------------
      LOOP:  cpu time     87.4354: real time     88.7349

 eigenvalue-minimisations  :  7424
 total energy-change (2. order) :-0.7434479E-05  (-0.2886955E-05)
 number of electron     255.9999573 magnetization 
 augmentation part      -41.2835645 magnetization 

 Broyden mixing:
  rms(total) = 0.22551E-02    rms(broyden)= 0.22551E-02
  rms(prec ) = 0.25132E-02
  weight for this iteration     100.00

 eigenvalues of (default mixing * dielectric matrix)
  average eigenvalue GAMMA=   1.8868
  3.2480  2.6137  2.6137  1.3475  1.3475  1.0188  1.0188

 Free energy of the ion-electron system (eV)
  ---------------------------------------------------
  alpha Z        PSCENC =       571.60672240
  Ewald energy   TEWEN  =     -7192.47644434
  -Hartree energ DENC   =      -710.42458930
  -exchange      EXHF   =         0.00000000
  -V(xc)+E(xc)   XCENC  =      -974.31230806
  PAW double counting   =     14679.42713677   -13246.91685917
  entropy T*S    EENTRO =         0.00000000
  eigenvalues    EBANDS =      -721.83098568
  atomic energy  EATOM  =      7329.73306348
  Solvation  Ediel_sol  =         0.00000000
  ---------------------------------------------------
  free energy    TOTEN  =      -265.19426391 eV

  energy without entropy =     -265.19426391  energy(sigma->0) =     -265.19426391


--------------------------------------------------------------------------------------------------------




--------------------------------------- Iteration      1(  13)  ---------------------------------------


    POTLOK:  cpu time      0.1121: real time      0.1151
    SETDIJ:  cpu time      0.0109: real time      0.0110
     EDDAV:  cpu time     81.8222: real time     83.0200
 BZINTS: Fermi energy:    2.316591;  256.000000 electrons
         Band energy:-0.721705E+03;  BLOECHL correction:    0.000000
       DOS:  cpu time      0.0077: real time      0.0078
    CHARGE:  cpu time      0.7343: real time      0.7389
    MIXING:  cpu time      0.0039: real time      0.0039
    --------------------------------------------
      LOOP:  cpu time     82.6911: real time     83.8967

 eigenvalue-minimisations  :  6912
 total energy-change (2. order) :-0.9128176E-05  (-0.7730871E-05)
 number of electron     255.9999573 magnetization 
 augmentation part      -41.2828551 magnetization 

 Broyden mixing:
  rms(total) = 0.98665E-03    rms(broyden)= 0.98665E-03
  rms(prec ) = 0.11035E-02
  weight for this iteration     100.00

 eigenvalues of (default mixing * dielectric matrix)
  average eigenvalue GAMMA=   1.8430
  3.3843  2.7740  2.4442  1.6265  1.6265  1.0986  0.8949  0.8949

 Free energy of the ion-electron system (eV)
  ---------------------------------------------------
  alpha Z        PSCENC =       571.60672240
  Ewald energy   TEWEN  =     -7192.47644434
  -Hartree energ DENC   =      -710.54938039
  -exchange      EXHF   =         0.00000000
  -V(xc)+E(xc)   XCENC  =      -974.30762232
  PAW double counting   =     14683.18703158   -13250.68285064
  entropy T*S    EENTRO =         0.00000000
  eigenvalues    EBANDS =      -721.70479281
  atomic energy  EATOM  =      7329.73306348
  Solvation  Ediel_sol  =         0.00000000
  ---------------------------------------------------
  free energy    TOTEN  =      -265.19427304 eV

  energy without entropy =     -265.19427304  energy(sigma->0) =     -265.19427304


--------------------------------------------------------------------------------------------------------




--------------------------------------- Iteration      1(  14)  ---------------------------------------


    POTLOK:  cpu time      0.1109: real time      0.1146
    SETDIJ:  cpu time      0.0109: real time      0.0110
     EDDAV:  cpu time     72.8986: real time     73.9118
 BZINTS: Fermi energy:    2.315847;  256.000000 electrons
         Band energy:-0.721718E+03;  BLOECHL correction:    0.000000
       DOS:  cpu time      0.0077: real time      0.0078
    --------------------------------------------
      LOOP:  cpu time     73.0282: real time     74.0452

 eigenvalue-minimisations  :  5936
 total energy-change (2. order) : 0.5925394E-06  (-0.4030669E-06)
 number of electron     255.9999573 magnetization 
 augmentation part      -41.2828551 magnetization 

 Free energy of the ion-electron system (eV)
  ---------------------------------------------------
  alpha Z        PSCENC =       571.60672240
  Ewald energy   TEWEN  =     -7192.47644434
  -Hartree energ DENC   =      -710.53757212
  -exchange      EXHF   =         0.00000000
  -V(xc)+E(xc)   XCENC  =      -974.30771411
  PAW double counting   =     14683.22974256   -13250.72433818
  entropy T*S    EENTRO =         0.00000000
  eigenvalues    EBANDS =      -721.71773213
  atomic energy  EATOM  =      7329.73306348
  Solvation  Ediel_sol  =         0.00000000
  ---------------------------------------------------
  free energy    TOTEN  =      -265.19427245 eV

  energy without entropy =     -265.19427245  energy(sigma->0) =     -265.19427245


--------------------------------------------------------------------------------------------------------




 average (electrostatic) potential at core
  the test charge radii are     1.0621  1.2767
  (the norm of the test charge is              1.0000)
       1 -51.8986       2 -51.8986       3 -51.8986       4 -51.8986       5 -51.8986
       6 -51.8986       7 -51.8986       8 -51.8986       9 -51.8986      10 -51.8986
      11 -51.8986      12 -51.8986      13 -51.8986      14 -51.8986      15 -51.8986
      16 -51.8986      17 -51.8986      18 -51.8986      19 -51.8986      20 -51.8986
      21 -51.8986      22 -51.8986      23 -51.8986      24 -51.8986      25 -51.8986
      26 -51.8986      27 -51.8986      28 -51.8986      29 -51.8986      30 -51.8986
      31 -51.8986      32 -51.8986      33 -15.0724      34 -15.0724      35 -15.0724
      36 -15.0724      37 -15.0724      38 -15.0724      39 -15.0724      40 -15.0724
      41 -15.0724      42 -15.0724      43 -15.0724      44 -15.0724      45 -15.0724
      46 -15.0724      47 -15.0724      48 -15.0724      49 -15.0724      50 -15.0724
      51 -15.0724      52 -15.0724      53 -15.0724      54 -15.0724      55 -15.0724
      56 -15.0724      57 -15.0724      58 -15.0724      59 -15.0724      60 -15.0724
      61 -15.0724      62 -15.0724      63 -15.0724      64 -15.0724
 
 
 
 E-fermi :   2.3158     XC(G=0):  -8.9492     alpha+bet : -8.0770

 val. band max:        2.2844527615   @ k =   0.0000   0.0000   0.0000
 cond. band min:       2.4270647002   @ k =   0.0000   0.0000   0.0000
 fundamental gap:      0.1426119387
 Fermi energy:         2.3158469028

 k-point     1 :       0.0000    0.0000    0.0000
  band No.  band energies     occupation 
      1     -10.0211      2.00000
      2      -9.2204      2.00000
      3      -9.2204      2.00000
      4      -9.2188      2.00000
      5      -9.2188      2.00000
      6      -9.2188      2.00000
      7      -9.2188      2.00000
      8      -8.6179      2.00000
      9      -8.6179      2.00000
     10      -8.6179      2.00000
     11      -8.6179      2.00000
     12      -8.6179      2.00000
     13      -8.6179      2.00000
     14      -8.6179      2.00000
     15      -8.6179      2.00000
     16      -8.6172      2.00000
     17      -8.6172      2.00000
     18      -8.6172      2.00000
     19      -8.6172      2.00000
     20      -8.5311      2.00000
     21      -8.5311      2.00000
     22      -8.5311      2.00000
     23      -8.5311      2.00000
     24      -7.8871      2.00000
     25      -7.8831      2.00000
     26      -7.8831      2.00000
     27      -7.8501      2.00000
     28      -7.8501      2.00000
     29      -7.8501      2.00000
     30      -7.8501      2.00000
     31      -7.8485      2.00000
     32      -7.8485      2.00000
     33      -4.2476      2.00000
     34      -4.2403      2.00000
     35      -4.2403      2.00000
     36      -4.0694      2.00000
     37      -4.0694      2.00000
     38      -4.0694      2.00000
     39      -4.0694      2.00000
     40      -4.0669      2.00000
     41      -4.0669      2.00000
     42      -4.0218      2.00000
     43      -4.0218      2.00000
     44      -4.0218      2.00000
     45      -4.0218      2.00000
     46      -3.1761      2.00000
     47      -3.1761      2.00000
     48      -3.1761      2.00000
     49      -3.1761      2.00000
     50      -3.1739      2.00000
     51      -3.1739      2.00000
     52      -3.1739      2.00000
     53      -3.1739      2.00000
     54      -3.1739      2.00000
     55      -3.1739      2.00000
     56      -3.1739      2.00000
     57      -3.1739      2.00000
     58      -1.7716      2.00000
     59      -1.7716      2.00000
     60      -1.7654      2.00000
     61      -1.7654      2.00000
     62      -1.7654      2.00000
     63      -1.7654      2.00000
[...]
   15.672496    0.401993    0.402812    0.402812   -0.000000    0.000000    0.000000
   15.692538    0.403546    0.404335    0.404335   -0.000000    0.000000    0.000000
   15.712580    0.405141    0.405902    0.405902   -0.000000    0.000000    0.000000
   15.732621    0.406772    0.407521    0.407521   -0.000000    0.000000    0.000000
   15.752663    0.408429    0.409187    0.409187   -0.000000    0.000000    0.000000
   15.772704    0.410105    0.410887    0.410887   -0.000000    0.000000    0.000000
   15.792746    0.411795    0.412610    0.412610   -0.000000    0.000000    0.000000
   15.812787    0.413494    0.414346    0.414346   -0.000000    0.000000    0.000000
   15.832829    0.415202    0.416087    0.416087   -0.000000    0.000000    0.000000
   15.852870    0.416915    0.417830    0.417830   -0.000000    0.000000    0.000000
   15.872912    0.418632    0.419570    0.419570   -0.000000    0.000000    0.000000
   15.892954    0.420351    0.421306    0.421306   -0.000000    0.000000    0.000000
   15.912995    0.422072    0.423037    0.423037   -0.000000    0.000000    0.000000
   15.933037    0.423795    0.424763    0.424763   -0.000000    0.000000    0.000000
   15.953078    0.425522    0.426489    0.426489   -0.000000    0.000000    0.000000
   15.973120    0.427255    0.428221    0.428221   -0.000000    0.000000    0.000000
   15.993161    0.428994    0.429961    0.429961   -0.000000    0.000000    0.000000
   16.013203    0.430733    0.431707    0.431707   -0.000000    0.000000    0.000000
   16.033244    0.432464    0.433451    0.433451   -0.000000    0.000000    0.000000
   16.053286    0.434182    0.435188    0.435188   -0.000000    0.000000    0.000000
   16.073328    0.435884    0.436914    0.436914   -0.000000    0.000000    0.000000
   16.093369    0.437573    0.438627    0.438627   -0.000000    0.000000    0.000000
   16.113411    0.439253    0.440329    0.440329   -0.000000    0.000000    0.000000
   16.133452    0.440933    0.442024    0.442024   -0.000000    0.000000    0.000000
   16.153494    0.442617    0.443717    0.443717   -0.000000    0.000000    0.000000
   16.173535    0.444308    0.445409    0.445409   -0.000000    0.000000    0.000000
   16.193577    0.446004    0.447099    0.447099   -0.000000    0.000000    0.000000
   16.213618    0.447701    0.448786    0.448786   -0.000000    0.000000    0.000000
   16.233660    0.449394    0.450467    0.450467   -0.000000    0.000000    0.000000
   16.253702    0.451078    0.452138    0.452138   -0.000000    0.000000    0.000000
   16.273743    0.452751    0.453798    0.453798   -0.000000    0.000000    0.000000
   16.293785    0.454412    0.455446    0.455446   -0.000000    0.000000    0.000000
   16.313826    0.456060    0.457082    0.457082   -0.000000    0.000000    0.000000
   16.333868    0.457696    0.458707    0.458707   -0.000000    0.000000    0.000000
   16.353909    0.459319    0.460319    0.460319   -0.000000    0.000000    0.000000
   16.373951    0.460929    0.461920    0.461920   -0.000000    0.000000    0.000000
   16.393992    0.462528    0.463509    0.463509   -0.000000    0.000000    0.000000
   16.414034    0.464115    0.465088    0.465088   -0.000000    0.000000    0.000000
   16.434076    0.465691    0.466656    0.466656   -0.000000    0.000000    0.000000
   16.454117    0.467256    0.468213    0.468213   -0.000000    0.000000    0.000000
   16.474159    0.468810    0.469760    0.469760   -0.000000    0.000000    0.000000
   16.494200    0.470354    0.471298    0.471298   -0.000000    0.000000    0.000000
   16.514242    0.471888    0.472826    0.472826   -0.000000    0.000000    0.000000
   16.534283    0.473412    0.474344    0.474344   -0.000000    0.000000    0.000000
   16.554325    0.474927    0.475853    0.475853   -0.000000    0.000000    0.000000
   16.574366    0.476432    0.477353    0.477353   -0.000000    0.000000    0.000000
   16.594408    0.477928    0.478844    0.478844   -0.000000    0.000000    0.000000
   16.614450    0.479415    0.480326    0.480326   -0.000000    0.000000    0.000000
   16.634491    0.480893    0.481799    0.481799   -0.000000    0.000000    0.000000
   16.654533    0.482362    0.483264    0.483264   -0.000000    0.000000    0.000000
   16.674574    0.483822    0.484720    0.484720   -0.000000    0.000000    0.000000
   16.694616    0.485274    0.486167    0.486167   -0.000000    0.000000    0.000000
   16.714657    0.486718    0.487607    0.487607   -0.000000    0.000000    0.000000
   16.734699    0.488154    0.489038    0.489038   -0.000000    0.000000    0.000000
   16.754740    0.489581    0.490462    0.490462   -0.000000    0.000000    0.000000
   16.774782    0.491001    0.491877    0.491877   -0.000000    0.000000    0.000000
   16.794824    0.492412    0.493285    0.493285   -0.000000    0.000000    0.000000
   16.814865    0.493816    0.494686    0.494686   -0.000000    0.000000    0.000000
   16.834907    0.495213    0.496078    0.496078   -0.000000    0.000000    0.000000
   16.854948    0.496601    0.497464    0.497464   -0.000000    0.000000    0.000000
   16.874990    0.497983    0.498842    0.498842   -0.000000    0.000000    0.000000
   16.895031    0.499357    0.500213    0.500213   -0.000000    0.000000    0.000000
   16.915073    0.500725    0.501577    0.501577   -0.000000    0.000000    0.000000
   16.935114    0.502085    0.502933    0.502933   -0.000000    0.000000    0.000000
   16.955156    0.503438    0.504283    0.504283   -0.000000    0.000000    0.000000
   16.975198    0.504785    0.505626    0.505626   -0.000000    0.000000    0.000000
   16.995239    0.506124    0.506963    0.506963   -0.000000    0.000000    0.000000
   17.015281    0.507457    0.508293    0.508293   -0.000000    0.000000    0.000000
   17.035322    0.508783    0.509616    0.509616   -0.000000    0.000000    0.000000
   17.055364    0.510103    0.510933    0.510933   -0.000000    0.000000    0.000000
   17.075405    0.511416    0.512243    0.512243   -0.000000    0.000000    0.000000
   17.095447    0.512723    0.513547    0.513547   -0.000000    0.000000    0.000000
   17.115488    0.514024    0.514844    0.514844   -0.000000    0.000000    0.000000
   17.135530    0.515318    0.516136    0.516136   -0.000000    0.000000    0.000000
   17.155572    0.516606    0.517421    0.517421   -0.000000    0.000000    0.000000
   17.175613    0.517888    0.518700    0.518700   -0.000000    0.000000    0.000000
   17.195655    0.519164    0.519974    0.519974   -0.000000    0.000000    0.000000
   17.215696    0.520434    0.521241    0.521241   -0.000000    0.000000    0.000000
   17.235738    0.521698    0.522502    0.522502   -0.000000    0.000000    0.000000
   17.255779    0.522957    0.523757    0.523757   -0.000000    0.000000    0.000000
   17.275821    0.524209    0.525007    0.525007   -0.000000    0.000000    0.000000
   17.295862    0.525455    0.526251    0.526251   -0.000000    0.000000    0.000000
   17.315904    0.526696    0.527489    0.527489   -0.000000    0.000000    0.000000
   17.335946    0.527931    0.528722    0.528722   -0.000000    0.000000    0.000000
   17.355987    0.529161    0.529949    0.529949   -0.000000    0.000000    0.000000
   17.376029    0.530385    0.531170    0.531170   -0.000000    0.000000    0.000000
   17.396070    0.531603    0.532386    0.532386   -0.000000    0.000000    0.000000
   17.416112    0.532816    0.533597    0.533597   -0.000000    0.000000    0.000000
   17.436153    0.534024    0.534802    0.534802   -0.000000    0.000000    0.000000
   17.456195    0.535226    0.536001    0.536001   -0.000000    0.000000    0.000000
   17.476236    0.536423    0.537196    0.537196   -0.000000    0.000000    0.000000
   17.496278    0.537615    0.538385    0.538385   -0.000000    0.000000    0.000000
   17.516320    0.538801    0.539569    0.539569   -0.000000    0.000000    0.000000
   17.536361    0.539982    0.540748    0.540748   -0.000000    0.000000    0.000000
   17.556403    0.541158    0.541921    0.541921   -0.000000    0.000000    0.000000
   17.576444    0.542329    0.543090    0.543090   -0.000000    0.000000    0.000000
   17.596486    0.543495    0.544253    0.544253   -0.000000    0.000000    0.000000
   17.616527    0.544655    0.545412    0.545412   -0.000000    0.000000    0.000000
   17.636569    0.545811    0.546565    0.546565   -0.000000    0.000000    0.000000
   17.656610    0.546962    0.547714    0.547714   -0.000000    0.000000    0.000000
   17.676652    0.548108    0.548857    0.548857   -0.000000    0.000000    0.000000
   17.696694    0.549249    0.549996    0.549996   -0.000000    0.000000    0.000000
   17.716735    0.550385    0.551130    0.551130   -0.000000    0.000000    0.000000
   17.736777    0.551516    0.552259    0.552259   -0.000000    0.000000    0.000000
   17.756818    0.552643    0.553384    0.553384   -0.000000    0.000000    0.000000
   17.776860    0.553764    0.554503    0.554503   -0.000000    0.000000    0.000000
   17.796901    0.554881    0.555618    0.555618   -0.000000    0.000000    0.000000
   17.816943    0.555994    0.556729    0.556729   -0.000000    0.000000    0.000000
   17.836984    0.557102    0.557834    0.557834   -0.000000    0.000000    0.000000
   17.857026    0.558205    0.558935    0.558935   -0.000000    0.000000    0.000000
   17.877068    0.559303    0.560032    0.560032   -0.000000    0.000000    0.000000
   17.897109    0.560397    0.561124    0.561124   -0.000000    0.000000    0.000000
   17.917151    0.561487    0.562211    0.562211   -0.000000    0.000000    0.000000
   17.937192    0.562572    0.563294    0.563294   -0.000000    0.000000    0.000000
   17.957234    0.563653    0.564373    0.564373   -0.000000    0.000000    0.000000
   17.977275    0.564729    0.565447    0.565447   -0.000000    0.000000    0.000000
   17.997317    0.565801    0.566517    0.566517   -0.000000    0.000000    0.000000
   18.017358    0.566868    0.567582    0.567582   -0.000000    0.000000    0.000000
   18.037400    0.567931    0.568644    0.568644   -0.000000    0.000000    0.000000
   18.057442    0.568990    0.569700    0.569700   -0.000000    0.000000    0.000000
   18.077483    0.570044    0.570753    0.570753   -0.000000    0.000000    0.000000
   18.097525    0.571095    0.571801    0.571801   -0.000000    0.000000    0.000000
   18.117566    0.572141    0.572846    0.572846   -0.000000    0.000000    0.000000
   18.137608    0.573183    0.573886    0.573886   -0.000000    0.000000    0.000000
   18.157649    0.574220    0.574921    0.574921   -0.000000    0.000000    0.000000
   18.177691    0.575254    0.575953    0.575953   -0.000000    0.000000    0.000000
   18.197732    0.576284    0.576981    0.576981   -0.000000    0.000000    0.000000
   18.217774    0.577309    0.578004    0.578004   -0.000000    0.000000    0.000000
   18.237816    0.578330    0.579024    0.579024   -0.000000    0.000000    0.000000
   18.257857    0.579348    0.580039    0.580039   -0.000000    0.000000    0.000000
   18.277899    0.580361    0.581051    0.581051   -0.000000    0.000000    0.000000
   18.297940    0.581370    0.582059    0.582059   -0.000000    0.000000    0.000000
   18.317982    0.582376    0.583062    0.583062   -0.000000    0.000000    0.000000
   18.338023    0.583377    0.584062    0.584062   -0.000000    0.000000    0.000000
   18.358065    0.584375    0.585058    0.585058   -0.000000    0.000000    0.000000
   18.378106    0.585369    0.586050    0.586050   -0.000000    0.000000    0.000000
   18.398148    0.586358    0.587038    0.587038   -0.000000    0.000000    0.000000
   18.418190    0.587344    0.588022    0.588022   -0.000000    0.000000    0.000000
   18.438231    0.588327    0.589002    0.589002   -0.000000    0.000000    0.000000
   18.458273    0.589305    0.589979    0.589979   -0.000000    0.000000    0.000000
   18.478314    0.590280    0.590952    0.590952   -0.000000    0.000000    0.000000
   18.498356    0.591251    0.591921    0.591921   -0.000000    0.000000    0.000000
   18.518397    0.592218    0.592887    0.592887   -0.000000    0.000000    0.000000
   18.538439    0.593181    0.593848    0.593848   -0.000000    0.000000    0.000000
   18.558480    0.594141    0.594807    0.594807   -0.000000    0.000000    0.000000
   18.578522    0.595097    0.595761    0.595761   -0.000000    0.000000    0.000000
   18.598564    0.596050    0.596712    0.596712   -0.000000    0.000000    0.000000
   18.618605    0.596999    0.597659    0.597659   -0.000000    0.000000    0.000000
   18.638647    0.597944    0.598603    0.598603   -0.000000    0.000000    0.000000
   18.658688    0.598886    0.599543    0.599543   -0.000000    0.000000    0.000000
   18.678730    0.599824    0.600480    0.600480   -0.000000    0.000000    0.000000
   18.698771    0.600759    0.601413    0.601413   -0.000000    0.000000    0.000000
   18.718813    0.601690    0.602342    0.602342   -0.000000    0.000000    0.000000
   18.738854    0.602618    0.603268    0.603268   -0.000000    0.000000    0.000000
   18.758896    0.603542    0.604191    0.604191   -0.000000    0.000000    0.000000
   18.778938    0.604463    0.605110    0.605110   -0.000000    0.000000    0.000000
   18.798979    0.605380    0.606026    0.606026   -0.000000    0.000000    0.000000
   18.819021    0.606294    0.606938    0.606938   -0.000000    0.000000    0.000000
   18.839062    0.607205    0.607847    0.607847   -0.000000    0.000000    0.000000
   18.859104    0.608112    0.608753    0.608753   -0.000000    0.000000    0.000000
   18.879145    0.609016    0.609655    0.609655   -0.000000    0.000000    0.000000
   18.899187    0.609916    0.610554    0.610554   -0.000000    0.000000    0.000000
   18.919228    0.610813    0.611450    0.611450   -0.000000    0.000000    0.000000
   18.939270    0.611707    0.612342    0.612342   -0.000000    0.000000    0.000000
   18.959312    0.612598    0.613231    0.613231   -0.000000    0.000000    0.000000
   18.979353    0.613485    0.614117    0.614117   -0.000000    0.000000    0.000000
   18.999395    0.614369    0.615000    0.615000   -0.000000    0.000000    0.000000
   19.019436    0.615250    0.615879    0.615879   -0.000000    0.000000    0.000000
   19.039478    0.616128    0.616756    0.616756   -0.000000    0.000000    0.000000
   19.059519    0.617003    0.617629    0.617629   -0.000000    0.000000    0.000000
   19.079561    0.617874    0.618498    0.618498   -0.000000    0.000000    0.000000
   19.099602    0.618742    0.619365    0.619365   -0.000000    0.000000    0.000000
   19.119644    0.619607    0.620229    0.620229   -0.000000    0.000000    0.000000
   19.139686    0.620469    0.621089    0.621089   -0.000000    0.000000    0.000000
   19.159727    0.621328    0.621947    0.621947   -0.000000    0.000000    0.000000
   19.179769    0.622184    0.622801    0.622801   -0.000000    0.000000    0.000000
   19.199810    0.623037    0.623652    0.623652   -0.000000    0.000000    0.000000
   19.219852    0.623886    0.624500    0.624500   -0.000000    0.000000    0.000000
   19.239893    0.624733    0.625346    0.625346   -0.000000    0.000000    0.000000
   19.259935    0.625576    0.626188    0.626188   -0.000000    0.000000    0.000000
   19.279976    0.626417    0.627027    0.627027   -0.000000    0.000000    0.000000
   19.300018    0.627255    0.627863    0.627863   -0.000000    0.000000    0.000000
   19.320060    0.628089    0.628696    0.628696   -0.000000    0.000000    0.000000
   19.340101    0.628921    0.629527    0.629527   -0.000000    0.000000    0.000000
   19.360143    0.629750    0.630354    0.630354   -0.000000    0.000000    0.000000
   19.380184    0.630575    0.631178    0.631178   -0.000000    0.000000    0.000000
   19.400226    0.631398    0.632000    0.632000   -0.000000    0.000000    0.000000
   19.420267    0.632218    0.632818    0.632818   -0.000000    0.000000    0.000000
   19.440309    0.633035    0.633634    0.633634   -0.000000    0.000000    0.000000
   19.460350    0.633850    0.634447    0.634447   -0.000000    0.000000    0.000000
   19.480392    0.634661    0.635257    0.635257   -0.000000    0.000000    0.000000
   19.500434    0.635470    0.636064    0.636064   -0.000000    0.000000    0.000000
   19.520475    0.636275    0.636869    0.636869   -0.000000    0.000000    0.000000
   19.540517    0.637078    0.637670    0.637670   -0.000000    0.000000    0.000000
   19.560558    0.637878    0.638469    0.638469   -0.000000    0.000000    0.000000
   19.580600    0.638676    0.639265    0.639265   -0.000000    0.000000    0.000000
   19.600641    0.639470    0.640058    0.640058   -0.000000    0.000000    0.000000
   19.620683    0.640262    0.640849    0.640849   -0.000000    0.000000    0.000000
   19.640724    0.641051    0.641637    0.641637   -0.000000    0.000000    0.000000
   19.660766    0.641838    0.642422    0.642422   -0.000000    0.000000    0.000000
   19.680808    0.642621    0.643204    0.643204   -0.000000    0.000000    0.000000
   19.700849    0.643402    0.643984    0.643984   -0.000000    0.000000    0.000000
   19.720891    0.644181    0.644761    0.644761   -0.000000    0.000000    0.000000
   19.740932    0.644956    0.645535    0.645535   -0.000000    0.000000    0.000000
   19.760974    0.645729    0.646307    0.646307   -0.000000    0.000000    0.000000
   19.781015    0.646499    0.647076    0.647076   -0.000000    0.000000    0.000000
   19.801057    0.647267    0.647842    0.647842   -0.000000    0.000000    0.000000
   19.821098    0.648032    0.648606    0.648606   -0.000000    0.000000    0.000000
   19.841140    0.648795    0.649367    0.649367   -0.000000    0.000000    0.000000
   19.861182    0.649555    0.650126    0.650126   -0.000000    0.000000    0.000000
   19.881223    0.650312    0.650882    0.650882   -0.000000    0.000000    0.000000
   19.901265    0.651067    0.651635    0.651635   -0.000000    0.000000    0.000000
   19.921306    0.651819    0.652386    0.652386   -0.000000    0.000000    0.000000
   19.941348    0.652568    0.653135    0.653135   -0.000000    0.000000    0.000000
   19.961389    0.653316    0.653880    0.653880   -0.000000    0.000000    0.000000
   19.981431    0.654060    0.654624    0.654624   -0.000000    0.000000    0.000000
   20.001472    0.654802    0.655365    0.655365   -0.000000    0.000000    0.000000
   20.021514    0.655542    0.656103    0.656103   -0.000000    0.000000    0.000000
 
 The outermost node in the dielectric function lies at epsilon=  12.1


--------------------------------------------------------------------------------------------------------


    OPTICS:  cpu time     37.7529: real time     38.3420
    4ORBIT:  cpu time      0.0000: real time      0.0000
 BZINTS: Fermi energy:    2.314991;  256.000000 electrons
         Band energy:-0.721731E+03;  BLOECHL correction:    0.000000

 total amount of memory used by VASP MPI-rank0   360854. kBytes
=======================================================================

   base      :      30000. kBytes
   nonl-proj :     132931. kBytes
   fftplans  :       6720. kBytes
   grid      :      17034. kBytes
   one-center:        519. kBytes
   wavefun   :     173650. kBytes
 
  
  
 General timing and accounting informations for this job:
 ========================================================
  
                  Total CPU time used (sec):    11214.528
                            User time (sec):    10848.468
                          System time (sec):      366.061
                         Elapsed time (sec):    11364.730
  
                   Maximum memory used (kb):     1874444.
                   Average memory used (kb):          N/A
  
                          Minor page faults:       195378
                          Major page faults:          209
                 Voluntary context switches:        18876
