 running    8 mpi-ranks, on    1 nodes
 distrk:  each k-point on    8 cores,    1 groups
 distr:  one band on    1 cores,    8 groups
 vasp.6.4.3 19Mar24 (build Aug 29 2024 15:27:20) complex                        
  
 POSCAR found type information on POSCAR AsGa
 POSCAR found :  2 types and      64 ions
 scaLAPACK will be used
 -----------------------------------------------------------------------------
|                                                                             |
|           W    W    AA    RRRRR   N    N  II  N    N   GGGG   !!!           |
|           W    W   A  A   R    R  NN   N  II  NN   N  G    G  !!!           |
|           W    W  A    A  R    R  N N  N  II  N N  N  G       !!!           |
|           W WW W  AAAAAA  RRRRR   N  N N  II  N  N N  G  GGG   !            |
|           WW  WW  A    A  R   R   N   NN  II  N   NN  G    G                |
|           W    W  A    A  R    R  N    N  II  N    N   GGGG   !!!           |
|                                                                             |
|     For optimal performance we recommend to set                             |
|       NCORE = 2 up to number-of-cores-per-socket                            |
|     NCORE specifies how many cores store one orbital (NPAR=cpu/NCORE).      |
|     This setting can greatly improve the performance of VASP for DFT.       |
|     The default, NCORE=1 might be grossly inefficient on modern             |
|     multi-core architectures or massively parallel machines. Do your        |
|     own testing! More info at https://www.vasp.at/wiki/index.php/NCORE      |
|     Unfortunately you need to use the default for GW and RPA                |
|     calculations (for HF NCORE is supported but not extensively tested      |
|     yet).                                                                   |
|                                                                             |
 -----------------------------------------------------------------------------

 -----------------------------------------------------------------------------
|                                                                             |
|               ----> ADVICE to this user running VASP <----                  |
|                                                                             |
|     You have a (more or less) 'large supercell' and for larger cells it     |
|     might be more efficient to use real-space projection operators.         |
|     Therefore, try LREAL= Auto in the INCAR file.                           |
|     Mind: For very accurate calculation, you might also keep the            |
|     reciprocal projection scheme (i.e. LREAL=.FALSE.).                      |
|                                                                             |
 -----------------------------------------------------------------------------

 LDA part: xc-table for (Slater+PW92), standard interpolation
 POSCAR, INCAR and KPOINTS ok, starting setup
 FFT: planning ... GRIDC
 FFT: planning ... GRID_SOFT
 FFT: planning ... GRID
 WAVECAR not read
 entering main loop
       N       E                     dE             d eps       ncg     rms          rms(c)
DAV:   1     0.935848343424E+03    0.93585E+03   -0.80917E+04  6048   0.101E+03
DAV:   2    -0.167085753620E+03   -0.11029E+04   -0.10509E+04  7184   0.170E+02
DAV:   3    -0.267651046176E+03   -0.10057E+03   -0.99179E+02  7424   0.523E+01
DAV:   4    -0.270174746007E+03   -0.25237E+01   -0.24934E+01  7264   0.864E+00
DAV:   5    -0.270251448284E+03   -0.76702E-01   -0.76440E-01  7424   0.131E+00    0.202E+01
DAV:   6    -0.266055288746E+03    0.41962E+01   -0.65144E+00  7048   0.358E+00    0.118E+01
DAV:   7    -0.265221228379E+03    0.83406E+00   -0.43182E+00  7320   0.300E+00    0.245E+00
DAV:   8    -0.265180104194E+03    0.41124E-01   -0.50323E-01  7056   0.109E+00    0.616E-01
DAV:   9    -0.265191913397E+03   -0.11809E-01   -0.35576E-02  6928   0.391E-01    0.232E-01
DAV:  10    -0.265192945435E+03   -0.10320E-02   -0.94696E-04  7560   0.583E-02    0.109E-01
DAV:  11    -0.265194256479E+03   -0.13110E-02   -0.21826E-03  6504   0.872E-02    0.498E-02
DAV:  12    -0.265194263913E+03   -0.74345E-05   -0.28870E-05  7424   0.111E-02    0.226E-02
DAV:  13    -0.265194273041E+03   -0.91282E-05   -0.77309E-05  6912   0.133E-02    0.987E-03
DAV:  14    -0.265194272449E+03    0.59254E-06   -0.40307E-06  5936   0.388E-03
 Linear response reoptimize wavefunctions to high precision
DAV:   1    -0.265194272966E+03   -0.51678E-06   -0.22414E-06  7176   0.199E-03
DAV:   2    -0.265194272975E+03   -0.90458E-08   -0.91331E-08  6112   0.560E-04
DAV:   3    -0.265194272975E+03   -0.27921E-09   -0.16687E-09  3776   0.798E-05
 Linear response G [H, r] |phi>, progress :
  Direction:   1
       N       E                     dE             d eps       ncg     rms
RMM:   1    -0.127172294957E+04   -0.12717E+04    0.18484E+03 14189   0.841E+01
RMM:   2    -0.109957503611E+04    0.17215E+03   -0.20392E+02  9801   0.227E+01
RMM:   3    -0.110216639277E+04   -0.25914E+01   -0.10121E+01 10094   0.378E+00
RMM:   4    -0.110230862674E+04   -0.14223E+00   -0.47447E-01 10478   0.665E-01
RMM:   5    -0.110229952499E+04    0.91017E-02   -0.67263E-02 10502   0.142E-01
RMM:   6    -0.110229665672E+04    0.28683E-02   -0.19496E-02 11254   0.381E-02
RMM:   7    -0.110229541270E+04    0.12440E-02   -0.60337E-03 12034   0.189E-02
RMM:   8    -0.110229518503E+04    0.22767E-03   -0.36653E-03 12775   0.159E-02
RMM:   9    -0.110229503642E+04    0.14861E-03   -0.20319E-03 12913   0.154E-02
RMM:  10    -0.110229506107E+04   -0.24651E-04   -0.24160E-03 13200   0.154E-02
RMM:  11    -0.110229502808E+04    0.32997E-04   -0.19297E-03 13417   0.154E-02
 Linear response G [H, r] |phi>, progress :
  Direction:   2
       N       E                     dE             d eps       ncg     rms
RMM:   1    -0.126431144794E+04   -0.12643E+04    0.17222E+03 14271   0.837E+01
RMM:   2    -0.109747771112E+04    0.16683E+03   -0.20486E+02  9785   0.226E+01
RMM:   3    -0.109940512053E+04   -0.19274E+01   -0.10206E+01 10095   0.375E+00
RMM:   4    -0.109951661227E+04   -0.11149E+00   -0.71346E-01 10485   0.660E-01
RMM:   5    -0.109948385399E+04    0.32758E-01   -0.70511E-02 10481   0.143E-01
RMM:   6    -0.109948072178E+04    0.31322E-02   -0.21036E-02 11440   0.389E-02
RMM:   7    -0.109947796108E+04    0.27607E-02    0.82663E-03 12099   0.197E-02
RMM:   8    -0.109947834970E+04   -0.38862E-03    0.48485E-03 12885   0.167E-02
RMM:   9    -0.109947797301E+04    0.37669E-03    0.84376E-03 13023   0.163E-02
RMM:  10    -0.109947811032E+04   -0.13731E-03    0.67897E-03 13270   0.163E-02
RMM:  11    -0.109947806610E+04    0.44222E-04    0.74836E-03 13502   0.163E-02
 Linear response G [H, r] |phi>, progress :
  Direction:   3
       N       E                     dE             d eps       ncg     rms
RMM:   1    -0.139039594467E+04   -0.13904E+04    0.13459E+03 14636   0.858E+01
RMM:   2    -0.110297101060E+04    0.28742E+03   -0.23651E+02  9841   0.241E+01
RMM:   3    -0.110513622017E+04   -0.21652E+01   -0.11350E+01 10111   0.399E+00
RMM:   4    -0.110526348521E+04   -0.12727E+00   -0.54677E-01 10526   0.696E-01
RMM:   5    -0.110524330083E+04    0.20184E-01   -0.12176E-02 10505   0.150E-01
RMM:   6    -0.110524419647E+04   -0.89564E-03   -0.77391E-04 11376   0.409E-02
RMM:   7    -0.110524283861E+04    0.13579E-02    0.14733E-02 12069   0.212E-02
RMM:   8    -0.110524353074E+04   -0.69213E-03    0.74479E-03 12828   0.181E-02
RMM:   9    -0.110524320905E+04    0.32168E-03    0.11619E-02 12944   0.177E-02
RMM:  10    -0.110524339064E+04   -0.18158E-03    0.89655E-03 13210   0.177E-02
RMM:  11    -0.110524328987E+04    0.10077E-03    0.10235E-02 13456   0.176E-02
 Linear response to external field, progress :
  Direction:   1
       N       E                     dE             d eps       ncg     rms          rms(c)
RMM:   1    -0.118435424011E+03   -0.11844E+03   -0.90266E+02 15501   0.665E+00
RMM:   2    -0.348318969799E+03   -0.22988E+03   -0.10542E+01 14778   0.146E+00    0.127E+01
RMM:   3    -0.345138805515E+03    0.31802E+01   -0.92154E-01 14766   0.159E+00    0.747E+00
RMM:   4    -0.335608474715E+03    0.95303E+01   -0.14517E+00 14253   0.224E+00    0.744E-01
RMM:   5    -0.334821475581E+03    0.78700E+00   -0.68573E-02 15088   0.449E-01    0.109E-01
RMM:   6    -0.334734299861E+03    0.87176E-01   -0.23122E-03 15174   0.794E-02    0.626E-02
RMM:   7    -0.334680028552E+03    0.54271E-01   -0.13950E-03 15085   0.571E-02    0.259E-02
RMM:   8    -0.334664512702E+03    0.15516E-01   -0.30006E-04 15871   0.962E-03    0.652E-03
RMM:   9    -0.334670645493E+03   -0.61328E-02   -0.21126E-04 15876   0.613E-03    0.131E-03
RMM:  10    -0.334670303871E+03    0.34162E-03   -0.64764E-05 15996   0.199E-03    0.416E-04
RMM:  11    -0.334670025635E+03    0.27824E-03   -0.55073E-05 15751   0.183E-03    0.752E-05
RMM:  12    -0.334670060477E+03   -0.34842E-04   -0.70928E-06 14196   0.170E-03    0.370E-05
RMM:  13    -0.334670050416E+03    0.10062E-04   -0.56170E-05 14310   0.169E-03    0.624E-06
 change of polarisation eV/A/(eV/A) component  1 :   692.519    -8.471   -13.006
 dielectric tensor                  component  1 :    82.791    -1.001    -1.536
 Linear response to external field, progress :
  Direction:   2
       N       E                     dE             d eps       ncg     rms          rms(c)
RMM:   1    -0.119862944687E+03   -0.11986E+03   -0.91297E+02 22583   0.676E+00
RMM:   2    -0.389087583930E+03   -0.26922E+03    0.26743E+01 21435   0.151E+00    0.130E+01
RMM:   3    -0.389529110180E+03   -0.44153E+00   -0.13992E+00 21472   0.159E+00    0.764E+00
RMM:   4    -0.379617117945E+03    0.99120E+01   -0.14422E+00 20687   0.225E+00    0.740E-01
RMM:   5    -0.378796613248E+03    0.82050E+00   -0.81403E-02 21960   0.452E-01    0.995E-02
RMM:   6    -0.378713499337E+03    0.83114E-01   -0.42082E-03 22139   0.745E-02    0.568E-02
RMM:   7    -0.378672044435E+03    0.41455E-01   -0.11683E-03 21989   0.515E-02    0.261E-02
RMM:   8    -0.378657246763E+03    0.14798E-01   -0.87185E-05 23106   0.926E-03    0.575E-03
RMM:   9    -0.378663228800E+03   -0.59820E-02   -0.12083E-04 23197   0.573E-03    0.126E-03
RMM:  10    -0.378662899906E+03    0.32889E-03   -0.14763E-04 23368   0.204E-03    0.423E-04
RMM:  11    -0.378662566990E+03    0.33292E-03   -0.79960E-05 23185   0.190E-03    0.727E-05
RMM:  12    -0.378662601139E+03   -0.34149E-04    0.26912E-06 21501   0.177E-03    0.363E-05
RMM:  13    -0.378662593391E+03    0.77478E-05   -0.57235E-05 21607   0.177E-03    0.724E-06
 change of polarisation eV/A/(eV/A) component  2 :    -4.572   781.306   -12.187
 dielectric tensor                  component  2 :    -0.540    93.278    -1.439
 Linear response to external field, progress :
  Direction:   3
       N       E                     dE             d eps       ncg     rms          rms(c)
RMM:   1    -0.119865165169E+03   -0.11987E+03   -0.91300E+02 22585   0.676E+00
RMM:   2    -0.389087265742E+03   -0.26922E+03    0.26743E+01 21425   0.151E+00    0.130E+01
RMM:   3    -0.389528962500E+03   -0.44170E+00   -0.13996E+00 21477   0.159E+00    0.764E+00
RMM:   4    -0.379617141350E+03    0.99118E+01   -0.14443E+00 20684   0.225E+00    0.739E-01
RMM:   5    -0.378796406950E+03    0.82073E+00   -0.81557E-02 21952   0.452E-01    0.995E-02
RMM:   6    -0.378713255172E+03    0.83152E-01   -0.41978E-03 22141   0.745E-02    0.568E-02
RMM:   7    -0.378671778528E+03    0.41477E-01   -0.11013E-03 21988   0.515E-02    0.261E-02
RMM:   8    -0.378657017278E+03    0.14761E-01    0.28090E-04 23095   0.925E-03    0.575E-03
RMM:   9    -0.378662996962E+03   -0.59797E-02   -0.99331E-05 23207   0.572E-03    0.126E-03
RMM:  10    -0.378662668641E+03    0.32832E-03   -0.15606E-05 23371   0.204E-03    0.423E-04
RMM:  11    -0.378662336463E+03    0.33218E-03   -0.59928E-05 23177   0.190E-03    0.723E-05
RMM:  12    -0.378662369788E+03   -0.33325E-04   -0.55034E-05 21479   0.177E-03    0.362E-05
RMM:  13    -0.378662362126E+03    0.76622E-05   -0.53517E-05 21585   0.177E-03    0.727E-06
 change of polarisation eV/A/(eV/A) component  3 :   -11.944    -3.430   781.305
 dielectric tensor                  component  3 :    -1.411    -0.405    93.277
 Born effective charges drift removed
   1 F= -.26519427E+03 E0= -.26519427E+03  d E =-.265194E+03
 curvature:   0.00 expect dE= 0.000E+00 dE for cont linesearch  0.000E+00
 trial: gam= 0.00000 g(F)=  0.194E-58 g(S)=  0.000E+00 ort = 0.000E+00 (trialstep = 0.100E+01)
 search vector abs. value=  0.100E-09
 reached required accuracy - stopping structural energy minimisation
 writing wavefunctions
 optical routines
 imaginary and real dielectric function
 recalculating local potential from charge density
 direction            1
 direction            2
 direction            3
