<?xml version="1.0" encoding="ISO-8859-1"?>
<modeling>
 <generator>
  <i name="program" type="string">vasp </i>
  <i name="version" type="string">6.4.3  </i>
  <i name="subversion" type="string">19Mar24 (build Aug 29 2024 15:27:20) complex                          parallel </i>
  <i name="platform" type="string">LinuxIFC </i>
  <i name="date" type="string">2025 03 24 </i>
  <i name="time" type="string">12:04:03 </i>
 </generator>
 <incar>
  <i type="string" name="SYSTEM">GaAs</i>
  <i type="string" name="PREC">Normal</i>
  <i type="int" name="IBRION">     2</i>
  <i type="int" name="NFREE">     2</i>
  <i type="int" name="NSW">   100</i>
  <i type="int" name="ISIF">     2</i>
  <i name="ENCUT">    400.00000000</i>
  <i name="POTIM">      0.10000000</i>
  <i type="int" name="ISMEAR">    -5</i>
  <i name="SIGMA">      0.10000000</i>
  <i type="logical" name="LOPTICS"> T  </i>
  <i type="logical" name="LEPSILON"> T  </i>
 </incar>
 <primitive_cell>
  <structure name="primitive_cell" >
   <crystal>
    <varray name="basis" >
     <v>       2.88458166       0.00000000       2.88080663 </v>
     <v>       2.88458166       0.00000000      -2.88080663 </v>
     <v>      -2.88458166       2.88080663       0.00000000 </v>
    </varray>
    <i name="volume">     47.87855664 </i>
    <varray name="rec_basis" >
     <v>       0.17333536       0.17356250       0.17356250 </v>
     <v>       0.17333536       0.17356250      -0.17356250 </v>
     <v>       0.00000000       0.34712500       0.00000000 </v>
    </varray>
   </crystal>
   <varray name="positions" >
    <v>       0.00000000       0.00000000       0.00000000 </v>
    <v>       0.75000000       0.25000000       0.50000000 </v>
   </varray>
  </structure>
  <varray name="primitive_index" >
   <v type="int" >        1 </v>
   <v type="int" >       33 </v>
  </varray>
 </primitive_cell>
 <kpoints>
  <generation param="Gamma">
   <v type="int" name="divisions">       5        5        5 </v>
   <v name="usershift">      0.00000000       0.00000000       0.00000000 </v>
   <v name="genvec1">      0.20000000       0.00000000       0.00000000 </v>
   <v name="genvec2">      0.00000000       0.20000000       0.00000000 </v>
   <v name="genvec3">      0.00000000       0.00000000       0.20000000 </v>
   <v name="shift">      0.00000000       0.00000000       0.00000000 </v>
  </generation>
  <varray name="kpointlist" >
   <v>       0.00000000       0.00000000       0.00000000 </v>
   <v>       0.20000000       0.00000000       0.00000000 </v>
   <v>       0.40000000       0.00000000       0.00000000 </v>
   <v>       0.00000000       0.20000000       0.00000000 </v>
   <v>       0.20000000       0.20000000       0.00000000 </v>
   <v>       0.40000000       0.20000000       0.00000000 </v>
   <v>       0.00000000       0.40000000       0.00000000 </v>
   <v>       0.20000000       0.40000000       0.00000000 </v>
   <v>       0.40000000       0.40000000       0.00000000 </v>
   <v>       0.00000000       0.20000000       0.20000000 </v>
   <v>       0.20000000       0.20000000       0.20000000 </v>
   <v>       0.40000000       0.20000000       0.20000000 </v>
   <v>       0.00000000       0.40000000       0.20000000 </v>
   <v>       0.20000000       0.40000000       0.20000000 </v>
   <v>       0.40000000       0.40000000       0.20000000 </v>
   <v>       0.00000000       0.40000000       0.40000000 </v>
   <v>       0.20000000       0.40000000       0.40000000 </v>
   <v>       0.40000000       0.40000000       0.40000000 </v>
  </varray>
  <varray name="weights" >
   <v>       0.00800000 </v>
   <v>       0.01600000 </v>
   <v>       0.01600000 </v>
   <v>       0.03200000 </v>
   <v>       0.06400000 </v>
   <v>       0.06400000 </v>
   <v>       0.03200000 </v>
   <v>       0.06400000 </v>
   <v>       0.06400000 </v>
   <v>       0.03200000 </v>
   <v>       0.06400000 </v>
   <v>       0.06400000 </v>
   <v>       0.06400000 </v>
   <v>       0.12800000 </v>
   <v>       0.12800000 </v>
   <v>       0.03200000 </v>
   <v>       0.06400000 </v>
   <v>       0.06400000 </v>
  </varray>
  <varray name="tetrahedronlist"  type="int" >
   <v type="int" >        4       11       12       14       15 </v>
   <v type="int" >        4       11       14       14       15 </v>
   <v type="int" >        8       14       14       15       17 </v>
   <v type="int" >        4       12       14       15       15 </v>
   <v type="int" >        8       14       15       15       18 </v>
   <v type="int" >        4       14       15       17       18 </v>
   <v type="int" >        2       12       12       15       15 </v>
   <v type="int" >        4       12       15       15       15 </v>
   <v type="int" >       12       15       15       15       18 </v>
   <v type="int" >       10       15       15       18       18 </v>
   <v type="int" >        4       10       11       13       14 </v>
   <v type="int" >        4       11       13       14       14 </v>
   <v type="int" >        8       13       14       14       17 </v>
   <v type="int" >        4       10       13       13       14 </v>
   <v type="int" >        8       13       13       14       16 </v>
   <v type="int" >        4       13       14       16       17 </v>
   <v type="int" >        4       14       15       15       17 </v>
   <v type="int" >        4       14       15       17       17 </v>
   <v type="int" >        4       15       15       17       18 </v>
   <v type="int" >        4       15       17       18       18 </v>
   <v type="int" >        4       15       17       17       18 </v>
   <v type="int" >        8       15       18       18       18 </v>
   <v type="int" >        4       14       14       15       18 </v>
   <v type="int" >        4       14       15       18       18 </v>
   <v type="int" >        4       14       14       17       18 </v>
   <v type="int" >        4       14       17       17       18 </v>
   <v type="int" >        4       14       17       18       18 </v>
   <v type="int" >        4       13       13       14       17 </v>
   <v type="int" >        4       13       14       17       17 </v>
   <v type="int" >        4       13       13       16       17 </v>
   <v type="int" >        4       13       16       16       17 </v>
   <v type="int" >        4       13       16       17       17 </v>
   <v type="int" >        4       13       14       14       16 </v>
   <v type="int" >        4       13       14       16       16 </v>
   <v type="int" >        4       14       14       16       17 </v>
   <v type="int" >        4       14       16       17       17 </v>
   <v type="int" >        4       14       16       16       17 </v>
   <v type="int" >        4       12       14       15       17 </v>
   <v type="int" >        4       11       12       14       17 </v>
   <v type="int" >        4       12       15       17       18 </v>
   <v type="int" >        4       12       15       15       18 </v>
   <v type="int" >        4       12       12       15       18 </v>
   <v type="int" >        4       12       15       18       18 </v>
   <v type="int" >        4       11       14       15       18 </v>
   <v type="int" >        4       11       12       15       18 </v>
   <v type="int" >        4       11       14       17       18 </v>
   <v type="int" >        4       10       13       14       17 </v>
   <v type="int" >        4       10       11       14       17 </v>
   <v type="int" >        4       10       13       16       17 </v>
   <v type="int" >        4       11       13       14       16 </v>
   <v type="int" >        4       10       11       13       16 </v>
   <v type="int" >        4       11       14       16       17 </v>
   <v type="int" >        4        6       11       12       14 </v>
   <v type="int" >        4        5        6       11       14 </v>
   <v type="int" >        4        5        6        8       14 </v>
   <v type="int" >        4        6       12       14       15 </v>
   <v type="int" >        4        6        9       14       15 </v>
   <v type="int" >        4        6        8        9       14 </v>
   <v type="int" >        4        6       12       12       15 </v>
   <v type="int" >        4        6        6       12       15 </v>
   <v type="int" >        4        6        6        9       15 </v>
   <v type="int" >        4        6       12       15       15 </v>
   <v type="int" >        4        6        9       15       15 </v>
   <v type="int" >        4        6        9        9       15 </v>
   <v type="int" >        4        5       11       12       15 </v>
   <v type="int" >        4        5        6       12       15 </v>
   <v type="int" >        4        5        6        9       15 </v>
   <v type="int" >        4        5       11       14       15 </v>
   <v type="int" >        4        5        8       14       15 </v>
   <v type="int" >        4        5        8        9       15 </v>
   <v type="int" >        4        4       10       11       14 </v>
   <v type="int" >        4        4        5       11       14 </v>
   <v type="int" >        4        4        5        8       14 </v>
   <v type="int" >        4        4       10       13       14 </v>
   <v type="int" >        4        4        7       13       14 </v>
   <v type="int" >        4        4        7        8       14 </v>
   <v type="int" >        4        5       10       11       13 </v>
   <v type="int" >        4        4        5       10       13 </v>
   <v type="int" >        4        4        5        7       13 </v>
   <v type="int" >        4        5       11       13       14 </v>
   <v type="int" >        4        5        8       13       14 </v>
   <v type="int" >        4        5        7        8       13 </v>
   <v type="int" >        4        5        6        8       12 </v>
   <v type="int" >        4        5        8       11       12 </v>
   <v type="int" >        4        8       11       12       14 </v>
   <v type="int" >        4        6        8        9       12 </v>
   <v type="int" >        4        8        9       12       15 </v>
   <v type="int" >        4        8       12       14       15 </v>
   <v type="int" >        4        6        6        9       12 </v>
   <v type="int" >        4        6        9       12       12 </v>
   <v type="int" >        4        9       12       12       15 </v>
   <v type="int" >        4        6        9        9       12 </v>
   <v type="int" >        4        9        9       12       15 </v>
   <v type="int" >        4        9       12       15       15 </v>
   <v type="int" >        4        5        6        9       11 </v>
   <v type="int" >        4        6        9       11       12 </v>
   <v type="int" >        4        9       11       12       15 </v>
   <v type="int" >        4        5        8        9       11 </v>
   <v type="int" >        4        8        9       11       14 </v>
   <v type="int" >        4        9       11       14       15 </v>
   <v type="int" >        4        4        5        8       10 </v>
   <v type="int" >        4        5        8       10       11 </v>
   <v type="int" >        4        8       10       11       14 </v>
   <v type="int" >        4        4        7        8       10 </v>
   <v type="int" >        4        7        8       10       13 </v>
   <v type="int" >        4        8       10       13       14 </v>
   <v type="int" >        4        4        5        7       11 </v>
   <v type="int" >        4        4        7       10       11 </v>
   <v type="int" >        4        7       10       11       13 </v>
   <v type="int" >        4        5        7        8       11 </v>
   <v type="int" >        4        7        8       11       14 </v>
   <v type="int" >        4        7       11       13       14 </v>
   <v type="int" >        4       17       17       18       18 </v>
   <v type="int" >        4       17       17       17       18 </v>
   <v type="int" >        4       17       18       18       18 </v>
   <v type="int" >        6       18       18       18       18 </v>
   <v type="int" >        4       16       16       17       17 </v>
   <v type="int" >        4       16       17       17       17 </v>
   <v type="int" >        4       16       16       16       17 </v>
   <v type="int" >        4        9       14       14       15 </v>
   <v type="int" >        4        8        9       14       14 </v>
   <v type="int" >        4        8        8        9       14 </v>
   <v type="int" >        4        9       14       15       15 </v>
   <v type="int" >        4        9        9       14       15 </v>
   <v type="int" >        4        8        9        9       14 </v>
   <v type="int" >        8        9       15       15       15 </v>
   <v type="int" >        8        9        9       15       15 </v>
   <v type="int" >        8        9        9        9       15 </v>
   <v type="int" >        4        8       14       15       15 </v>
   <v type="int" >        4        8        9       15       15 </v>
   <v type="int" >        4        8        9        9       15 </v>
   <v type="int" >        4        8       14       14       15 </v>
   <v type="int" >        4        8        8       14       15 </v>
   <v type="int" >        4        8        8        9       15 </v>
   <v type="int" >        4        7       13       14       14 </v>
   <v type="int" >        4        7        8       14       14 </v>
   <v type="int" >        4        7        8        8       14 </v>
   <v type="int" >        4        7       13       13       14 </v>
   <v type="int" >        4        7        7       13       14 </v>
   <v type="int" >        4        7        7        8       14 </v>
   <v type="int" >        4        8       13       13       14 </v>
   <v type="int" >        4        7        8       13       13 </v>
   <v type="int" >        4        7        7        8       13 </v>
   <v type="int" >        4        8       13       14       14 </v>
   <v type="int" >        4        8        8       13       14 </v>
   <v type="int" >        4        7        8        8       13 </v>
   <v type="int" >        4        5        6       11       12 </v>
   <v type="int" >        4        5        5        6       11 </v>
   <v type="int" >        4        2        5        5        6 </v>
   <v type="int" >        4        5        6        6       12 </v>
   <v type="int" >        4        3        5        6        6 </v>
   <v type="int" >        4        2        3        5        6 </v>
   <v type="int" >        2        6        6       12       12 </v>
   <v type="int" >        4        6        6        6       12 </v>
   <v type="int" >        4        3        6        6        6 </v>
   <v type="int" >        2        3        3        6        6 </v>
   <v type="int" >        4        4        5       10       11 </v>
   <v type="int" >        4        4        5        5       11 </v>
   <v type="int" >        4        2        4        5        5 </v>
   <v type="int" >        4        4        4        5       10 </v>
   <v type="int" >        4        1        4        4        5 </v>
   <v type="int" >        4        1        2        4        5 </v>
   <v type="int" >        4        2        5        6       12 </v>
   <v type="int" >        4        2        5       11       12 </v>
   <v type="int" >        4        2        3        6       12 </v>
   <v type="int" >        4        3        6        6       12 </v>
   <v type="int" >        4        3        6       12       12 </v>
   <v type="int" >        4        3        3        6       12 </v>
   <v type="int" >        4        3        5        6       11 </v>
   <v type="int" >        4        3        6       11       12 </v>
   <v type="int" >        4        2        3        5       11 </v>
   <v type="int" >        4        2        4        5       10 </v>
   <v type="int" >        4        2        5       10       11 </v>
   <v type="int" >        4        1        2        4       10 </v>
   <v type="int" >        4        1        4        5       11 </v>
   <v type="int" >        4        1        4       10       11 </v>
   <v type="int" >        4        1        2        5       11 </v>
  </varray>
  <i name="volumeweight">      0.00133333 </i>
 </kpoints>
 <parameters>
  <separator name="general" >
   <i type="string" name="SYSTEM">GaAs</i>
   <i type="logical" name="LCOMPAT"> F  </i>
  </separator>
  <separator name="electronic" >
   <i type="string" name="PREC">normal</i>
   <i name="ENMAX">    400.00000000</i>
   <i name="ENAUG">    462.75800000</i>
   <i name="EDIFF">      0.00000100</i>
   <i type="int" name="IALGO">    38</i>
   <i type="int" name="IWAVPR">    11</i>
   <i type="int" name="NBANDS">   168</i>
   <i type="int" name="NBANDSLOW">    -1</i>
   <i type="int" name="NBANDSHIGH">    -1</i>
   <i name="NELECT">    256.00000000</i>
   <i type="int" name="TURBO">     0</i>
   <i type="int" name="IRESTART">     0</i>
   <i type="int" name="NREBOOT">     0</i>
   <i type="int" name="NMIN">     0</i>
   <i name="EREF">      0.00000000</i>
   <separator name="electronic smearing" >
    <i type="int" name="ISMEAR">    -5</i>
    <i name="SIGMA">      0.10000000</i>
    <i name="KSPACING">      0.50000000</i>
    <i type="logical" name="KGAMMA"> T  </i>
    <i type="logical" name="KBLOWUP"> T  </i>
   </separator>
   <separator name="electronic projectors" >
    <i type="logical" name="LREAL"> F  </i>
    <v name="ROPT">      0.00000000      0.00000000</v>
    <i type="int" name="LMAXPAW">  -100</i>
    <i type="int" name="LMAXMIX">     2</i>
    <i type="logical" name="NLSPLINE"> F  </i>
   </separator>
   <separator name="electronic startup" >
    <i type="int" name="ISTART">     0</i>
    <i type="int" name="ICHARG">     2</i>
    <i type="int" name="INIWAV">     1</i>
   </separator>
   <separator name="electronic spin" >
    <i type="int" name="ISPIN">     1</i>
    <i type="logical" name="LNONCOLLINEAR"> F  </i>
    <v name="MAGMOM">      1.00000000      1.00000000      1.00000000      1.00000000      1.00000000      1.00000000      1.00000000      1.00000000      1.00000000      1.00000000      1.00000000      1.00000000      1.00000000      1.00000000      1.00000000      1.00000000      1.00000000      1.00000000      1.00000000      1.00000000
      1.00000000      1.00000000      1.00000000      1.00000000      1.00000000      1.00000000      1.00000000      1.00000000      1.00000000      1.00000000      1.00000000      1.00000000      1.00000000      1.00000000      1.00000000      1.00000000      1.00000000      1.00000000      1.00000000      1.00000000
      1.00000000      1.00000000      1.00000000      1.00000000      1.00000000      1.00000000      1.00000000      1.00000000      1.00000000      1.00000000      1.00000000      1.00000000      1.00000000      1.00000000      1.00000000      1.00000000      1.00000000      1.00000000      1.00000000      1.00000000
      1.00000000      1.00000000      1.00000000      1.00000000</v>
    <i name="NUPDOWN">     -1.00000000</i>
    <i type="logical" name="LSORBIT"> F  </i>
    <v name="SAXIS">      0.00000000      0.00000000      1.00000000</v>
    <i type="logical" name="LSPIRAL"> F  </i>
    <v name="QSPIRAL">      0.00000000      0.00000000      0.00000000</v>
    <i type="logical" name="LZEROZ"> F  </i>
   </separator>
   <separator name="electronic exchange-correlation" >
    <i type="logical" name="LASPH"> F  </i>
   </separator>
   <separator name="electronic convergence" >
    <i type="int" name="NELM">    60</i>
    <i type="int" name="NELMDL">    -5</i>
    <i type="int" name="NELMIN">     2</i>
    <i name="ENINI">    400.00000000</i>
    <separator name="electronic convergence detail" >
     <i type="logical" name="LDIAG"> T  </i>
     <i type="logical" name="LSUBROT"> F  </i>
     <i name="WEIMIN">      0.00100000</i>
     <i name="EBREAK">      0.00000000</i>
     <i name="DEPER">      0.30000000</i>
     <i type="int" name="NRMM">     4</i>
     <i name="TIME">      0.40000000</i>
    </separator>
   </separator>
   <separator name="electronic mixer" >
    <i name="AMIX">      0.40000000</i>
    <i name="BMIX">      1.00000000</i>
    <i name="AMIN">      0.10000000</i>
    <i name="AMIX_MAG">      1.60000000</i>
    <i name="BMIX_MAG">      1.00000000</i>
    <separator name="electronic mixer details" >
     <i type="int" name="IMIX">     4</i>
     <i type="logical" name="MIXFIRST"> F  </i>
     <i type="int" name="MAXMIX">   -45</i>
     <i name="WC">    100.00000000</i>
     <i type="int" name="INIMIX">     1</i>
     <i type="int" name="MIXPRE">     1</i>
     <i type="int" name="MREMOVE">     5</i>
    </separator>
   </separator>
   <separator name="electronic dipolcorrection" >
    <i type="logical" name="LDIPOL"> F  </i>
    <i type="logical" name="LMONO"> F  </i>
    <i type="int" name="IDIPOL">     0</i>
    <i name="EPSILON">      1.00000000</i>
    <v name="DIPOL">   -100.00000000   -100.00000000   -100.00000000</v>
    <i name="EFIELD">      0.00000000</i>
    <i type="logical" name="LVACPOTAV"> F  </i>
   </separator>
  </separator>
  <separator name="grids" >
   <i type="int" name="NGX">    56</i>
   <i type="int" name="NGY">    56</i>
   <i type="int" name="NGZ">    56</i>
   <i type="int" name="NGXF">   112</i>
   <i type="int" name="NGYF">   112</i>
   <i type="int" name="NGZF">   112</i>
   <i type="logical" name="ADDGRID"> F  </i>
  </separator>
  <separator name="ionic" >
   <i type="int" name="NSW">   100</i>
   <i type="int" name="IBRION">     2</i>
   <i type="int" name="MDALGO">     0</i>
   <i type="int" name="ISIF">     2</i>
   <i name="PSTRESS">      0.00000000</i>
   <i name="EDIFFG">      0.00100000</i>
   <i type="int" name="NFREE">     2</i>
   <i name="POTIM">      0.10000000</i>
   <i name="SMASS">     -3.00000000</i>
   <i name="SCALEE">      1.00000000</i>
  </separator>
  <separator name="ionic md" >
   <i name="TEBEG">      0.00010000</i>
   <i name="TEEND">      0.00010000</i>
   <i type="int" name="NBLOCK">     1</i>
   <i type="int" name="KBLOCK">   100</i>
   <i type="int" name="NPACO">   256</i>
   <i name="APACO">     10.00000000</i>
  </separator>
  <separator name="symmetry" >
   <i type="int" name="ISYM">     2</i>
   <i name="SYMPREC">      0.00001000</i>
  </separator>
  <separator name="dos" >
   <i type="int" name="LORBIT">     0</i>
   <v name="RWIGS">     -1.00000000     -1.00000000</v>
   <i type="int" name="NEDOS">   301</i>
   <i name="EMIN">     10.00000000</i>
   <i name="EMAX">    -10.00000000</i>
   <i name="EFERMI">      0.00000000</i>
  </separator>
  <separator name="writing" >
   <i type="int" name="NWRITE">     2</i>
   <i type="logical" name="LWAVE"> T  </i>
   <i type="logical" name="LDOWNSAMPLE"> F  </i>
   <i type="logical" name="LCHARG"> T  </i>
   <i type="logical" name="LPARD"> F  </i>
   <i type="logical" name="LVTOT"> F  </i>
   <i type="logical" name="LVHAR"> F  </i>
   <i type="logical" name="LELF"> F  </i>
   <i type="logical" name="LOPTICS"> T  </i>
   <v name="STM">      0.00000000      0.00000000      0.00000000      0.00000000      0.00000000      0.00000000      0.00000000</v>
  </separator>
  <separator name="performance" >
   <i type="int" name="NPAR">     8</i>
   <i type="int" name="NSIM">     4</i>
   <i type="int" name="NBLK">    -1</i>
   <i type="logical" name="LPLANE"> T  </i>
   <i type="logical" name="LSCALAPACK"> T  </i>
   <i type="logical" name="LSCAAWARE"> F  </i>
   <i type="logical" name="LSCALU"> F  </i>
   <i type="logical" name="LASYNC"> F  </i>
   <i type="logical" name="LORBITALREAL"> F  </i>
  </separator>
  <separator name="miscellaneous" >
   <i type="int" name="IDIOT">     3</i>
   <i type="int" name="PHON_NSTRUCT">    -1</i>
   <i type="logical" name="LMUSIC"> F  </i>
   <v name="POMASS">     74.92200000     69.72300000</v>
   <v name="DARWINR">      0.00000000      0.00000000</v>
   <v name="DARWINV">      1.00000000      1.00000000</v>
   <i type="logical" name="LCORR"> T  </i>
  </separator>
  <i type="logical" name="GGA_COMPAT"> T  </i>
  <i type="logical" name="LBERRY"> F  </i>
  <i type="int" name="ICORELEVEL">     0</i>
  <i type="logical" name="LDAU"> F  </i>
  <i type="int" name="I_CONSTRAINED_M">     0</i>
  <separator name="electronic exchange-correlation" >
   <i type="string" name="GGA    ">PE</i>
   <i type="string" name="XC_C">1</i>
   <i type="int" name="VOSKOWN">     0</i>
   <i type="logical" name="LHFCALC"> F  </i>
   <i type="string" name="PRECFOCK"></i>
   <i type="logical" name="LSYMGRAD"> F  </i>
   <i type="logical" name="LHFONE"> F  </i>
   <i type="logical" name="LRHFCALC"> F  </i>
   <i type="logical" name="LTHOMAS"> F  </i>
   <i type="logical" name="LMODELHF"> F  </i>
   <i type="logical" name="LFOCKACE"> F  </i>
   <i name="ENCUT4O">     -1.00000000</i>
   <i type="int" name="EXXOEP">     0</i>
   <i type="int" name="FOURORBIT">     0</i>
   <i name="AEXX">      0.00000000</i>
   <i name="HFALPHA">      0.00000000</i>
   <i name="MCALPHA">      0.00000000</i>
   <i name="ALDAX">      1.00000000</i>
   <i name="AGGAX">      1.00000000</i>
   <i name="AMGGAX">      1.00000000</i>
   <i name="ALDAC">      1.00000000</i>
   <i name="AGGAC">      1.00000000</i>
   <i name="AMGGAC">      1.00000000</i>
   <i type="int" name="NKREDX">     1</i>
   <i type="int" name="NKREDY">     1</i>
   <i type="int" name="NKREDZ">     1</i>
   <i type="logical" name="SHIFTRED"> F  </i>
   <i type="logical" name="ODDONLY"> F  </i>
   <i type="logical" name="EVENONLY"> F  </i>
   <i type="int" name="LMAXFOCK">     0</i>
   <i type="int" name="NMAXFOCKAE">     0</i>
   <i type="logical" name="LFOCKAEDFT"> F  </i>
   <i name="HFSCREEN">      0.00000000</i>
   <i name="HFSCREENC">      0.00000000</i>
   <i type="int" name="NBANDSGWLOW">     0</i>
  </separator>
  <separator name="vdW DFT" >
   <i type="logical" name="LUSE_VDW"> F  </i>
   <i type="int" name="IVDW_NL">    -1</i>
   <i type="logical" name="LSPIN_VDW"> F  </i>
   <i name="ZAB_VDW">     -0.84910000</i>
   <i name="GAMMA_VDW">      1.39626340</i>
   <i name="ALPHA_VDW">      0.00000000</i>
   <i name="PARAM1">      0.12340000</i>
   <i name="PARAM2">      1.00000000</i>
   <i name="BPARAM">      6.30000000</i>
   <i name="CPARAM">      0.00930000</i>
  </separator>
  <separator name="model GW" >
   <i type="int" name="MODEL_GW">     0</i>
   <i name="MODEL_EPS0">     14.36356699</i>
   <i name="MODEL_ALPHA">      1.00000000</i>
  </separator>
  <separator name="linear response parameters" >
   <i type="logical" name="LEPSILON"> T  </i>
   <i type="logical" name="LRPA"> F  </i>
   <i type="logical" name="LNABLA"> F  </i>
   <i type="logical" name="LVEL"> F  </i>
   <i name="CSHIFT">      0.10000000</i>
   <i name="OMEGAMAX">     -1.00000000</i>
   <i name="DEG_THRESHOLD">      0.00200000</i>
   <i name="RTIME">     -0.10000000</i>
   <i name="WPLASMAI">      0.00000000</i>
   <v name="DFIELD">      0.00000000      0.00000000      0.00000000</v>
   <v name="WPLASMA">      0.00000000      0.00000000      0.00000000      0.00000000      0.00000000      0.00000000      0.00000000      0.00000000      0.00000000</v>
  </separator>
  <separator name="orbital magnetization" >
   <i type="logical" name="NUCIND"> F  </i>
   <v name="MAGPOS">      0.00000000      0.00000000      0.00000000</v>
   <i type="logical" name="LNICSALL"> T  </i>
   <i type="logical" name="ORBITALMAG"> F  </i>
   <i type="logical" name="LMAGBLOCH"> F  </i>
   <i type="logical" name="LCHIMAG"> F  </i>
   <i type="logical" name="LGAUGE"> T  </i>
   <i type="int" name="MAGATOM">     0</i>
   <v name="MAGDIPOL">      0.00000000      0.00000000      0.00000000</v>
   <v name="AVECCONST">      0.00000000      0.00000000      0.00000000</v>
  </separator>
  <separator name="response functions" >
   <i type="logical" name="LALL_IN_ONE"> F  </i>
   <i type="int" name="IALL_IN_ONE">    -1</i>
   <i type="int" name="NBANDS_WAVE">    -1</i>
   <i type="logical" name="LFINITE_TEMPERATURE"> F  </i>
   <i type="logical" name="LADDER"> F  </i>
   <i type="logical" name="LRPAFORCE"> F  </i>
   <i type="logical" name="LFXC"> F  </i>
   <i type="logical" name="LHARTREE"> T  </i>
   <i type="int" name="IBSE">     0</i>
   <v type="int" name="KPOINT">    -1     0     0     0</v>
   <i type="logical" name="LTCTC"> F  </i>
   <i type="logical" name="LTCTE"> F  </i>
   <i type="logical" name="LTETE"> F  </i>
   <i type="logical" name="LTRIPLET"> F  </i>
   <i type="logical" name="LFXCEPS"> F  </i>
   <i type="logical" name="LFXHEG"> F  </i>
   <i type="int" name="NATURALO">     2</i>
   <i type="logical" name="LHOLEGF"> F  </i>
   <i type="logical" name="L2ORDER"> F  </i>
   <i type="logical" name="LDMP1"> F  </i>
   <i type="logical" name="LMP2LT"> F  </i>
   <i type="logical" name="LSMP2LT"> F  </i>
   <i type="logical" name="LGWLF"> F  </i>
   <i name="ENCUTGW">     -1.60000002</i>
   <i name="ENCUTGWSOFT">     -1.60000002</i>
   <i name="ENCUTLF">     -1.00000000</i>
   <i type="logical" name="ESF_SPLINES"> F  </i>
   <i name="ESF_CONV">      0.01000000</i>
   <i type="int" name="ESF_NINTER">    15</i>
   <i type="int" name="LMAXMP2">    -1</i>
   <i name="SCISSOR">      0.00000000</i>
   <i type="int" name="NOMEGA">     0</i>
   <i type="int" name="NOMEGAR">     0</i>
   <i type="int" name="NBANDSGW">    -1</i>
   <i type="int" name="NBANDSO">    -1</i>
   <i type="int" name="NBANDSV">    -1</i>
   <i type="int" name="NELMGW">     1</i>
   <i type="int" name="NELMHF">     1</i>
   <i type="int" name="DIM">     3</i>
   <i type="int" name="IESPILON">     4</i>
   <i type="int" name="ANTIRES">     0</i>
   <i name="OMEGAMAX">    -30.00000000</i>
   <i name="OMEGAMIN">    -30.00000000</i>
   <i name="OMEGATL">   -200.00000000</i>
   <i type="int" name="OMEGAGRID">     0</i>
   <i name="CSHIFT">     -0.10000000</i>
   <i type="logical" name="LSELFENERGY"> F  </i>
   <i type="logical" name="LSPECTRAL"> F  </i>
   <i type="logical" name="LSPECTRALGW"> F  </i>
   <i type="logical" name="LSINGLES"> F  </i>
   <i type="logical" name="LFERMIGW"> F  </i>
   <i type="logical" name="ODDONLYGW"> F  </i>
   <i type="logical" name="EVENONLYGW"> F  </i>
   <i type="int" name="NKREDLFX">     1</i>
   <i type="int" name="NKREDLFY">     1</i>
   <i type="int" name="NKREDLFZ">     1</i>
   <i type="int" name="MAXMEM">  2800</i>
   <i type="int" name="TELESCOPE">     0</i>
   <i type="int" name="NTAUPAR">    -1</i>
   <i type="int" name="NOMEGAPAR">    -1</i>
   <i name="DAMP_NEWTON">      0.80000001</i>
   <i name="LAMBDA">      1.00000000</i>
  </separator>
  <separator name="External order field" >
   <i name="OFIELD_KAPPA">      0.00000000</i>
   <v name="OFIELD_K">      0.00000000      0.00000000      0.00000000</v>
   <i name="OFIELD_Q6_NEAR">      0.00000000</i>
   <i name="OFIELD_Q6_FAR">      0.00000000</i>
   <i name="OFIELD_A">      0.00000000</i>
  </separator>
  <separator name="optional k-points parameters" >
   <i type="int" name="KPOINTS_OPT_MODE">     1</i>
   <i type="logical" name="LKPOINTS_OPT"> F  </i>
  </separator>
 </parameters>
 <atominfo>
  <atoms>      64 </atoms>
  <types>       2 </types>
  <array name="atoms" >
   <dimension dim="1">ion</dimension>
   <field type="string">element</field>
   <field type="int">atomtype</field>
   <set>
    <rc><c>As</c><c>   1</c></rc>
    <rc><c>As</c><c>   1</c></rc>
    <rc><c>As</c><c>   1</c></rc>
    <rc><c>As</c><c>   1</c></rc>
    <rc><c>As</c><c>   1</c></rc>
    <rc><c>As</c><c>   1</c></rc>
    <rc><c>As</c><c>   1</c></rc>
    <rc><c>As</c><c>   1</c></rc>
    <rc><c>As</c><c>   1</c></rc>
    <rc><c>As</c><c>   1</c></rc>
    <rc><c>As</c><c>   1</c></rc>
    <rc><c>As</c><c>   1</c></rc>
    <rc><c>As</c><c>   1</c></rc>
    <rc><c>As</c><c>   1</c></rc>
    <rc><c>As</c><c>   1</c></rc>
    <rc><c>As</c><c>   1</c></rc>
    <rc><c>As</c><c>   1</c></rc>
    <rc><c>As</c><c>   1</c></rc>
    <rc><c>As</c><c>   1</c></rc>
    <rc><c>As</c><c>   1</c></rc>
    <rc><c>As</c><c>   1</c></rc>
    <rc><c>As</c><c>   1</c></rc>
    <rc><c>As</c><c>   1</c></rc>
    <rc><c>As</c><c>   1</c></rc>
    <rc><c>As</c><c>   1</c></rc>
    <rc><c>As</c><c>   1</c></rc>
    <rc><c>As</c><c>   1</c></rc>
    <rc><c>As</c><c>   1</c></rc>
    <rc><c>As</c><c>   1</c></rc>
    <rc><c>As</c><c>   1</c></rc>
    <rc><c>As</c><c>   1</c></rc>
    <rc><c>As</c><c>   1</c></rc>
    <rc><c>Ga</c><c>   2</c></rc>
    <rc><c>Ga</c><c>   2</c></rc>
    <rc><c>Ga</c><c>   2</c></rc>
    <rc><c>Ga</c><c>   2</c></rc>
    <rc><c>Ga</c><c>   2</c></rc>
    <rc><c>Ga</c><c>   2</c></rc>
    <rc><c>Ga</c><c>   2</c></rc>
    <rc><c>Ga</c><c>   2</c></rc>
    <rc><c>Ga</c><c>   2</c></rc>
    <rc><c>Ga</c><c>   2</c></rc>
    <rc><c>Ga</c><c>   2</c></rc>
    <rc><c>Ga</c><c>   2</c></rc>
    <rc><c>Ga</c><c>   2</c></rc>
    <rc><c>Ga</c><c>   2</c></rc>
    <rc><c>Ga</c><c>   2</c></rc>
    <rc><c>Ga</c><c>   2</c></rc>
    <rc><c>Ga</c><c>   2</c></rc>
    <rc><c>Ga</c><c>   2</c></rc>
    <rc><c>Ga</c><c>   2</c></rc>
    <rc><c>Ga</c><c>   2</c></rc>
    <rc><c>Ga</c><c>   2</c></rc>
    <rc><c>Ga</c><c>   2</c></rc>
    <rc><c>Ga</c><c>   2</c></rc>
    <rc><c>Ga</c><c>   2</c></rc>
    <rc><c>Ga</c><c>   2</c></rc>
    <rc><c>Ga</c><c>   2</c></rc>
    <rc><c>Ga</c><c>   2</c></rc>
    <rc><c>Ga</c><c>   2</c></rc>
    <rc><c>Ga</c><c>   2</c></rc>
    <rc><c>Ga</c><c>   2</c></rc>
    <rc><c>Ga</c><c>   2</c></rc>
    <rc><c>Ga</c><c>   2</c></rc>
   </set>
  </array>
  <array name="atomtypes" >
   <dimension dim="1">type</dimension>
   <field type="int">atomspertype</field>
   <field type="string">element</field>
   <field>mass</field>
   <field>valence</field>
   <field type="string">pseudopotential</field>
   <set>
    <rc><c>  32</c><c>As</c><c>     74.92200000</c><c>      5.00000000</c><c>  PAW_PBE As 22Sep2009                  </c></rc>
    <rc><c>  32</c><c>Ga</c><c>     69.72300000</c><c>      3.00000000</c><c>  PAW_PBE Ga 08Apr2002                  </c></rc>
   </set>
  </array>
 </atominfo>
 <structure name="initialpos" >
  <crystal>
   <varray name="basis" >
    <v>      11.53832663       0.00000000       0.00000000 </v>
    <v>       0.00000000      11.52322653       0.00000000 </v>
    <v>       0.00000000       0.00000000      11.52322653 </v>
   </varray>
   <i name="volume">   1532.11381237 </i>
   <varray name="rec_basis" >
    <v>       0.08666768       0.00000000       0.00000000 </v>
    <v>       0.00000000       0.08678125       0.00000000 </v>
    <v>       0.00000000       0.00000000       0.08678125 </v>
   </varray>
  </crystal>
  <varray name="positions" >
   <v>       0.00000000       0.00000000       0.00000000 </v>
   <v>       0.00000000       0.00000000       0.50000000 </v>
   <v>       0.00000000       0.50000000       0.00000000 </v>
   <v>       0.00000000       0.50000000       0.50000000 </v>
   <v>       0.50000000       0.00000000       0.00000000 </v>
   <v>       0.50000000       0.00000000       0.50000000 </v>
   <v>       0.50000000       0.50000000       0.00000000 </v>
   <v>       0.50000000       0.50000000       0.50000000 </v>
   <v>       0.25000000       0.25000000       0.00000000 </v>
   <v>       0.25000000       0.25000000       0.50000000 </v>
   <v>       0.25000000       0.75000000       0.00000000 </v>
   <v>       0.25000000       0.75000000       0.50000000 </v>
   <v>       0.75000000       0.25000000       0.00000000 </v>
   <v>       0.75000000       0.25000000       0.50000000 </v>
   <v>       0.75000000       0.75000000       0.00000000 </v>
   <v>       0.75000000       0.75000000       0.50000000 </v>
   <v>       0.25000000       0.00000000       0.25000000 </v>
   <v>       0.25000000       0.00000000       0.75000000 </v>
   <v>       0.25000000       0.50000000       0.25000000 </v>
   <v>       0.25000000       0.50000000       0.75000000 </v>
   <v>       0.75000000       0.00000000       0.25000000 </v>
   <v>       0.75000000       0.00000000       0.75000000 </v>
   <v>       0.75000000       0.50000000       0.25000000 </v>
   <v>       0.75000000       0.50000000       0.75000000 </v>
   <v>       0.00000000       0.25000000       0.25000000 </v>
   <v>       0.00000000       0.25000000       0.75000000 </v>
   <v>       0.00000000       0.75000000       0.25000000 </v>
   <v>       0.00000000       0.75000000       0.75000000 </v>
   <v>       0.50000000       0.25000000       0.25000000 </v>
   <v>       0.50000000       0.25000000       0.75000000 </v>
   <v>       0.50000000       0.75000000       0.25000000 </v>
   <v>       0.50000000       0.75000000       0.75000000 </v>
   <v>       0.12500000       0.12500000       0.12500000 </v>
   <v>       0.12500000       0.12500000       0.62500000 </v>
   <v>       0.12500000       0.62500000       0.12500000 </v>
   <v>       0.12500000       0.62500000       0.62500000 </v>
   <v>       0.62500000       0.12500000       0.12500000 </v>
   <v>       0.62500000       0.12500000       0.62500000 </v>
   <v>       0.62500000       0.62500000       0.12500000 </v>
   <v>       0.62500000       0.62500000       0.62500000 </v>
   <v>       0.37500000       0.12500000       0.37500000 </v>
   <v>       0.37500000       0.12500000       0.87500000 </v>
   <v>       0.37500000       0.62500000       0.37500000 </v>
   <v>       0.37500000       0.62500000       0.87500000 </v>
   <v>       0.87500000       0.12500000       0.37500000 </v>
   <v>       0.87500000       0.12500000       0.87500000 </v>
   <v>       0.87500000       0.62500000       0.37500000 </v>
   <v>       0.87500000       0.62500000       0.87500000 </v>
   <v>       0.37500000       0.37500000       0.12500000 </v>
   <v>       0.37500000       0.37500000       0.62500000 </v>
   <v>       0.37500000       0.87500000       0.12500000 </v>
   <v>       0.37500000       0.87500000       0.62500000 </v>
   <v>       0.87500000       0.37500000       0.12500000 </v>
   <v>       0.87500000       0.37500000       0.62500000 </v>
   <v>       0.87500000       0.87500000       0.12500000 </v>
   <v>       0.87500000       0.87500000       0.62500000 </v>
   <v>       0.12500000       0.37500000       0.37500000 </v>
   <v>       0.12500000       0.37500000       0.87500000 </v>
   <v>       0.12500000       0.87500000       0.37500000 </v>
   <v>       0.12500000       0.87500000       0.87500000 </v>
   <v>       0.62500000       0.37500000       0.37500000 </v>
   <v>       0.62500000       0.37500000       0.87500000 </v>
   <v>       0.62500000       0.87500000       0.37500000 </v>
   <v>       0.62500000       0.87500000       0.87500000 </v>
  </varray>
 </structure>
 <calculation>
  <scstep>
   <time name="dav">   68.51   69.58</time>
   <time name="total">   68.65   69.73</time>
   <energy>
    <i name="alphaZ">    571.60672240 </i>
    <i name="ewald">  -7192.47644434 </i>
    <i name="hartreedc">   -602.00183895 </i>
    <i name="XCdc">   -996.25030808 </i>
    <i name="pawpsdc">   6692.16565901 </i>
    <i name="pawaedc">  -5247.93935635 </i>
    <i name="eentropy">      0.00000000 </i>
    <i name="bandstr">    381.01084626 </i>
    <i name="atom">   7329.73306348 </i>
    <i name="e_fr_energy">    935.84834342 </i>
    <i name="e_wo_entrp">    935.84834342 </i>
    <i name="e_0_energy">    935.84834342 </i>
   </energy>
  </scstep>
  <scstep>
   <time name="dav">   79.20   80.46</time>
   <time name="total">   79.20   80.46</time>
   <energy>
    <i name="e_fr_energy">   -167.08575362 </i>
    <i name="e_wo_entrp">   -167.08575362 </i>
    <i name="e_0_energy">   -167.08575362 </i>
   </energy>
  </scstep>
  <scstep>
   <time name="dav">   81.66   82.98</time>
   <time name="total">   81.67   82.99</time>
   <energy>
    <i name="e_fr_energy">   -267.65104618 </i>
    <i name="e_wo_entrp">   -267.65104618 </i>
    <i name="e_0_energy">   -267.65104618 </i>
   </energy>
  </scstep>
  <scstep>
   <time name="dav">   79.97   81.24</time>
   <time name="total">   79.98   81.25</time>
   <energy>
    <i name="e_fr_energy">   -270.17474601 </i>
    <i name="e_wo_entrp">   -270.17474601 </i>
    <i name="e_0_energy">   -270.17474601 </i>
   </energy>
  </scstep>
  <scstep>
   <time name="dav">   81.27   82.46</time>
   <time name="total">   81.98   83.18</time>
   <energy>
    <i name="e_fr_energy">   -270.25144828 </i>
    <i name="e_wo_entrp">   -270.25144828 </i>
    <i name="e_0_energy">   -270.25144828 </i>
   </energy>
  </scstep>
  <scstep>
   <time name="dav">   78.39   79.53</time>
   <time name="total">   79.29   80.43</time>
   <energy>
    <i name="e_fr_energy">   -266.05528875 </i>
    <i name="e_wo_entrp">   -266.05528875 </i>
    <i name="e_0_energy">   -266.05528875 </i>
   </energy>
  </scstep>
  <scstep>
   <time name="dav">   85.49   86.70</time>
   <time name="total">   86.34   87.57</time>
   <energy>
    <i name="e_fr_energy">   -265.22122838 </i>
    <i name="e_wo_entrp">   -265.22122838 </i>
    <i name="e_0_energy">   -265.22122838 </i>
   </energy>
  </scstep>
  <scstep>
   <time name="dav">   82.60   83.88</time>
   <time name="total">   83.49   84.79</time>
   <energy>
    <i name="e_fr_energy">   -265.18010419 </i>
    <i name="e_wo_entrp">   -265.18010419 </i>
    <i name="e_0_energy">   -265.18010419 </i>
   </energy>
  </scstep>
  <scstep>
   <time name="dav">   81.80   82.98</time>
   <time name="total">   82.67   83.86</time>
   <energy>
    <i name="e_fr_energy">   -265.19191340 </i>
    <i name="e_wo_entrp">   -265.19191340 </i>
    <i name="e_0_energy">   -265.19191340 </i>
   </energy>
  </scstep>
  <scstep>
   <time name="dav">   87.52   88.77</time>
   <time name="total">   88.40   89.66</time>
   <energy>
    <i name="e_fr_energy">   -265.19294543 </i>
    <i name="e_wo_entrp">   -265.19294543 </i>
    <i name="e_0_energy">   -265.19294543 </i>
   </energy>
  </scstep>
  <scstep>
   <time name="dav">   78.08   79.15</time>
   <time name="total">   78.93   80.01</time>
   <energy>
    <i name="e_fr_energy">   -265.19425648 </i>
    <i name="e_wo_entrp">   -265.19425648 </i>
    <i name="e_0_energy">   -265.19425648 </i>
   </energy>
  </scstep>
  <scstep>
   <time name="dav">   86.57   87.86</time>
   <time name="total">   87.44   88.73</time>
   <energy>
    <i name="e_fr_energy">   -265.19426391 </i>
    <i name="e_wo_entrp">   -265.19426391 </i>
    <i name="e_0_energy">   -265.19426391 </i>
   </energy>
  </scstep>
  <scstep>
   <time name="dav">   81.82   83.02</time>
   <time name="total">   82.69   83.90</time>
   <energy>
    <i name="e_fr_energy">   -265.19427304 </i>
    <i name="e_wo_entrp">   -265.19427304 </i>
    <i name="e_0_energy">   -265.19427304 </i>
   </energy>
  </scstep>
  <scstep>
   <time name="dav">   72.90   73.91</time>
   <time name="total">   73.03   74.05</time>
   <energy>
    <i name="alphaZ">    571.60672240 </i>
    <i name="ewald">  -7192.47644434 </i>
    <i name="hartreedc">   -710.53757212 </i>
    <i name="XCdc">   -974.30771411 </i>
    <i name="pawpsdc">  14683.22974256 </i>
    <i name="pawaedc"> -13250.72433818 </i>
    <i name="eentropy">      0.00000000 </i>
    <i name="bandstr">   -721.71773213 </i>
    <i name="atom">   7329.73306348 </i>
    <i name="e_fr_energy">   -265.19427245 </i>
    <i name="e_wo_entrp">   -265.19427245 </i>
    <i name="e_0_energy">   -265.19427245 </i>
   </energy>
  </scstep>
  <structure>
   <crystal>
    <varray name="basis" >
     <v>      11.53832663       0.00000000       0.00000000 </v>
     <v>       0.00000000      11.52322653       0.00000000 </v>
     <v>       0.00000000       0.00000000      11.52322653 </v>
    </varray>
    <i name="volume">   1532.11381237 </i>
    <varray name="rec_basis" >
     <v>       0.08666768       0.00000000       0.00000000 </v>
     <v>       0.00000000       0.08678125       0.00000000 </v>
     <v>       0.00000000       0.00000000       0.08678125 </v>
    </varray>
   </crystal>
   <varray name="positions" >
    <v>       0.00000000       0.00000000       0.00000000 </v>
    <v>       0.00000000       0.00000000       0.50000000 </v>
    <v>       0.00000000       0.50000000       0.00000000 </v>
    <v>       0.00000000       0.50000000       0.50000000 </v>
    <v>       0.50000000       0.00000000       0.00000000 </v>
    <v>       0.50000000       0.00000000       0.50000000 </v>
    <v>       0.50000000       0.50000000       0.00000000 </v>
    <v>       0.50000000       0.50000000       0.50000000 </v>
    <v>       0.25000000       0.25000000       0.00000000 </v>
    <v>       0.25000000       0.25000000       0.50000000 </v>
    <v>       0.25000000       0.75000000       0.00000000 </v>
    <v>       0.25000000       0.75000000       0.50000000 </v>
    <v>       0.75000000       0.25000000       0.00000000 </v>
    <v>       0.75000000       0.25000000       0.50000000 </v>
    <v>       0.75000000       0.75000000       0.00000000 </v>
    <v>       0.75000000       0.75000000       0.50000000 </v>
    <v>       0.25000000       0.00000000       0.25000000 </v>
    <v>       0.25000000       0.00000000       0.75000000 </v>
    <v>       0.25000000       0.50000000       0.25000000 </v>
    <v>       0.25000000       0.50000000       0.75000000 </v>
    <v>       0.75000000       0.00000000       0.25000000 </v>
    <v>       0.75000000       0.00000000       0.75000000 </v>
    <v>       0.75000000       0.50000000       0.25000000 </v>
    <v>       0.75000000       0.50000000       0.75000000 </v>
    <v>       0.00000000       0.25000000       0.25000000 </v>
    <v>       0.00000000       0.25000000       0.75000000 </v>
    <v>       0.00000000       0.75000000       0.25000000 </v>
    <v>       0.00000000       0.75000000       0.75000000 </v>
    <v>       0.50000000       0.25000000       0.25000000 </v>
    <v>       0.50000000       0.25000000       0.75000000 </v>
    <v>       0.50000000       0.75000000       0.25000000 </v>
    <v>       0.50000000       0.75000000       0.75000000 </v>
    <v>       0.12500000       0.12500000       0.12500000 </v>
    <v>       0.12500000       0.12500000       0.62500000 </v>
    <v>       0.12500000       0.62500000       0.12500000 </v>
    <v>       0.12500000       0.62500000       0.62500000 </v>
    <v>       0.62500000       0.12500000       0.12500000 </v>
    <v>       0.62500000       0.12500000       0.62500000 </v>
    <v>       0.62500000       0.62500000       0.12500000 </v>
    <v>       0.62500000       0.62500000       0.62500000 </v>
    <v>       0.37500000       0.12500000       0.37500000 </v>
    <v>       0.37500000       0.12500000       0.87500000 </v>
    <v>       0.37500000       0.62500000       0.37500000 </v>
    <v>       0.37500000       0.62500000       0.87500000 </v>
    <v>       0.87500000       0.12500000       0.37500000 </v>
    <v>       0.87500000       0.12500000       0.87500000 </v>
    <v>       0.87500000       0.62500000       0.37500000 </v>
    <v>       0.87500000       0.62500000       0.87500000 </v>
    <v>       0.37500000       0.37500000       0.12500000 </v>
    <v>       0.37500000       0.37500000       0.62500000 </v>
    <v>       0.37500000       0.87500000       0.12500000 </v>
    <v>       0.37500000       0.87500000       0.62500000 </v>
    <v>       0.87500000       0.37500000       0.12500000 </v>
    <v>       0.87500000       0.37500000       0.62500000 </v>
    <v>       0.87500000       0.87500000       0.12500000 </v>
    <v>       0.87500000       0.87500000       0.62500000 </v>
    <v>       0.12500000       0.37500000       0.37500000 </v>
    <v>       0.12500000       0.37500000       0.87500000 </v>
    <v>       0.12500000       0.87500000       0.37500000 </v>
    <v>       0.12500000       0.87500000       0.87500000 </v>
    <v>       0.62500000       0.37500000       0.37500000 </v>
    <v>       0.62500000       0.37500000       0.87500000 </v>
    <v>       0.62500000       0.87500000       0.37500000 </v>
    <v>       0.62500000       0.87500000       0.87500000 </v>
   </varray>
  </structure>
  <varray name="forces" >
   <v>       0.00000000      -0.00000000      -0.00000000 </v>
   <v>       0.00000000      -0.00000000      -0.00000000 </v>
   <v>      -0.00000000       0.00000000       0.00000000 </v>
   <v>       0.00000000      -0.00000000       0.00000000 </v>
   <v>      -0.00000000      -0.00000000      -0.00000000 </v>
   <v>      -0.00000000       0.00000000      -0.00000000 </v>
   <v>      -0.00000000       0.00000000       0.00000000 </v>
   <v>       0.00000000       0.00000000      -0.00000000 </v>
   <v>      -0.00000000       0.00000000      -0.00000000 </v>
   <v>      -0.00000000       0.00000000       0.00000000 </v>
   <v>       0.00000000       0.00000000       0.00000000 </v>
   <v>      -0.00000000      -0.00000000       0.00000000 </v>
   <v>       0.00000000       0.00000000      -0.00000000 </v>
   <v>       0.00000000       0.00000000      -0.00000000 </v>
   <v>      -0.00000000      -0.00000000       0.00000000 </v>
   <v>      -0.00000000       0.00000000      -0.00000000 </v>
   <v>      -0.00000000       0.00000000      -0.00000000 </v>
   <v>      -0.00000000       0.00000000      -0.00000000 </v>
   <v>       0.00000000       0.00000000       0.00000000 </v>
   <v>       0.00000000       0.00000000       0.00000000 </v>
   <v>       0.00000000      -0.00000000      -0.00000000 </v>
   <v>      -0.00000000      -0.00000000      -0.00000000 </v>
   <v>       0.00000000      -0.00000000       0.00000000 </v>
   <v>      -0.00000000      -0.00000000       0.00000000 </v>
   <v>       0.00000000       0.00000000      -0.00000000 </v>
   <v>      -0.00000000       0.00000000      -0.00000000 </v>
   <v>      -0.00000000      -0.00000000       0.00000000 </v>
   <v>       0.00000000       0.00000000      -0.00000000 </v>
   <v>       0.00000000       0.00000000      -0.00000000 </v>
   <v>       0.00000000       0.00000000      -0.00000000 </v>
   <v>      -0.00000000      -0.00000000       0.00000000 </v>
   <v>      -0.00000000      -0.00000000      -0.00000000 </v>
   <v>       0.00000000      -0.00000000      -0.00000000 </v>
   <v>      -0.00000000      -0.00000000       0.00000000 </v>
   <v>       0.00000000      -0.00000000      -0.00000000 </v>
   <v>      -0.00000000      -0.00000000       0.00000000 </v>
   <v>      -0.00000000       0.00000000      -0.00000000 </v>
   <v>      -0.00000000      -0.00000000       0.00000000 </v>
   <v>       0.00000000      -0.00000000       0.00000000 </v>
   <v>       0.00000000       0.00000000       0.00000000 </v>
   <v>      -0.00000000       0.00000000       0.00000000 </v>
   <v>      -0.00000000      -0.00000000       0.00000000 </v>
   <v>       0.00000000       0.00000000       0.00000000 </v>
   <v>       0.00000000      -0.00000000      -0.00000000 </v>
   <v>      -0.00000000      -0.00000000       0.00000000 </v>
   <v>      -0.00000000      -0.00000000      -0.00000000 </v>
   <v>       0.00000000       0.00000000       0.00000000 </v>
   <v>       0.00000000      -0.00000000      -0.00000000 </v>
   <v>       0.00000000      -0.00000000      -0.00000000 </v>
   <v>       0.00000000      -0.00000000       0.00000000 </v>
   <v>      -0.00000000       0.00000000      -0.00000000 </v>
   <v>      -0.00000000       0.00000000       0.00000000 </v>
   <v>      -0.00000000      -0.00000000      -0.00000000 </v>
   <v>      -0.00000000      -0.00000000       0.00000000 </v>
   <v>      -0.00000000       0.00000000      -0.00000000 </v>
   <v>       0.00000000      -0.00000000       0.00000000 </v>
   <v>       0.00000000      -0.00000000       0.00000000 </v>
   <v>       0.00000000      -0.00000000      -0.00000000 </v>
   <v>      -0.00000000       0.00000000       0.00000000 </v>
   <v>       0.00000000       0.00000000      -0.00000000 </v>
   <v>      -0.00000000      -0.00000000       0.00000000 </v>
   <v>      -0.00000000      -0.00000000      -0.00000000 </v>
   <v>      -0.00000000       0.00000000      -0.00000000 </v>
   <v>      -0.00000000       0.00000000      -0.00000000 </v>
  </varray>
  <varray name="stress" >
   <v>      -1.01887711       0.00000000       0.00000000 </v>
   <v>       0.00000000      -0.27988951       0.00000000 </v>
   <v>       0.00000000       0.00000000      -0.27988951 </v>
  </varray>
  <scstep>
   <time name="total">  111.65  113.06</time>
   <energy>
    <i name="e_fr_energy">  -1271.72294957 </i>
    <i name="e_wo_entrp">  -1271.72294957 </i>
    <i name="e_0_energy">  -1271.72294957 </i>
   </energy>
  </scstep>
  <scstep>
   <time name="total">   83.89   84.91</time>
   <energy>
    <i name="e_fr_energy">  -1099.57503611 </i>
    <i name="e_wo_entrp">  -1099.57503611 </i>
    <i name="e_0_energy">  -1099.57503611 </i>
   </energy>
  </scstep>
  <scstep>
   <time name="total">   86.21   87.26</time>
   <energy>
    <i name="e_fr_energy">  -1102.16639277 </i>
    <i name="e_wo_entrp">  -1102.16639277 </i>
    <i name="e_0_energy">  -1102.16639277 </i>
   </energy>
  </scstep>
  <scstep>
   <time name="total">   54.85   55.55</time>
   <energy>
    <i name="e_fr_energy">  -1102.30862674 </i>
    <i name="e_wo_entrp">  -1102.30862674 </i>
    <i name="e_0_energy">  -1102.30862674 </i>
   </energy>
  </scstep>
  <scstep>
   <time name="total">   55.01   55.72</time>
   <energy>
    <i name="e_fr_energy">  -1102.29952499 </i>
    <i name="e_wo_entrp">  -1102.29952499 </i>
    <i name="e_0_energy">  -1102.29952499 </i>
   </energy>
  </scstep>
  <scstep>
   <time name="total">   58.36   59.24</time>
   <energy>
    <i name="e_fr_energy">  -1102.29665672 </i>
    <i name="e_wo_entrp">  -1102.29665672 </i>
    <i name="e_0_energy">  -1102.29665672 </i>
   </energy>
  </scstep>
  <scstep>
   <time name="total">   60.26   61.06</time>
   <energy>
    <i name="e_fr_energy">  -1102.29541270 </i>
    <i name="e_wo_entrp">  -1102.29541270 </i>
    <i name="e_0_energy">  -1102.29541270 </i>
   </energy>
  </scstep>
  <scstep>
   <time name="total">   63.17   64.06</time>
   <energy>
    <i name="e_fr_energy">  -1102.29518503 </i>
    <i name="e_wo_entrp">  -1102.29518503 </i>
    <i name="e_0_energy">  -1102.29518503 </i>
   </energy>
  </scstep>
  <scstep>
   <time name="total">   67.82   68.66</time>
   <energy>
    <i name="e_fr_energy">  -1102.29503642 </i>
    <i name="e_wo_entrp">  -1102.29503642 </i>
    <i name="e_0_energy">  -1102.29503642 </i>
   </energy>
  </scstep>
  <scstep>
   <time name="total">   69.44   70.31</time>
   <energy>
    <i name="e_fr_energy">  -1102.29506107 </i>
    <i name="e_wo_entrp">  -1102.29506107 </i>
    <i name="e_0_energy">  -1102.29506107 </i>
   </energy>
  </scstep>
  <scstep>
   <time name="total">   70.77   71.65</time>
   <energy>
    <i name="e_fr_energy">  -1102.29502808 </i>
    <i name="e_wo_entrp">  -1102.29502808 </i>
    <i name="e_0_energy">  -1102.29502808 </i>
   </energy>
  </scstep>
  <scstep>
   <time name="total">  115.41  116.86</time>
   <energy>
    <i name="e_fr_energy">  -1264.31144794 </i>
    <i name="e_wo_entrp">  -1264.31144794 </i>
    <i name="e_0_energy">  -1264.31144794 </i>
   </energy>
  </scstep>
  <scstep>
   <time name="total">   83.18   84.26</time>
   <energy>
    <i name="e_fr_energy">  -1097.47771112 </i>
    <i name="e_wo_entrp">  -1097.47771112 </i>
    <i name="e_0_energy">  -1097.47771112 </i>
   </energy>
  </scstep>
  <scstep>
   <time name="total">   85.64   86.67</time>
   <energy>
    <i name="e_fr_energy">  -1099.40512053 </i>
    <i name="e_wo_entrp">  -1099.40512053 </i>
    <i name="e_0_energy">  -1099.40512053 </i>
   </energy>
  </scstep>
  <scstep>
   <time name="total">   55.87   56.56</time>
   <energy>
    <i name="e_fr_energy">  -1099.51661227 </i>
    <i name="e_wo_entrp">  -1099.51661227 </i>
    <i name="e_0_energy">  -1099.51661227 </i>
   </energy>
  </scstep>
  <scstep>
   <time name="total">   55.25   55.94</time>
   <energy>
    <i name="e_fr_energy">  -1099.48385399 </i>
    <i name="e_wo_entrp">  -1099.48385399 </i>
    <i name="e_0_energy">  -1099.48385399 </i>
   </energy>
  </scstep>
  <scstep>
   <time name="total">   60.80   61.54</time>
   <energy>
    <i name="e_fr_energy">  -1099.48072178 </i>
    <i name="e_wo_entrp">  -1099.48072178 </i>
    <i name="e_0_energy">  -1099.48072178 </i>
   </energy>
  </scstep>
  <scstep>
   <time name="total">   64.42   65.27</time>
   <energy>
    <i name="e_fr_energy">  -1099.47796108 </i>
    <i name="e_wo_entrp">  -1099.47796108 </i>
    <i name="e_0_energy">  -1099.47796108 </i>
   </energy>
  </scstep>
  <scstep>
   <time name="total">   68.74   69.60</time>
   <energy>
    <i name="e_fr_energy">  -1099.47834970 </i>
    <i name="e_wo_entrp">  -1099.47834970 </i>
    <i name="e_0_energy">  -1099.47834970 </i>
   </energy>
  </scstep>
  <scstep>
   <time name="total">   69.49   70.43</time>
   <energy>
    <i name="e_fr_energy">  -1099.47797301 </i>
    <i name="e_wo_entrp">  -1099.47797301 </i>
    <i name="e_0_energy">  -1099.47797301 </i>
   </energy>
  </scstep>
  <scstep>
   <time name="total">   69.37   70.38</time>
   <energy>
    <i name="e_fr_energy">  -1099.47811032 </i>
    <i name="e_wo_entrp">  -1099.47811032 </i>
    <i name="e_0_energy">  -1099.47811032 </i>
   </energy>
  </scstep>
  <scstep>
   <time name="total">   65.26   66.17</time>
   <energy>
    <i name="e_fr_energy">  -1099.47806610 </i>
    <i name="e_wo_entrp">  -1099.47806610 </i>
    <i name="e_0_energy">  -1099.47806610 </i>
   </energy>
  </scstep>
  <scstep>
   <time name="total">  108.88  110.40</time>
   <energy>
    <i name="e_fr_energy">  -1390.39594467 </i>
    <i name="e_wo_entrp">  -1390.39594467 </i>
    <i name="e_0_energy">  -1390.39594467 </i>
   </energy>
  </scstep>
  <scstep>
   <time name="total">   81.51   82.65</time>
   <energy>
    <i name="e_fr_energy">  -1102.97101060 </i>
    <i name="e_wo_entrp">  -1102.97101060 </i>
    <i name="e_0_energy">  -1102.97101060 </i>
   </energy>
  </scstep>
  <scstep>
   <time name="total">   78.99   79.94</time>
   <energy>
    <i name="e_fr_energy">  -1105.13622017 </i>
    <i name="e_wo_entrp">  -1105.13622017 </i>
    <i name="e_0_energy">  -1105.13622017 </i>
   </energy>
  </scstep>
  <scstep>
   <time name="total">   52.02   52.76</time>
   <energy>
    <i name="e_fr_energy">  -1105.26348521 </i>
    <i name="e_wo_entrp">  -1105.26348521 </i>
    <i name="e_0_energy">  -1105.26348521 </i>
   </energy>
  </scstep>
  <scstep>
   <time name="total">   51.45   52.20</time>
   <energy>
    <i name="e_fr_energy">  -1105.24330083 </i>
    <i name="e_wo_entrp">  -1105.24330083 </i>
    <i name="e_0_energy">  -1105.24330083 </i>
   </energy>
  </scstep>
  <scstep>
   <time name="total">   56.33   57.12</time>
   <energy>
    <i name="e_fr_energy">  -1105.24419647 </i>
    <i name="e_wo_entrp">  -1105.24419647 </i>
    <i name="e_0_energy">  -1105.24419647 </i>
   </energy>
  </scstep>
  <scstep>
   <time name="total">   59.74   60.46</time>
   <energy>
    <i name="e_fr_energy">  -1105.24283861 </i>
    <i name="e_wo_entrp">  -1105.24283861 </i>
    <i name="e_0_energy">  -1105.24283861 </i>
   </energy>
  </scstep>
  <scstep>
   <time name="total">   63.77   64.54</time>
   <energy>
    <i name="e_fr_energy">  -1105.24353074 </i>
    <i name="e_wo_entrp">  -1105.24353074 </i>
    <i name="e_0_energy">  -1105.24353074 </i>
   </energy>
  </scstep>
  <scstep>
   <time name="total">   64.33   65.22</time>
   <energy>
    <i name="e_fr_energy">  -1105.24320905 </i>
    <i name="e_wo_entrp">  -1105.24320905 </i>
    <i name="e_0_energy">  -1105.24320905 </i>
   </energy>
  </scstep>
  <scstep>
   <time name="total">   65.87   66.68</time>
   <energy>
    <i name="e_fr_energy">  -1105.24339064 </i>
    <i name="e_wo_entrp">  -1105.24339064 </i>
    <i name="e_0_energy">  -1105.24339064 </i>
   </energy>
  </scstep>
  <scstep>
   <time name="total">   67.63   68.54</time>
   <energy>
    <i name="e_fr_energy">  -1105.24328987 </i>
    <i name="e_wo_entrp">  -1105.24328987 </i>
    <i name="e_0_energy">  -1105.24328987 </i>
   </energy>
  </scstep>
  <kpoints>
   <generation param="Gamma">
    <v type="int" name="divisions">       5        5        5 </v>
    <v name="usershift">      0.00000000       0.00000000       0.00000000 </v>
    <v name="genvec1">      0.20000000       0.00000000       0.00000000 </v>
    <v name="genvec2">      0.00000000       0.20000000       0.00000000 </v>
    <v name="genvec3">      0.00000000       0.00000000       0.20000000 </v>
    <v name="shift">      0.00000000       0.00000000       0.00000000 </v>
   </generation>
   <varray name="kpointlist" >
    <v>       0.00000000       0.00000000       0.00000000 </v>
    <v>       0.20000000       0.00000000       0.00000000 </v>
    <v>       0.40000000       0.00000000       0.00000000 </v>
    <v>       0.00000000       0.20000000       0.00000000 </v>
    <v>       0.20000000       0.20000000       0.00000000 </v>
    <v>       0.40000000       0.20000000       0.00000000 </v>
    <v>       0.00000000       0.40000000       0.00000000 </v>
    <v>       0.20000000       0.40000000       0.00000000 </v>
    <v>       0.40000000       0.40000000       0.00000000 </v>
    <v>       0.00000000       0.20000000       0.20000000 </v>
    <v>       0.00000000      -0.20000000       0.20000000 </v>
    <v>       0.20000000       0.20000000       0.20000000 </v>
    <v>       0.20000000      -0.20000000       0.20000000 </v>
    <v>       0.40000000       0.20000000       0.20000000 </v>
    <v>       0.40000000      -0.20000000       0.20000000 </v>
    <v>       0.00000000       0.40000000       0.20000000 </v>
    <v>       0.00000000      -0.20000000       0.40000000 </v>
    <v>       0.20000000       0.40000000       0.20000000 </v>
    <v>       0.20000000      -0.20000000       0.40000000 </v>
    <v>       0.40000000       0.40000000       0.20000000 </v>
    <v>       0.40000000      -0.20000000       0.40000000 </v>
    <v>       0.00000000       0.40000000       0.40000000 </v>
    <v>       0.00000000      -0.40000000       0.40000000 </v>
    <v>       0.20000000       0.40000000       0.40000000 </v>
    <v>       0.20000000      -0.40000000       0.40000000 </v>
    <v>       0.40000000       0.40000000       0.40000000 </v>
    <v>       0.40000000      -0.40000000       0.40000000 </v>
   </varray>
   <varray name="weights" >
    <v>       0.00800000 </v>
    <v>       0.01600000 </v>
    <v>       0.01600000 </v>
    <v>       0.03200000 </v>
    <v>       0.06400000 </v>
    <v>       0.06400000 </v>
    <v>       0.03200000 </v>
    <v>       0.06400000 </v>
    <v>       0.06400000 </v>
    <v>       0.01600000 </v>
    <v>       0.01600000 </v>
    <v>       0.03200000 </v>
    <v>       0.03200000 </v>
    <v>       0.03200000 </v>
    <v>       0.03200000 </v>
    <v>       0.03200000 </v>
    <v>       0.03200000 </v>
    <v>       0.06400000 </v>
    <v>       0.06400000 </v>
    <v>       0.06400000 </v>
    <v>       0.06400000 </v>
    <v>       0.01600000 </v>
    <v>       0.01600000 </v>
    <v>       0.03200000 </v>
    <v>       0.03200000 </v>
    <v>       0.03200000 </v>
    <v>       0.03200000 </v>
   </varray>
   <varray name="tetrahedronlist"  type="int" >
    <v type="int" >        4       12       14       18       20 </v>
    <v type="int" >        4       12       18       18       20 </v>
    <v type="int" >        4       18       18       20       24 </v>
    <v type="int" >        4       14       18       20       20 </v>
    <v type="int" >        4       18       20       20       26 </v>
    <v type="int" >        4       18       20       24       26 </v>
    <v type="int" >        2       14       14       20       20 </v>
    <v type="int" >        4       14       20       20       20 </v>
    <v type="int" >        4       20       20       20       26 </v>
    <v type="int" >        2       20       20       26       26 </v>
    <v type="int" >        4       10       12       16       18 </v>
    <v type="int" >        4       12       16       18       18 </v>
    <v type="int" >        4       16       18       18       24 </v>
    <v type="int" >        4       10       16       16       18 </v>
    <v type="int" >        4       16       16       18       22 </v>
    <v type="int" >        4       16       18       22       24 </v>
    <v type="int" >        4       18       20       21       24 </v>
    <v type="int" >        4       18       19       21       24 </v>
    <v type="int" >        4       19       21       24       25 </v>
    <v type="int" >        4       20       21       24       26 </v>
    <v type="int" >        4       21       24       26       27 </v>
    <v type="int" >        4       21       24       25       27 </v>
    <v type="int" >        4       20       20       21       26 </v>
    <v type="int" >        4       20       21       21       26 </v>
    <v type="int" >        4       21       21       26       27 </v>
    <v type="int" >        4       20       21       26       26 </v>
    <v type="int" >        4       21       26       26       27 </v>
    <v type="int" >        4       21       26       27       27 </v>
    <v type="int" >        4       18       19       20       26 </v>
    <v type="int" >        4       19       20       21       26 </v>
    <v type="int" >        4       19       21       26       27 </v>
    <v type="int" >        4       18       19       24       26 </v>
    <v type="int" >        4       19       24       25       26 </v>
    <v type="int" >        4       19       25       26       27 </v>
    <v type="int" >        4       16       17       18       24 </v>
    <v type="int" >        4       17       18       19       24 </v>
    <v type="int" >        4       17       19       24       25 </v>
    <v type="int" >        4       16       17       22       24 </v>
    <v type="int" >        4       17       22       23       24 </v>
    <v type="int" >        4       17       23       24       25 </v>
    <v type="int" >        4       16       18       19       22 </v>
    <v type="int" >        4       16       17       19       22 </v>
    <v type="int" >        4       17       19       22       23 </v>
    <v type="int" >        4       18       19       22       24 </v>
    <v type="int" >        4       19       22       24       25 </v>
    <v type="int" >        4       19       22       23       25 </v>
    <v type="int" >        4       15       19       21       25 </v>
    <v type="int" >        4       13       15       19       25 </v>
    <v type="int" >        4       15       21       25       27 </v>
    <v type="int" >        4       15       21       21       27 </v>
    <v type="int" >        4       15       15       21       27 </v>
    <v type="int" >        4       15       21       27       27 </v>
    <v type="int" >        4       13       19       21       27 </v>
    <v type="int" >        4       13       15       21       27 </v>
    <v type="int" >        4       13       19       25       27 </v>
    <v type="int" >        4       11       17       19       25 </v>
    <v type="int" >        4       11       13       19       25 </v>
    <v type="int" >        4       11       17       23       25 </v>
    <v type="int" >        4       13       17       19       23 </v>
    <v type="int" >        4       11       13       17       23 </v>
    <v type="int" >        4       13       19       23       25 </v>
    <v type="int" >        4        6       13       15       19 </v>
    <v type="int" >        4        5        6       13       19 </v>
    <v type="int" >        4        5        6        8       19 </v>
    <v type="int" >        4        6       15       19       21 </v>
    <v type="int" >        4        6        9       19       21 </v>
    <v type="int" >        4        6        8        9       19 </v>
    <v type="int" >        4        6       15       15       21 </v>
    <v type="int" >        4        6        6       15       21 </v>
    <v type="int" >        4        6        6        9       21 </v>
    <v type="int" >        4        6       15       21       21 </v>
    <v type="int" >        4        6        9       21       21 </v>
    <v type="int" >        4        6        9        9       21 </v>
    <v type="int" >        4        5       13       15       21 </v>
    <v type="int" >        4        5        6       15       21 </v>
    <v type="int" >        4        5        6        9       21 </v>
    <v type="int" >        4        5       13       19       21 </v>
    <v type="int" >        4        5        8       19       21 </v>
    <v type="int" >        4        5        8        9       21 </v>
    <v type="int" >        4        4       11       13       19 </v>
    <v type="int" >        4        4        5       13       19 </v>
    <v type="int" >        4        4        5        8       19 </v>
    <v type="int" >        4        4       11       17       19 </v>
    <v type="int" >        4        4        7       17       19 </v>
    <v type="int" >        4        4        7        8       19 </v>
    <v type="int" >        4        5       11       13       17 </v>
    <v type="int" >        4        4        5       11       17 </v>
    <v type="int" >        4        4        5        7       17 </v>
    <v type="int" >        4        5       13       17       19 </v>
    <v type="int" >        4        5        8       17       19 </v>
    <v type="int" >        4        5        7        8       17 </v>
    <v type="int" >        4        5        6        8       14 </v>
    <v type="int" >        4        5        8       12       14 </v>
    <v type="int" >        4        8       12       14       18 </v>
    <v type="int" >        4        6        8        9       14 </v>
    <v type="int" >        4        8        9       14       20 </v>
    <v type="int" >        4        8       14       18       20 </v>
    <v type="int" >        4        6        6        9       14 </v>
    <v type="int" >        4        6        9       14       14 </v>
    <v type="int" >        4        9       14       14       20 </v>
    <v type="int" >        4        6        9        9       14 </v>
    <v type="int" >        4        9        9       14       20 </v>
    <v type="int" >        4        9       14       20       20 </v>
    <v type="int" >        4        5        6        9       12 </v>
    <v type="int" >        4        6        9       12       14 </v>
    <v type="int" >        4        9       12       14       20 </v>
    <v type="int" >        4        5        8        9       12 </v>
    <v type="int" >        4        8        9       12       18 </v>
    <v type="int" >        4        9       12       18       20 </v>
    <v type="int" >        4        4        5        8       10 </v>
    <v type="int" >        4        5        8       10       12 </v>
    <v type="int" >        4        8       10       12       18 </v>
    <v type="int" >        4        4        7        8       10 </v>
    <v type="int" >        4        7        8       10       16 </v>
    <v type="int" >        4        8       10       16       18 </v>
    <v type="int" >        4        4        5        7       12 </v>
    <v type="int" >        4        4        7       10       12 </v>
    <v type="int" >        4        7       10       12       16 </v>
    <v type="int" >        4        5        7        8       12 </v>
    <v type="int" >        4        7        8       12       18 </v>
    <v type="int" >        4        7       12       16       18 </v>
    <v type="int" >        4       24       25       26       27 </v>
    <v type="int" >        4       24       25       25       27 </v>
    <v type="int" >        4       25       26       27       27 </v>
    <v type="int" >        2       26       26       27       27 </v>
    <v type="int" >        4       26       27       27       27 </v>
    <v type="int" >        4       22       23       24       25 </v>
    <v type="int" >        4       23       24       25       25 </v>
    <v type="int" >        4       22       23       23       25 </v>
    <v type="int" >        4        9       18       19       21 </v>
    <v type="int" >        4        8        9       18       19 </v>
    <v type="int" >        4        8        8        9       18 </v>
    <v type="int" >        4        9       18       20       21 </v>
    <v type="int" >        4        9        9       18       20 </v>
    <v type="int" >        4        8        9        9       18 </v>
    <v type="int" >        4        9       20       21       21 </v>
    <v type="int" >        4        9        9       20       21 </v>
    <v type="int" >        8        9        9        9       20 </v>
    <v type="int" >        4        9       20       20       21 </v>
    <v type="int" >        4        9        9       20       20 </v>
    <v type="int" >        4        8       19       20       21 </v>
    <v type="int" >        4        8        9       20       21 </v>
    <v type="int" >        4        8        9        9       20 </v>
    <v type="int" >        4        8       18       19       20 </v>
    <v type="int" >        4        8        8       18       20 </v>
    <v type="int" >        4        8        8        9       20 </v>
    <v type="int" >        4        7       17       18       19 </v>
    <v type="int" >        4        7        8       18       19 </v>
    <v type="int" >        4        7        8        8       18 </v>
    <v type="int" >        4        7       16       17       18 </v>
    <v type="int" >        4        7        7       16       18 </v>
    <v type="int" >        4        7        7        8       18 </v>
    <v type="int" >        4        8       16       17       19 </v>
    <v type="int" >        4        7        8       16       17 </v>
    <v type="int" >        4        7        7        8       16 </v>
    <v type="int" >        4        8       16       18       19 </v>
    <v type="int" >        4        8        8       16       18 </v>
    <v type="int" >        4        7        8        8       16 </v>
    <v type="int" >        4        5        6       12       14 </v>
    <v type="int" >        4        5        5        6       12 </v>
    <v type="int" >        4        2        5        5        6 </v>
    <v type="int" >        4        5        6        6       14 </v>
    <v type="int" >        4        3        5        6        6 </v>
    <v type="int" >        4        2        3        5        6 </v>
    <v type="int" >        2        6        6       14       14 </v>
    <v type="int" >        4        6        6        6       14 </v>
    <v type="int" >        4        3        6        6        6 </v>
    <v type="int" >        2        3        3        6        6 </v>
    <v type="int" >        4        4        5       10       12 </v>
    <v type="int" >        4        4        5        5       12 </v>
    <v type="int" >        4        2        4        5        5 </v>
    <v type="int" >        4        4        4        5       10 </v>
    <v type="int" >        4        1        4        4        5 </v>
    <v type="int" >        4        1        2        4        5 </v>
    <v type="int" >        4        2        5        6       15 </v>
    <v type="int" >        4        2        5       13       15 </v>
    <v type="int" >        4        2        3        6       15 </v>
    <v type="int" >        4        3        6        6       15 </v>
    <v type="int" >        4        3        6       15       15 </v>
    <v type="int" >        4        3        3        6       15 </v>
    <v type="int" >        4        3        5        6       13 </v>
    <v type="int" >        4        3        6       13       15 </v>
    <v type="int" >        4        2        3        5       13 </v>
    <v type="int" >        4        2        4        5       11 </v>
    <v type="int" >        4        2        5       11       13 </v>
    <v type="int" >        4        1        2        4       11 </v>
    <v type="int" >        4        1        4        5       13 </v>
    <v type="int" >        4        1        4       11       13 </v>
    <v type="int" >        4        1        2        5       13 </v>
   </varray>
   <i name="volumeweight">      0.00133333 </i>
  </kpoints>
  <scstep>
   <time name="total">  118.21  119.98</time>
   <energy>
    <i name="e_fr_energy">   -118.43542401 </i>
    <i name="e_wo_entrp">   -118.43542401 </i>
    <i name="e_0_energy">   -118.43542401 </i>
   </energy>
  </scstep>
  <scstep>
   <time name="total">  109.10  110.73</time>
   <energy>
    <i name="e_fr_energy">   -348.31896980 </i>
    <i name="e_wo_entrp">   -348.31896980 </i>
    <i name="e_0_energy">   -348.31896980 </i>
   </energy>
  </scstep>
  <scstep>
   <time name="total">  107.64  109.07</time>
   <energy>
    <i name="e_fr_energy">   -345.13880552 </i>
    <i name="e_wo_entrp">   -345.13880552 </i>
    <i name="e_0_energy">   -345.13880552 </i>
   </energy>
  </scstep>
  <scstep>
   <time name="total">  106.48  107.97</time>
   <energy>
    <i name="e_fr_energy">   -335.60847471 </i>
    <i name="e_wo_entrp">   -335.60847471 </i>
    <i name="e_0_energy">   -335.60847471 </i>
   </energy>
  </scstep>
  <scstep>
   <time name="total">  111.65  113.11</time>
   <energy>
    <i name="e_fr_energy">   -334.82147558 </i>
    <i name="e_wo_entrp">   -334.82147558 </i>
    <i name="e_0_energy">   -334.82147558 </i>
   </energy>
  </scstep>
  <scstep>
   <time name="total">  111.01  112.52</time>
   <energy>
    <i name="e_fr_energy">   -334.73429986 </i>
    <i name="e_wo_entrp">   -334.73429986 </i>
    <i name="e_0_energy">   -334.73429986 </i>
   </energy>
  </scstep>
  <scstep>
   <time name="total">  111.82  113.28</time>
   <energy>
    <i name="e_fr_energy">   -334.68002855 </i>
    <i name="e_wo_entrp">   -334.68002855 </i>
    <i name="e_0_energy">   -334.68002855 </i>
   </energy>
  </scstep>
  <scstep>
   <time name="total">  115.07  116.61</time>
   <energy>
    <i name="e_fr_energy">   -334.66451270 </i>
    <i name="e_wo_entrp">   -334.66451270 </i>
    <i name="e_0_energy">   -334.66451270 </i>
   </energy>
  </scstep>
  <scstep>
   <time name="total">  115.02  116.58</time>
   <energy>
    <i name="e_fr_energy">   -334.67064549 </i>
    <i name="e_wo_entrp">   -334.67064549 </i>
    <i name="e_0_energy">   -334.67064549 </i>
   </energy>
  </scstep>
  <scstep>
   <time name="total">  120.66  122.23</time>
   <energy>
    <i name="e_fr_energy">   -334.67030387 </i>
    <i name="e_wo_entrp">   -334.67030387 </i>
    <i name="e_0_energy">   -334.67030387 </i>
   </energy>
  </scstep>
  <scstep>
   <time name="total">  121.48  123.24</time>
   <energy>
    <i name="e_fr_energy">   -334.67002564 </i>
    <i name="e_wo_entrp">   -334.67002564 </i>
    <i name="e_0_energy">   -334.67002564 </i>
   </energy>
  </scstep>
  <scstep>
   <time name="total">  115.37  116.88</time>
   <energy>
    <i name="e_fr_energy">   -334.67006048 </i>
    <i name="e_wo_entrp">   -334.67006048 </i>
    <i name="e_0_energy">   -334.67006048 </i>
   </energy>
  </scstep>
  <scstep>
   <time name="total">  116.51  118.10</time>
   <energy>
    <i name="e_fr_energy">   -334.67005042 </i>
    <i name="e_wo_entrp">   -334.67005042 </i>
    <i name="e_0_energy">   -334.67005042 </i>
   </energy>
  </scstep>
  <kpoints>
[...]
     <r>     7.3058     0.0000     0.0000     0.0000     0.0000     0.0000     0.0000 </r>
     <r>     7.3158     0.0000     0.0000     0.0000     0.0000     0.0000     0.0000 </r>
    </set>
   </array>
  </conductivity>
  <dos>
   <i name="efermi">      2.31499138 </i>
   <total>
    <array>
     <dimension dim="1">gridpoints</dimension>
     <dimension dim="2">spin</dimension>
     <field>energy</field>
     <field>total</field>
     <field>integrated</field>
     <set>
      <set comment="spin 1">
       <r>   -11.0211     0.0000     0.0000 </r>
       <r>   -10.9589     0.0000     0.0000 </r>
       <r>   -10.8966     0.0000     0.0000 </r>
       <r>   -10.8343     0.0000     0.0000 </r>
       <r>   -10.7720     0.0000     0.0000 </r>
       <r>   -10.7097     0.0000     0.0000 </r>
       <r>   -10.6474     0.0000     0.0000 </r>
       <r>   -10.5852     0.0000     0.0000 </r>
       <r>   -10.5229     0.0000     0.0000 </r>
       <r>   -10.4606     0.0000     0.0000 </r>
       <r>   -10.3983     0.0000     0.0000 </r>
       <r>   -10.3360     0.0000     0.0000 </r>
       <r>   -10.2738     0.0000     0.0000 </r>
       <r>   -10.2115     0.0000     0.0000 </r>
       <r>   -10.1492     0.0000     0.0000 </r>
       <r>   -10.0869     0.0000     0.0000 </r>
       <r>   -10.0246     0.0000     0.0000 </r>
       <r>    -9.9623     3.7230     0.0968 </r>
       <r>    -9.9001     5.3570     0.3659 </r>
       <r>    -9.8378    10.1802     0.9046 </r>
       <r>    -9.7755     7.3157     1.3969 </r>
       <r>    -9.7132     6.7299     1.8242 </r>
       <r>    -9.6509    11.3226     2.3955 </r>
       <r>    -9.5887    16.8225     3.1210 </r>
       <r>    -9.5264    11.5124     3.9521 </r>
       <r>    -9.4641    12.5317     4.7145 </r>
       <r>    -9.4018    19.4503     5.7553 </r>
       <r>    -9.3395     9.8575     6.6699 </r>
       <r>    -9.2772    15.7221     7.5069 </r>
       <r>    -9.2150    14.4395     8.4214 </r>
       <r>    -9.1527    28.3440     9.9024 </r>
       <r>    -9.0904    33.7097    11.7070 </r>
       <r>    -9.0281     9.5604    12.7946 </r>
       <r>    -8.9658    45.3255    13.7800 </r>
       <r>    -8.9036    22.7907    15.4075 </r>
       <r>    -8.8413    19.3339    16.5603 </r>
       <r>    -8.7790    40.3615    18.7277 </r>
       <r>    -8.7167    27.4346    20.7009 </r>
       <r>    -8.6544    32.2132    22.5993 </r>
       <r>    -8.5921    37.8459    24.8083 </r>
       <r>    -8.5299    54.7950    27.5193 </r>
       <r>    -8.4676    56.5414    31.1506 </r>
       <r>    -8.4053    86.2059    34.4662 </r>
       <r>    -8.3430    67.0336    37.9120 </r>
       <r>    -8.2807    40.7618    40.7887 </r>
       <r>    -8.2184    48.8717    43.0306 </r>
       <r>    -8.1562    62.7710    46.3810 </r>
       <r>    -8.0939    65.0186    50.2694 </r>
       <r>    -8.0316    54.5052    53.3008 </r>
       <r>    -7.9693    70.3692    56.6977 </r>
       <r>    -7.9070    78.3151    61.6257 </r>
       <r>    -7.8448     7.7069    64.0000 </r>
       <r>    -7.7825     0.0000    64.0000 </r>
       <r>    -7.7202     0.0000    64.0000 </r>
       <r>    -7.6579     0.0000    64.0000 </r>
       <r>    -7.5956     0.0000    64.0000 </r>
       <r>    -7.5333     0.0000    64.0000 </r>
       <r>    -7.4711     0.0000    64.0000 </r>
       <r>    -7.4088     0.0000    64.0000 </r>
       <r>    -7.3465     0.0000    64.0000 </r>
       <r>    -7.2842     0.0000    64.0000 </r>
       <r>    -7.2219     0.0000    64.0000 </r>
       <r>    -7.1597     0.0000    64.0000 </r>
       <r>    -7.0974     0.0000    64.0000 </r>
       <r>    -7.0351     0.0000    64.0000 </r>
       <r>    -6.9728     0.0000    64.0000 </r>
       <r>    -6.9105     0.0000    64.0000 </r>
       <r>    -6.8482     0.0000    64.0000 </r>
       <r>    -6.7860     0.0000    64.0000 </r>
       <r>    -6.7237     0.0000    64.0000 </r>
       <r>    -6.6614     0.0000    64.0000 </r>
       <r>    -6.5991     0.0000    64.0000 </r>
       <r>    -6.5368     0.0000    64.0000 </r>
       <r>    -6.4746     0.0000    64.0000 </r>
       <r>    -6.4123     0.0000    64.0000 </r>
       <r>    -6.3500     0.0000    64.0000 </r>
       <r>    -6.2877     0.0000    64.0000 </r>
       <r>    -6.2254     0.0000    64.0000 </r>
       <r>    -6.1631     0.0000    64.0000 </r>
       <r>    -6.1009     0.0000    64.0000 </r>
       <r>    -6.0386     0.0000    64.0000 </r>
       <r>    -5.9763     0.0000    64.0000 </r>
       <r>    -5.9140     0.0000    64.0000 </r>
       <r>    -5.8517     0.0000    64.0000 </r>
       <r>    -5.7895     0.0000    64.0000 </r>
       <r>    -5.7272     0.0000    64.0000 </r>
       <r>    -5.6649     0.0000    64.0000 </r>
       <r>    -5.6026     0.0000    64.0000 </r>
       <r>    -5.5403     0.0000    64.0000 </r>
       <r>    -5.4780     0.0000    64.0000 </r>
       <r>    -5.4158     0.0000    64.0000 </r>
       <r>    -5.3535     0.0000    64.0000 </r>
       <r>    -5.2912     0.0000    64.0000 </r>
       <r>    -5.2289     0.0000    64.0000 </r>
       <r>    -5.1666     0.0000    64.0000 </r>
       <r>    -5.1043     0.0000    64.0000 </r>
       <r>    -5.0421     0.0000    64.0000 </r>
       <r>    -4.9798     0.0000    64.0000 </r>
       <r>    -4.9175     0.0000    64.0000 </r>
       <r>    -4.8552     0.0000    64.0000 </r>
       <r>    -4.7929     0.0000    64.0000 </r>
       <r>    -4.7307     0.0000    64.0000 </r>
       <r>    -4.6684     0.0000    64.0000 </r>
       <r>    -4.6061     0.0000    64.0000 </r>
       <r>    -4.5438     0.0000    64.0000 </r>
       <r>    -4.4815     0.0000    64.0000 </r>
       <r>    -4.4192     0.0000    64.0000 </r>
       <r>    -4.3570     0.0000    64.0000 </r>
       <r>    -4.2947     0.0000    64.0000 </r>
       <r>    -4.2324     2.6182    64.0127 </r>
       <r>    -4.1701    13.8340    64.5055 </r>
       <r>    -4.1078    28.8798    65.6441 </r>
       <r>    -4.0456    70.2702    69.0584 </r>
       <r>    -3.9833    78.9839    72.9584 </r>
       <r>    -3.9210   117.4609    78.2232 </r>
       <r>    -3.8587   109.1379    84.7010 </r>
       <r>    -3.7964    27.3239    88.0391 </r>
       <r>    -3.7341   108.7114    92.9668 </r>
       <r>    -3.6719    19.1237    94.5181 </r>
       <r>    -3.6096    19.8205    95.5758 </r>
       <r>    -3.5473    54.1791    97.7032 </r>
       <r>    -3.4850    29.6878    99.9410 </r>
       <r>    -3.4227    19.7208   101.4167 </r>
       <r>    -3.3605    14.7452   102.3868 </r>
       <r>    -3.2982    32.7567   103.6050 </r>
       <r>    -3.2359    30.6778   106.4081 </r>
       <r>    -3.1736    15.5814   107.3349 </r>
       <r>    -3.1113    11.2353   108.1691 </r>
       <r>    -3.0490     7.5322   108.7284 </r>
       <r>    -2.9868    11.9364   109.3159 </r>
       <r>    -2.9245    12.3688   110.1039 </r>
       <r>    -2.8622    17.5933   111.0771 </r>
       <r>    -2.7999    14.0438   112.0010 </r>
       <r>    -2.7376    13.3896   112.8604 </r>
       <r>    -2.6754    12.8897   113.6691 </r>
       <r>    -2.6131    13.0792   114.4743 </r>
       <r>    -2.5508    12.5942   115.2650 </r>
       <r>    -2.4885     6.2713   115.8391 </r>
       <r>    -2.4262     6.3436   116.2062 </r>
       <r>    -2.3639     7.1203   116.6210 </r>
       <r>    -2.3017     8.1435   117.0951 </r>
       <r>    -2.2394    11.6644   117.6871 </r>
       <r>    -2.1771    10.7694   118.3871 </r>
       <r>    -2.1148     7.1322   119.0007 </r>
       <r>    -2.0525     8.0823   119.4781 </r>
       <r>    -1.9903     6.2232   119.9547 </r>
       <r>    -1.9280     4.8286   120.2257 </r>
       <r>    -1.8657     4.2271   120.5112 </r>
       <r>    -1.8034     3.6858   120.7541 </r>
       <r>    -1.7411     3.7695   120.9839 </r>
       <r>    -1.6788     4.0153   121.2261 </r>
       <r>    -1.6166     7.7690   121.5894 </r>
       <r>    -1.5543     9.7845   122.1781 </r>
       <r>    -1.4920     8.5314   122.7882 </r>
       <r>    -1.4297     7.0514   123.2490 </r>
       <r>    -1.3674     6.9163   123.6609 </r>
       <r>    -1.3051    15.8276   124.2634 </r>
       <r>    -1.2429    28.2753   125.7044 </r>
       <r>    -1.1806    48.4062   127.9758 </r>
       <r>    -1.1183    44.0916   130.8905 </r>
       <r>    -1.0560    46.0395   133.6198 </r>
       <r>    -0.9937    47.3130   136.9048 </r>
       <r>    -0.9315    36.8441   139.4778 </r>
       <r>    -0.8692    43.7297   142.0067 </r>
       <r>    -0.8069    35.8716   144.1092 </r>
       <r>    -0.7446    25.2310   146.2166 </r>
       <r>    -0.6823    33.5639   147.9820 </r>
       <r>    -0.6200    32.9560   149.9124 </r>
       <r>    -0.5578    43.1582   152.4933 </r>
       <r>    -0.4955    39.6550   154.9364 </r>
       <r>    -0.4332    46.1988   157.5037 </r>
       <r>    -0.3709    51.5403   160.5286 </r>
       <r>    -0.3086    48.9971   163.6628 </r>
       <r>    -0.2464    47.7509   166.7657 </r>
       <r>    -0.1841    46.3904   169.6301 </r>
       <r>    -0.1218    46.8085   172.5814 </r>
       <r>    -0.0595    60.2647   176.3168 </r>
       <r>     0.0028    44.4148   179.6024 </r>
       <r>     0.0651    51.2150   183.1149 </r>
       <r>     0.1273    51.2447   185.9967 </r>
       <r>     0.1896    54.9248   189.3917 </r>
       <r>     0.2519    53.4814   192.7078 </r>
       <r>     0.3142    43.8010   194.9623 </r>
       <r>     0.3765    39.5529   197.8160 </r>
       <r>     0.4387    62.0069   201.3485 </r>
       <r>     0.5010    69.6100   204.7579 </r>
       <r>     0.5633    94.8045   208.4433 </r>
       <r>     0.6256    34.7820   211.4345 </r>
       <r>     0.6879    51.3905   214.0902 </r>
       <r>     0.7502    49.6820   217.2568 </r>
       <r>     0.8124    40.8385   220.0931 </r>
       <r>     0.8747    62.2027   222.7418 </r>
       <r>     0.9370    40.8391   225.7687 </r>
       <r>     0.9993    36.8721   228.0529 </r>
       <r>     1.0616    44.2740   230.4413 </r>
       <r>     1.1238    46.3788   233.2718 </r>
       <r>     1.1861    42.2625   236.0584 </r>
       <r>     1.2484    54.5661   239.1693 </r>
       <r>     1.3107    39.8944   242.0869 </r>
       <r>     1.3730    24.6401   244.0006 </r>
       <r>     1.4353    19.6803   245.2978 </r>
       <r>     1.4975    22.9011   246.7775 </r>
       <r>     1.5598    22.7109   248.1179 </r>
       <r>     1.6221    18.9004   249.5029 </r>
       <r>     1.6844    11.6516   250.3612 </r>
       <r>     1.7467    13.4901   251.0862 </r>
       <r>     1.8090    12.1934   251.9383 </r>
       <r>     1.8712    20.6099   253.2049 </r>
       <r>     1.9335     5.8839   253.6733 </r>
       <r>     1.9958    11.8001   254.1526 </r>
       <r>     2.0581    11.5836   255.0145 </r>
       <r>     2.1204     6.3119   255.5816 </r>
       <r>     2.1826     3.5727   255.8243 </r>
       <r>     2.2449     0.6472   255.9922 </r>
       <r>     2.3072     0.0000   256.0000 </r>
       <r>     2.3695     0.0000   256.0000 </r>
       <r>     2.4318     0.0000   256.0000 </r>
       <r>     2.4941     0.0014   256.0000 </r>
       <r>     2.5563     0.0051   256.0002 </r>
       <r>     2.6186     0.0113   256.0007 </r>
       <r>     2.6809     0.0198   256.0017 </r>
       <r>     2.7432     0.0307   256.0032 </r>
       <r>     2.8055     0.0440   256.0056 </r>
       <r>     2.8677     0.0597   256.0088 </r>
       <r>     2.9300     0.0778   256.0130 </r>
       <r>     2.9923     0.0983   256.0185 </r>
       <r>     3.0546     0.1211   256.0253 </r>
       <r>     3.1169     0.1463   256.0336 </r>
       <r>     3.1792     0.1806   256.0436 </r>
       <r>     3.2414     0.5325   256.0612 </r>
       <r>     3.3037     1.3366   256.1196 </r>
       <r>     3.3660     2.1053   256.2270 </r>
       <r>     3.4283     2.8533   256.3812 </r>
       <r>     3.4906     6.3795   256.7212 </r>
       <r>     3.5528     6.8782   257.0852 </r>
       <r>     3.6151     8.5156   257.5813 </r>
       <r>     3.6774     6.8575   258.0258 </r>
       <r>     3.7397     8.4255   258.5145 </r>
       <r>     3.8020    11.1117   259.1322 </r>
       <r>     3.8643    13.6081   259.8791 </r>
       <r>     3.9265    23.5575   261.2656 </r>
       <r>     3.9888    27.9049   262.4655 </r>
       <r>     4.0511    36.6870   264.5287 </r>
       <r>     4.1134    27.2128   266.6133 </r>
       <r>     4.1757    19.8404   267.8761 </r>
       <r>     4.2379    25.9748   269.2300 </r>
       <r>     4.3002    30.3872   270.9896 </r>
       <r>     4.3625    54.5720   273.8511 </r>
       <r>     4.4248    39.8599   276.6026 </r>
       <r>     4.4871    55.0030   279.0444 </r>
       <r>     4.5494    63.3561   282.2963 </r>
       <r>     4.6116    50.8623   285.9139 </r>
       <r>     4.6739    71.7162   289.7830 </r>
       <r>     4.7362    67.5780   294.0035 </r>
       <r>     4.7985    62.7432   298.1720 </r>
       <r>     4.8608    44.1499   301.7302 </r>
       <r>     4.9230    38.6283   304.1952 </r>
       <r>     4.9853    37.9178   306.7545 </r>
       <r>     5.0476    46.4536   308.9498 </r>
       <r>     5.1099    35.7623   311.6363 </r>
       <r>     5.1722    30.9393   313.5815 </r>
       <r>     5.2345    34.4211   315.5752 </r>
       <r>     5.2967    25.5245   317.8345 </r>
       <r>     5.3590    17.3956   318.9563 </r>
       <r>     5.4213    39.0822   320.6429 </r>
       <r>     5.4836    32.5513   322.7066 </r>
       <r>     5.5459    22.2863   324.4478 </r>
       <r>     5.6082    46.3826   326.4948 </r>
       <r>     5.6704    18.7280   327.8421 </r>
       <r>     5.7327    20.0233   329.0425 </r>
       <r>     5.7950    21.4601   330.3477 </r>
       <r>     5.8573    20.4230   331.6810 </r>
       <r>     5.9196    14.9434   332.6951 </r>
       <r>     5.9818    12.3044   333.5431 </r>
       <r>     6.0441    10.2541   334.2397 </r>
       <r>     6.1064     8.6016   334.8122 </r>
       <r>     6.1687     6.8116   335.3136 </r>
       <r>     6.2310     3.4939   335.5867 </r>
       <r>     6.2933     2.4393   335.7643 </r>
       <r>     6.3555     1.2704   335.8555 </r>
       <r>     6.4178     0.9208   335.9235 </r>
       <r>     6.4801     0.5888   335.9955 </r>
       <r>     6.5424     0.0323   335.9987 </r>
       <r>     6.6047     0.0073   335.9999 </r>
       <r>     6.6669     0.0000   336.0000 </r>
       <r>     6.7292     0.0000   336.0000 </r>
       <r>     6.7915     0.0000   336.0000 </r>
       <r>     6.8538     0.0000   336.0000 </r>
       <r>     6.9161     0.0000   336.0000 </r>
       <r>     6.9784     0.0000   336.0000 </r>
       <r>     7.0406     0.0000   336.0000 </r>
       <r>     7.1029     0.0000   336.0000 </r>
       <r>     7.1652     0.0000   336.0000 </r>
       <r>     7.2275     0.0000   336.0000 </r>
       <r>     7.2898     0.0000   336.0000 </r>
       <r>     7.3520     0.0000   336.0000 </r>
       <r>     7.4143     0.0000   336.0000 </r>
       <r>     7.4766     0.0000   336.0000 </r>
       <r>     7.5389     0.0000   336.0000 </r>
       <r>     7.6012     0.0000   336.0000 </r>
       <r>     7.6635     0.0000   336.0000 </r>
      </set>
     </set>
    </array>
   </total>
  </dos>
 </calculation>
 <structure name="finalpos" >
  <crystal>
   <varray name="basis" >
    <v>      11.53832663       0.00000000       0.00000000 </v>
    <v>       0.00000000      11.52322653       0.00000000 </v>
    <v>       0.00000000       0.00000000      11.52322653 </v>
   </varray>
   <i name="volume">   1532.11381237 </i>
   <varray name="rec_basis" >
    <v>       0.08666768       0.00000000       0.00000000 </v>
    <v>       0.00000000       0.08678125       0.00000000 </v>
    <v>       0.00000000       0.00000000       0.08678125 </v>
   </varray>
  </crystal>
  <varray name="positions" >
   <v>       0.00000000       0.00000000       0.00000000 </v>
   <v>       0.00000000       0.00000000       0.50000000 </v>
   <v>       0.00000000       0.50000000       0.00000000 </v>
   <v>       0.00000000       0.50000000       0.50000000 </v>
   <v>       0.50000000       0.00000000       0.00000000 </v>
   <v>       0.50000000       0.00000000       0.50000000 </v>
   <v>       0.50000000       0.50000000       0.00000000 </v>
   <v>       0.50000000       0.50000000       0.50000000 </v>
   <v>       0.25000000       0.25000000       0.00000000 </v>
   <v>       0.25000000       0.25000000       0.50000000 </v>
   <v>       0.25000000       0.75000000       0.00000000 </v>
   <v>       0.25000000       0.75000000       0.50000000 </v>
   <v>       0.75000000       0.25000000       0.00000000 </v>
   <v>       0.75000000       0.25000000       0.50000000 </v>
   <v>       0.75000000       0.75000000       0.00000000 </v>
   <v>       0.75000000       0.75000000       0.50000000 </v>
   <v>       0.25000000       0.00000000       0.25000000 </v>
   <v>       0.25000000       0.00000000       0.75000000 </v>
   <v>       0.25000000       0.50000000       0.25000000 </v>
   <v>       0.25000000       0.50000000       0.75000000 </v>
   <v>       0.75000000       0.00000000       0.25000000 </v>
   <v>       0.75000000       0.00000000       0.75000000 </v>
   <v>       0.75000000       0.50000000       0.25000000 </v>
   <v>       0.75000000       0.50000000       0.75000000 </v>
   <v>       0.00000000       0.25000000       0.25000000 </v>
   <v>       0.00000000       0.25000000       0.75000000 </v>
   <v>       0.00000000       0.75000000       0.25000000 </v>
   <v>       0.00000000       0.75000000       0.75000000 </v>
   <v>       0.50000000       0.25000000       0.25000000 </v>
   <v>       0.50000000       0.25000000       0.75000000 </v>
   <v>       0.50000000       0.75000000       0.25000000 </v>
   <v>       0.50000000       0.75000000       0.75000000 </v>
   <v>       0.12500000       0.12500000       0.12500000 </v>
   <v>       0.12500000       0.12500000       0.62500000 </v>
   <v>       0.12500000       0.62500000       0.12500000 </v>
   <v>       0.12500000       0.62500000       0.62500000 </v>
   <v>       0.62500000       0.12500000       0.12500000 </v>
   <v>       0.62500000       0.12500000       0.62500000 </v>
   <v>       0.62500000       0.62500000       0.12500000 </v>
   <v>       0.62500000       0.62500000       0.62500000 </v>
   <v>       0.37500000       0.12500000       0.37500000 </v>
   <v>       0.37500000       0.12500000       0.87500000 </v>
   <v>       0.37500000       0.62500000       0.37500000 </v>
   <v>       0.37500000       0.62500000       0.87500000 </v>
   <v>       0.87500000       0.12500000       0.37500000 </v>
   <v>       0.87500000       0.12500000       0.87500000 </v>
   <v>       0.87500000       0.62500000       0.37500000 </v>
   <v>       0.87500000       0.62500000       0.87500000 </v>
   <v>       0.37500000       0.37500000       0.12500000 </v>
   <v>       0.37500000       0.37500000       0.62500000 </v>
   <v>       0.37500000       0.87500000       0.12500000 </v>
   <v>       0.37500000       0.87500000       0.62500000 </v>
   <v>       0.87500000       0.37500000       0.12500000 </v>
   <v>       0.87500000       0.37500000       0.62500000 </v>
   <v>       0.87500000       0.87500000       0.12500000 </v>
   <v>       0.87500000       0.87500000       0.62500000 </v>
   <v>       0.12500000       0.37500000       0.37500000 </v>
   <v>       0.12500000       0.37500000       0.87500000 </v>
   <v>       0.12500000       0.87500000       0.37500000 </v>
   <v>       0.12500000       0.87500000       0.87500000 </v>
   <v>       0.62500000       0.37500000       0.37500000 </v>
   <v>       0.62500000       0.37500000       0.87500000 </v>
   <v>       0.62500000       0.87500000       0.37500000 </v>
   <v>       0.62500000       0.87500000       0.87500000 </v>
  </varray>
 </structure>
</modeling>
