GaAs                                    
   4.50000000000000     
     1.251913    0.000000   -0.000000
    -0.000000    1.251913   -0.000000
     0.000000   -0.000000    1.251913
   As   Ga
     4     4
Direct
  0.000000  0.000000  0.000000
  0.500000  0.500000  0.000000
  0.500000  0.000000  0.500000
  0.000000  0.500000  0.500000
  0.250000  0.250000  0.250000
  0.750000  0.250000  0.750000
  0.750000  0.750000  0.250000
  0.250000  0.750000  0.750000
 
   56   56   56
 -.65043716765E+02 -.55274722912E+02 -.28585155097E+02 0.81578804096E+01 0.46281048836E+02
 0.78022985686E+02 0.98429694600E+02 0.10597659761E+03 0.10212994899E+03 0.90348589488E+02
 0.74948227102E+02 0.60011573932E+02 0.47454187011E+02 0.37196147948E+02 0.28985394617E+02
 0.22540742810E+02 0.17567353032E+02 0.13772278525E+02 0.10888089017E+02 0.86940628354E+01
 0.70235063975E+01 0.57563149309E+01 0.48048213769E+01 0.41014866235E+01 0.35921521393E+01
 0.32341492936E+01 0.29966260856E+01 0.28603813822E+01 0.28158751073E+01 0.28603813822E+01
 0.29966260856E+01 0.32341492936E+01 0.35921521393E+01 0.41014866235E+01 0.48048213769E+01
 0.57563149309E+01 0.70235063975E+01 0.86940628354E+01 0.10888089017E+02 0.13772278525E+02
 0.17567353032E+02 0.22540742810E+02 0.28985394617E+02 0.37196147948E+02 0.47454187011E+02
 0.60011573932E+02 0.74948227102E+02 0.90348589488E+02 0.10212994899E+03 0.10597659761E+03
 0.98429694600E+02 0.78022985686E+02 0.46281048836E+02 0.81578804096E+01 -.28585155097E+02
 -.55274722912E+02 -.55274722912E+02 -.45942218283E+02 -.20460839244E+02 0.14567304722E+02
 0.50802492188E+02 0.80783241002E+02 0.99756108023E+02 0.10628353008E+03 0.10182782038E+03
 0.89787018412E+02 0.74387445359E+02 0.59598310791E+02 0.47174570686E+02 0.37017509387E+02
 0.28881289950E+02 0.22490242154E+02 0.17553997715E+02 0.13783467225E+02 0.10914686558E+02
 0.87298707694E+01 0.70645553063E+01 0.58001652138E+01 0.48500058412E+01 0.41471178966E+01
 0.36376978708E+01 0.32793505464E+01 0.30414586993E+01 0.29049686996E+01 0.28603813822E+01
 0.29049686996E+01 0.30414586993E+01 0.32793505464E+01 0.36376978708E+01 0.41471178966E+01
 0.48500058412E+01 0.58001652138E+01 0.70645553063E+01 0.87298707694E+01 0.10914686558E+02
 0.13783467225E+02 0.17553997715E+02 0.22490242154E+02 0.28881289950E+02 0.37017509387E+02
 0.47174570686E+02 0.59598310791E+02 0.74387445359E+02 0.89787018412E+02 0.10182782038E+03
 0.10628353008E+03 0.99756108023E+02 0.80783241002E+02 0.50802492188E+02 0.14567304722E+02
 -.20460839244E+02 -.45942218283E+02 -.28585155097E+02 -.20460839244E+02 0.16760617050E+01
 0.31956749489E+02 0.62966020756E+02 0.88075821318E+02 0.10309322550E+03 0.10682705121E+03
 0.10073156982E+03 0.88034605367E+02 0.72708080531E+02 0.58376347040E+02 0.46346606337E+02
 0.36487979668E+02 0.28572706685E+02 0.22340982254E+02 0.17515402806E+02 0.13818197506E+02
 0.10995640917E+02 0.88386440464E+01 0.71893437255E+01 0.59336787979E+01 0.49878053230E+01
 0.42864683015E+01 0.37769318651E+01 0.34176362609E+01 0.31786778216E+01 0.30414586993E+01
 0.29966260856E+01 0.30414586993E+01 0.31786778216E+01 0.34176362609E+01 0.37769318651E+01
 0.42864683015E+01 0.49878053230E+01 0.59336787979E+01 0.71893437255E+01 0.88386440464E+01
 0.10995640917E+02 0.13818197506E+02 0.17515402806E+02 0.22340982254E+02 0.28572706685E+02
 0.36487979668E+02 0.46346606337E+02 0.58376347040E+02 0.72708080531E+02 0.88034605367E+02
 0.10073156982E+03 0.10682705121E+03 0.10309322550E+03 0.88075821318E+02 0.62966020756E+02
 0.31956749489E+02 0.16760617050E+01 -.20460839244E+02 0.81578804096E+01 0.14567304722E+02
 0.31956749489E+02 0.55498759720E+02 0.79095044491E+02 0.97311780603E+02 0.10676807955E+03
 0.10663804047E+03 0.98371074903E+02 0.84945137375E+02 0.69947846335E+02 0.56399932235E+02
 0.45003735452E+02 0.35627461280E+02 0.28071377870E+02 0.22099978717E+02 0.17456079932E+02
 0.13879977665E+02 0.11134476509E+02 0.90245662511E+01 0.74030568159E+01 0.61631318002E+01
 0.52254783871E+01 0.45275774098E+01 0.40184841872E+01 0.36580720126E+01 0.34176362609E+01
 0.32793505464E+01 0.32341492936E+01 0.32793505464E+01 0.34176362609E+01 0.36580720126E+01
 0.40184841872E+01 0.45275774098E+01 0.52254783871E+01 0.61631318002E+01 0.74030568159E+01
 0.90245662511E+01 0.11134476509E+02 0.13879977665E+02 0.17456079932E+02 0.22099978717E+02
 0.28071377870E+02 0.35627461280E+02 0.45003735452E+02 0.56399932235E+02 0.69947846335E+02
 0.84945137375E+02 0.98371074903E+02 0.10663804047E+03 0.10676807955E+03 0.97311780603E+02
 0.79095044491E+02 0.55498759720E+02 0.31956749489E+02 0.14567304722E+02 0.46281048836E+02
 0.50802492188E+02 0.62966020756E+02 0.79095044491E+02 0.94554023539E+02 0.10524771918E+03
 0.10871942177E+03 0.10457012181E+03 0.94249175087E+02 0.80436747227E+02 0.66243627801E+02
 0.53760318234E+02 0.43203187985E+02 0.34470826422E+02 0.27398198202E+02 0.21779723147E+02
 0.17383946522E+02 0.13974918012E+02 0.11337450057E+02 0.92952782354E+01 0.77153485162E+01
 0.65003354108E+01 0.55768073551E+01 0.48858750012E+01 0.43791205204E+01 0.40184841872E+01
 0.37769318651E+01 0.36376978708E+01 0.35921521393E+01 0.36376978708E+01 0.37769318651E+01
 0.40184841872E+01 0.43791205204E+01 0.48858750012E+01 0.55768073551E+01 0.65003354108E+01
 0.77153485162E+01 0.92952782354E+01 0.11337450057E+02 0.13974918012E+02 0.17383946522E+02
 0.21779723147E+02 0.27398198202E+02 0.34470826422E+02 0.43203187985E+02 0.53760318234E+02
 0.66243627801E+02 0.80436747227E+02 0.94249175087E+02 0.10457012181E+03 0.10871942177E+03
 0.10524771918E+03 0.94554023539E+02 0.79095044491E+02 0.62966020756E+02 0.50802492188E+02
 0.78022985686E+02 0.80783241002E+02 0.88075821318E+02 0.97311780603E+02 0.10524771918E+03
 0.10907723421E+03 0.10724826306E+03 0.99787020354E+02 0.88136439852E+02 0.74650956792E+02
 0.61806072758E+02 0.50582644967E+02 0.41025284197E+02 0.33068388885E+02 0.26583979962E+02
 0.21398908869E+02 0.17311051343E+02 0.14112586759E+02 0.11614641147E+02 0.96632391849E+01
 0.81419469913E+01 0.69644372214E+01 0.60640567036E+01 0.53862576646E+01 0.48858750012E+01
 0.45275774098E+01 0.42864683015E+01 0.41471178966E+01 0.41014866235E+01 0.41471178966E+01
 0.42864683015E+01 0.45275774098E+01 0.48858750012E+01 0.53862576646E+01 0.60640567036E+01
 0.69644372214E+01 0.81419469913E+01 0.96632391849E+01 0.11614641147E+02 0.14112586759E+02
 0.17311051343E+02 0.21398908869E+02 0.26583979962E+02 0.33068388885E+02 0.41025284197E+02
 0.50582644967E+02 0.61806072758E+02 0.74650956792E+02 0.88136439852E+02 0.99787020354E+02
 0.10724826306E+03 0.10907723421E+03 0.10524771918E+03 0.97311780603E+02 0.88075821318E+02
 0.80783241002E+02 0.98429694600E+02 0.99756108023E+02 0.10309322550E+03 0.10676807955E+03
 0.10871942177E+03 0.10724826306E+03 0.10158861464E+03 0.92131176132E+02 0.80282711360E+02
 0.68039939623E+02 0.56858945491E+02 0.47017256926E+02 0.38569233896E+02 0.31484121395E+02
 0.25668967564E+02 0.20982768301E+02 0.17254527629E+02 0.14307410116E+02 0.11981604340E+02
 0.10147431135E+02 0.87062512727E+01 0.75833207716E+01 0.67191532981E+01 0.60640567036E+01
 0.55768073551E+01 0.52254783871E+01 0.49878053230E+01 0.48500058412E+01 0.48048213769E+01
 0.48500058412E+01 0.49878053230E+01 0.52254783871E+01 0.55768073551E+01 0.60640567036E+01
 0.67191532981E+01 0.75833207716E+01 0.87062512727E+01 0.10147431135E+02 0.11981604340E+02
 0.14307410116E+02 0.17254527629E+02 0.20982768301E+02 0.25668967564E+02 0.31484121395E+02
 0.38569233896E+02 0.47017256926E+02 0.56858945491E+02 0.68039939623E+02 0.80282711360E+02
 0.92131176132E+02 0.10158861464E+03 0.10724826306E+03 0.10871942177E+03 0.10676807955E+03
 0.10309322550E+03 0.99756108023E+02 0.10597659761E+03 0.10628353008E+03 0.10682705121E+03
 0.10663804047E+03 0.10457012181E+03 0.99787020354E+02 0.92131176132E+02 0.82250753268E+02
 0.71459730007E+02 0.61104247120E+02 0.51637051993E+02 0.43226874180E+02 0.35945787046E+02
 0.29791549321E+02 0.24700895313E+02 0.20562691192E+02 0.17237270431E+02 0.14579901560E+02
 0.12460674274E+02 0.10774375831E+02 0.94398666078E+01 0.83936387283E+01 0.75833207716E+01
 0.69644372214E+01 0.65003354108E+01 0.61631318002E+01 0.59336787979E+01 0.58001652138E+01
 0.57563149309E+01 0.58001652138E+01 0.59336787979E+01 0.61631318002E+01 0.65003354108E+01
 0.69644372214E+01 0.75833207716E+01 0.83936387283E+01 0.94398666078E+01 0.10774375831E+02
 0.12460674274E+02 0.14579901560E+02 0.17237270431E+02 0.20562691192E+02 0.24700895313E+02
 0.29791549321E+02 0.35945787046E+02 0.43226874180E+02 0.51637051993E+02 0.61104247120E+02
 0.71459730007E+02 0.82250753268E+02 0.92131176132E+02 0.99787020354E+02 0.10457012181E+03
 0.10663804047E+03 0.10682705121E+03 0.10628353008E+03 0.10212994899E+03 0.10182782038E+03
 0.10073156982E+03 0.98371074903E+02 0.94249175087E+02 0.88136439852E+02 0.80282711360E+02
 0.71459730007E+02 0.62608613890E+02 0.54162541437E+02 0.46365077420E+02 0.39372956083E+02
 0.33268396515E+02 0.28068166129E+02 0.23731860855E+02 0.20174877877E+02 0.17287652475E+02
 0.14956761346E+02 0.13080935403E+02 0.11577719475E+02 0.10381819862E+02 0.94398666078E+01
 0.87062512727E+01 0.81419469913E+01 0.77153485162E+01 0.74030568159E+01 0.71893437255E+01
 0.70645553063E+01 0.70235063975E+01 0.70645553063E+01 0.71893437255E+01 0.74030568159E+01
 0.77153485162E+01 0.81419469913E+01 0.87062512727E+01 0.94398666078E+01 0.10381819862E+02
 0.11577719475E+02 0.13080935403E+02 0.14956761346E+02 0.17287652475E+02 0.20174877877E+02
 0.23731860855E+02 0.28068166129E+02 0.33268396515E+02 0.39372956083E+02 0.46365077420E+02
 0.54162541437E+02 0.62608613890E+02 0.71459730007E+02 0.80282711360E+02 0.88136439852E+02
 0.94249175087E+02 0.98371074903E+02 0.10073156982E+03 0.10182782038E+03 0.90348589488E+02
 0.89787018412E+02 0.88034605367E+02 0.84945137375E+02 0.80436747227E+02 0.74650956792E+02
 0.68039939623E+02 0.61104247120E+02 0.54162541437E+02 0.47474624026E+02 0.41241391753E+02
 0.35603859652E+02 0.30644462194E+02 0.26389336193E+02 0.22814426647E+02 0.19857956438E+02
 0.17437919523E+02 0.15469489314E+02 0.13876816157E+02 0.12596924034E+02 0.11577719475E+02
 0.10774375831E+02 0.10147431135E+02 0.96632391849E+01 0.92952782354E+01 0.90245662511E+01
 0.88386440464E+01 0.87298707694E+01 0.86940628354E+01 0.87298707694E+01 0.88386440464E+01
 0.90245662511E+01 0.92952782354E+01 0.96632391849E+01 0.10147431135E+02 0.10774375831E+02
 0.11577719475E+02 0.12596924034E+02 0.13876816157E+02 0.15469489314E+02 0.17437919523E+02
 0.19857956438E+02 0.22814426647E+02 0.26389336193E+02 0.30644462194E+02 0.35603859652E+02
 0.41241391753E+02 0.47474624026E+02 0.54162541437E+02 0.61104247120E+02 0.68039939623E+02
 0.74650956792E+02 0.80436747227E+02 0.84945137375E+02 0.88034605367E+02 0.89787018412E+02
 0.74948227102E+02 0.74387445359E+02 0.72708080531E+02 0.69947846335E+02 0.66243627801E+02
 0.61806072758E+02 0.56858945491E+02 0.51637051993E+02 0.46365077420E+02 0.41241391753E+02
 0.36428170803E+02 0.32045441400E+02 0.28167457268E+02 0.24822381168E+02 0.21997416717E+02
 0.19649897565E+02 0.17721696022E+02 0.16152281928E+02 0.14886570790E+02 0.13876816157E+02
 0.13080935403E+02 0.12460674274E+02 0.11981604340E+02 0.11614641147E+02 0.11337450057E+02
 0.11134476509E+02 0.10995640917E+02 0.10914686558E+02 0.10888089017E+02 0.10914686558E+02
 0.10995640917E+02 0.11134476509E+02 0.11337450057E+02 0.11614641147E+02 0.11981604340E+02
 0.12460674274E+02 0.13080935403E+02 0.13876816157E+02 0.14886570790E+02 0.16152281928E+02
 0.17721696022E+02 0.19649897565E+02 0.21997416717E+02 0.24822381168E+02 0.28167457268E+02
 0.32045441400E+02 0.36428170803E+02 0.41241391753E+02 0.46365077420E+02 0.51637051993E+02
 0.56858945491E+02 0.61806072758E+02 0.66243627801E+02 0.69947846335E+02 0.72708080531E+02
 0.74387445359E+02 0.60011573932E+02 0.59598310791E+02 0.58376347040E+02 0.56399932235E+02
 0.53760318234E+02 0.50582644967E+02 0.47017256926E+02 0.43226874180E+02 0.39372956083E+02
 0.35603859652E+02 0.32045441400E+02 0.28793786530E+02 0.25910432027E+02 0.23421518243E+02
 0.21322106036E+02 0.19585065646E+02 0.18171729021E+02 0.17040667135E+02 0.16152281928E+02
 0.15469489314E+02 0.14956761346E+02 0.14579901560E+02 0.14307410116E+02 0.14112586759E+02
 0.13974918012E+02 0.13879977665E+02 0.13818197506E+02 0.13783467225E+02 0.13772278525E+02
 0.13783467225E+02 0.13818197506E+02 0.13879977665E+02 0.13974918012E+02 0.14112586759E+02
 0.14307410116E+02 0.14579901560E+02 0.14956761346E+02 0.15469489314E+02 0.16152281928E+02
 0.17040667135E+02 0.18171729021E+02 0.19585065646E+02 0.21322106036E+02 0.23421518243E+02
 0.25910432027E+02 0.28793786530E+02 0.32045441400E+02 0.35603859652E+02 0.39372956083E+02
 0.43226874180E+02 0.47017256926E+02 0.50582644967E+02 0.53760318234E+02 0.56399932235E+02
 0.58376347040E+02 0.59598310791E+02 0.47454187011E+02 0.47174570686E+02 0.46346606337E+02
 0.45003735452E+02 0.43203187985E+02 0.41025284197E+02 0.38569233896E+02 0.35945787046E+02
 0.33268396515E+02 0.30644462194E+02 0.28167457268E+02 0.25910432027E+02 0.23921794496E+02
 0.22224574570E+02 0.20819716684E+02 0.19692387149E+02 0.18818892628E+02 0.18171729021E+02
 0.17721696022E+02 0.17437919523E+02 0.17287652475E+02 0.17237270431E+02 0.17254527629E+02
 0.17311051343E+02 0.17383946522E+02 0.17456079932E+02 0.17515402806E+02 0.17553997715E+02
 0.17567353032E+02 0.17553997715E+02 0.17515402806E+02 0.17456079932E+02 0.17383946522E+02
 0.17311051343E+02 0.17254527629E+02 0.17237270431E+02 0.17287652475E+02 0.17437919523E+02
 0.17721696022E+02 0.18171729021E+02 0.18818892628E+02 0.19692387149E+02 0.20819716684E+02
 0.22224574570E+02 0.23921794496E+02 0.25910432027E+02 0.28167457268E+02 0.30644462194E+02
 0.33268396515E+02 0.35945787046E+02 0.38569233896E+02 0.41025284197E+02 0.43203187985E+02
 0.45003735452E+02 0.46346606337E+02 0.47174570686E+02 0.37196147948E+02 0.37017509387E+02
 0.36487979668E+02 0.35627461280E+02 0.34470826422E+02 0.33068388885E+02 0.31484121395E+02
 0.29791549321E+02 0.28068166129E+02 0.26389336193E+02 0.24822381168E+02 0.23421518243E+02
 0.22224574570E+02 0.21252368737E+02 0.20510870322E+02 0.19995026283E+02 0.19692387149E+02
 0.19585065646E+02 0.19649897565E+02 0.19857956438E+02 0.20174877877E+02 0.20562691192E+02
 0.20982768301E+02 0.21398908869E+02 0.21779723147E+02 0.22099978717E+02 0.22340982254E+02
 0.22490242154E+02 0.22540742810E+02 0.22490242154E+02 0.22340982254E+02 0.22099978717E+02
 0.21779723147E+02 0.21398908869E+02 0.20982768301E+02 0.20562691192E+02 0.20174877877E+02
 0.19857956438E+02 0.19649897565E+02 0.19585065646E+02 0.19692387149E+02 0.19995026283E+02
 0.20510870322E+02 0.21252368737E+02 0.22224574570E+02 0.23421518243E+02 0.24822381168E+02
 0.26389336193E+02 0.28068166129E+02 0.29791549321E+02 0.31484121395E+02 0.33068388885E+02
 0.34470826422E+02 0.35627461280E+02 0.36487979668E+02 0.37017509387E+02 0.28985394617E+02
 0.28881289950E+02 0.28572706685E+02 0.28071377870E+02 0.27398198202E+02 0.26583979962E+02
 0.25668967564E+02 0.24700895313E+02 0.23731860855E+02 0.22814426647E+02 0.21997416717E+02
 0.21322106036E+02 0.20819716684E+02 0.20510870322E+02 0.20406764166E+02 0.20510870322E+02
 0.20819716684E+02 0.21322106036E+02 0.21997416717E+02 0.22814426647E+02 0.23731860855E+02
 0.24700895313E+02 0.25668967564E+02 0.26583979962E+02 0.27398198202E+02 0.28071377870E+02
 0.28572706685E+02 0.28881289950E+02 0.28985394617E+02 0.28881289950E+02 0.28572706685E+02
 0.28071377870E+02 0.27398198202E+02 0.26583979962E+02 0.25668967564E+02 0.24700895313E+02
 0.23731860855E+02 0.22814426647E+02 0.21997416717E+02 0.21322106036E+02 0.20819716684E+02
 0.20510870322E+02 0.20406764166E+02 0.20510870322E+02 0.20819716684E+02 0.21322106036E+02
 0.21997416717E+02 0.22814426647E+02 0.23731860855E+02 0.24700895313E+02 0.25668967564E+02
 0.26583979962E+02 0.27398198202E+02 0.28071377870E+02 0.28572706685E+02 0.28881289950E+02
 0.22540742810E+02 0.22490242154E+02 0.22340982254E+02 0.22099978717E+02 0.21779723147E+02
 0.21398908869E+02 0.20982768301E+02 0.20562691192E+02 0.20174877877E+02 0.19857956438E+02
 0.19649897565E+02 0.19585065646E+02 0.19692387149E+02 0.19995026283E+02 0.20510870322E+02
 0.21252368737E+02 0.22224574570E+02 0.23421518243E+02 0.24822381168E+02 0.26389336193E+02
 0.28068166129E+02 0.29791549321E+02 0.31484121395E+02 0.33068388885E+02 0.34470826422E+02
 0.35627461280E+02 0.36487979668E+02 0.37017509387E+02 0.37196147948E+02 0.37017509387E+02
 0.36487979668E+02 0.35627461280E+02 0.34470826422E+02 0.33068388885E+02 0.31484121395E+02
 0.29791549321E+02 0.28068166129E+02 0.26389336193E+02 0.24822381168E+02 0.23421518243E+02
 0.22224574570E+02 0.21252368737E+02 0.20510870322E+02 0.19995026283E+02 0.19692387149E+02
 0.19585065646E+02 0.19649897565E+02 0.19857956438E+02 0.20174877877E+02 0.20562691192E+02
 0.20982768301E+02 0.21398908869E+02 0.21779723147E+02 0.22099978717E+02 0.22340982254E+02
 0.22490242154E+02 0.17567353032E+02 0.17553997715E+02 0.17515402806E+02 0.17456079932E+02
 0.17383946522E+02 0.17311051343E+02 0.17254527629E+02 0.17237270431E+02 0.17287652475E+02
 0.17437919523E+02 0.17721696022E+02 0.18171729021E+02 0.18818892628E+02 0.19692387149E+02
 0.20819716684E+02 0.22224574570E+02 0.23921794496E+02 0.25910432027E+02 0.28167457268E+02
 0.30644462194E+02 0.33268396515E+02 0.35945787046E+02 0.38569233896E+02 0.41025284197E+02
 0.43203187985E+02 0.45003735452E+02 0.46346606337E+02 0.47174570686E+02 0.47454187011E+02
 0.47174570686E+02 0.46346606337E+02 0.45003735452E+02 0.43203187985E+02 0.41025284197E+02
 0.38569233896E+02 0.35945787046E+02 0.33268396515E+02 0.30644462194E+02 0.28167457268E+02
 0.25910432027E+02 0.23921794496E+02 0.22224574570E+02 0.20819716684E+02 0.19692387149E+02
 0.18818892628E+02 0.18171729021E+02 0.17721696022E+02 0.17437919523E+02 0.17287652475E+02
 0.17237270431E+02 0.17254527629E+02 0.17311051343E+02 0.17383946522E+02 0.17456079932E+02
 0.17515402806E+02 0.17553997715E+02 0.13772278525E+02 0.13783467225E+02 0.13818197506E+02
 0.13879977665E+02 0.13974918012E+02 0.14112586759E+02 0.14307410116E+02 0.14579901560E+02
 0.14956761346E+02 0.15469489314E+02 0.16152281928E+02 0.17040667135E+02 0.18171729021E+02
 0.19585065646E+02 0.21322106036E+02 0.23421518243E+02 0.25910432027E+02 0.28793786530E+02
 0.32045441400E+02 0.35603859652E+02 0.39372956083E+02 0.43226874180E+02 0.47017256926E+02
 0.50582644967E+02 0.53760318234E+02 0.56399932235E+02 0.58376347040E+02 0.59598310791E+02
 0.60011573932E+02 0.59598310791E+02 0.58376347040E+02 0.56399932235E+02 0.53760318234E+02
 0.50582644967E+02 0.47017256926E+02 0.43226874180E+02 0.39372956083E+02 0.35603859652E+02
 0.32045441400E+02 0.28793786530E+02 0.25910432027E+02 0.23421518243E+02 0.21322106036E+02
 0.19585065646E+02 0.18171729021E+02 0.17040667135E+02 0.16152281928E+02 0.15469489314E+02
 0.14956761346E+02 0.14579901560E+02 0.14307410116E+02 0.14112586759E+02 0.13974918012E+02
 0.13879977665E+02 0.13818197506E+02 0.13783467225E+02 0.10888089017E+02 0.10914686558E+02
 0.10995640917E+02 0.11134476509E+02 0.11337450057E+02 0.11614641147E+02 0.11981604340E+02
 0.12460674274E+02 0.13080935403E+02 0.13876816157E+02 0.14886570790E+02 0.16152281928E+02
 0.17721696022E+02 0.19649897565E+02 0.21997416717E+02 0.24822381168E+02 0.28167457268E+02
 0.32045441400E+02 0.36428170803E+02 0.41241391753E+02 0.46365077420E+02 0.51637051993E+02
 0.56858945491E+02 0.61806072758E+02 0.66243627801E+02 0.69947846335E+02 0.72708080531E+02
 0.74387445359E+02 0.74948227102E+02 0.74387445359E+02 0.72708080531E+02 0.69947846335E+02
 0.66243627801E+02 0.61806072758E+02 0.56858945491E+02 0.51637051993E+02 0.46365077420E+02
 0.41241391753E+02 0.36428170803E+02 0.32045441400E+02 0.28167457268E+02 0.24822381168E+02
 0.21997416717E+02 0.19649897565E+02 0.17721696022E+02 0.16152281928E+02 0.14886570790E+02
 0.13876816157E+02 0.13080935403E+02 0.12460674274E+02 0.11981604340E+02 0.11614641147E+02
 0.11337450057E+02 0.11134476509E+02 0.10995640917E+02 0.10914686558E+02 0.86940628354E+01
 0.87298707694E+01 0.88386440464E+01 0.90245662511E+01 0.92952782354E+01 0.96632391849E+01
 0.10147431135E+02 0.10774375831E+02 0.11577719475E+02 0.12596924034E+02 0.13876816157E+02
 0.15469489314E+02 0.17437919523E+02 0.19857956438E+02 0.22814426647E+02 0.26389336193E+02
 0.30644462194E+02 0.35603859652E+02 0.41241391753E+02 0.47474624026E+02 0.54162541437E+02
 0.61104247120E+02 0.68039939623E+02 0.74650956792E+02 0.80436747227E+02 0.84945137375E+02
 0.88034605367E+02 0.89787018412E+02 0.90348589488E+02 0.89787018412E+02 0.88034605367E+02
 0.84945137375E+02 0.80436747227E+02 0.74650956792E+02 0.68039939623E+02 0.61104247120E+02
 0.54162541437E+02 0.47474624026E+02 0.41241391753E+02 0.35603859652E+02 0.30644462194E+02
 0.26389336193E+02 0.22814426647E+02 0.19857956438E+02 0.17437919523E+02 0.15469489314E+02
 0.13876816157E+02 0.12596924034E+02 0.11577719475E+02 0.10774375831E+02 0.10147431135E+02
 0.96632391849E+01 0.92952782354E+01 0.90245662511E+01 0.88386440464E+01 0.87298707694E+01
 0.70235063975E+01 0.70645553063E+01 0.71893437255E+01 0.74030568159E+01 0.77153485162E+01
 0.81419469913E+01 0.87062512727E+01 0.94398666078E+01 0.10381819862E+02 0.11577719475E+02
 0.13080935403E+02 0.14956761346E+02 0.17287652475E+02 0.20174877877E+02 0.23731860855E+02
 0.28068166129E+02 0.33268396515E+02 0.39372956083E+02 0.46365077420E+02 0.54162541437E+02
 0.62608613890E+02 0.71459730007E+02 0.80282711360E+02 0.88136439852E+02 0.94249175087E+02
 0.98371074903E+02 0.10073156982E+03 0.10182782038E+03 0.10212994899E+03 0.10182782038E+03
 0.10073156982E+03 0.98371074903E+02 0.94249175087E+02 0.88136439852E+02 0.80282711360E+02
 0.71459730007E+02 0.62608613890E+02 0.54162541437E+02 0.46365077420E+02 0.39372956083E+02
 0.33268396515E+02 0.28068166129E+02 0.23731860855E+02 0.20174877877E+02 0.17287652475E+02
 0.14956761346E+02 0.13080935403E+02 0.11577719475E+02 0.10381819862E+02 0.94398666078E+01
 0.87062512727E+01 0.81419469913E+01 0.77153485162E+01 0.74030568159E+01 0.71893437255E+01
 0.70645553063E+01 0.57563149309E+01 0.58001652138E+01 0.59336787979E+01 0.61631318002E+01
 0.65003354108E+01 0.69644372214E+01 0.75833207716E+01 0.83936387283E+01 0.94398666078E+01
 0.10774375831E+02 0.12460674274E+02 0.14579901560E+02 0.17237270431E+02 0.20562691192E+02
 0.24700895313E+02 0.29791549321E+02 0.35945787046E+02 0.43226874180E+02 0.51637051993E+02
 0.61104247120E+02 0.71459730007E+02 0.82250753268E+02 0.92131176132E+02 0.99787020354E+02
 0.10457012181E+03 0.10663804047E+03 0.10682705121E+03 0.10628353008E+03 0.10597659761E+03
 0.10628353008E+03 0.10682705121E+03 0.10663804047E+03 0.10457012181E+03 0.99787020354E+02
 0.92131176132E+02 0.82250753268E+02 0.71459730007E+02 0.61104247120E+02 0.51637051993E+02
 0.43226874180E+02 0.35945787046E+02 0.29791549321E+02 0.24700895313E+02 0.20562691192E+02
 0.17237270431E+02 0.14579901560E+02 0.12460674274E+02 0.10774375831E+02 0.94398666078E+01
 0.83936387283E+01 0.75833207716E+01 0.69644372214E+01 0.65003354108E+01 0.61631318002E+01
 0.59336787979E+01 0.58001652138E+01 0.48048213769E+01 0.48500058412E+01 0.49878053230E+01
 0.52254783871E+01 0.55768073551E+01 0.60640567036E+01 0.67191532981E+01 0.75833207716E+01
 0.87062512727E+01 0.10147431135E+02 0.11981604340E+02 0.14307410116E+02 0.17254527629E+02
 0.20982768301E+02 0.25668967564E+02 0.31484121395E+02 0.38569233896E+02 0.47017256926E+02
 0.56858945491E+02 0.68039939623E+02 0.80282711360E+02 0.92131176132E+02 0.10158861464E+03
 0.10724826306E+03 0.10871942177E+03 0.10676807955E+03 0.10309322550E+03 0.99756108023E+02
 0.98429694600E+02 0.99756108023E+02 0.10309322550E+03 0.10676807955E+03 0.10871942177E+03
 0.10724826306E+03 0.10158861464E+03 0.92131176132E+02 0.80282711360E+02 0.68039939623E+02
 0.56858945491E+02 0.47017256926E+02 0.38569233896E+02 0.31484121395E+02 0.25668967564E+02
 0.20982768301E+02 0.17254527629E+02 0.14307410116E+02 0.11981604340E+02 0.10147431135E+02
 0.87062512727E+01 0.75833207716E+01 0.67191532981E+01 0.60640567036E+01 0.55768073551E+01
 0.52254783871E+01 0.49878053230E+01 0.48500058412E+01 0.41014866235E+01 0.41471178966E+01
 0.42864683015E+01 0.45275774098E+01 0.48858750012E+01 0.53862576646E+01 0.60640567036E+01
 0.69644372214E+01 0.81419469913E+01 0.96632391849E+01 0.11614641147E+02 0.14112586759E+02
 0.17311051343E+02 0.21398908869E+02 0.26583979962E+02 0.33068388885E+02 0.41025284197E+02
 0.50582644967E+02 0.61806072758E+02 0.74650956792E+02 0.88136439852E+02 0.99787020354E+02
 0.10724826306E+03 0.10907723421E+03 0.10524771918E+03 0.97311780603E+02 0.88075821318E+02
 0.80783241002E+02 0.78022985686E+02 0.80783241002E+02 0.88075821318E+02 0.97311780603E+02
 0.10524771918E+03 0.10907723421E+03 0.10724826306E+03 0.99787020354E+02 0.88136439852E+02
 0.74650956792E+02 0.61806072758E+02 0.50582644967E+02 0.41025284197E+02 0.33068388885E+02
 0.26583979962E+02 0.21398908869E+02 0.17311051343E+02 0.14112586759E+02 0.11614641147E+02
 0.96632391849E+01 0.81419469913E+01 0.69644372214E+01 0.60640567036E+01 0.53862576646E+01
 0.48858750012E+01 0.45275774098E+01 0.42864683015E+01 0.41471178966E+01 0.35921521393E+01
 0.36376978708E+01 0.37769318651E+01 0.40184841872E+01 0.43791205204E+01 0.48858750012E+01
 0.55768073551E+01 0.65003354108E+01 0.77153485162E+01 0.92952782354E+01 0.11337450057E+02
 0.13974918012E+02 0.17383946522E+02 0.21779723147E+02 0.27398198202E+02 0.34470826422E+02
 0.43203187985E+02 0.53760318234E+02 0.66243627801E+02 0.80436747227E+02 0.94249175087E+02
 0.10457012181E+03 0.10871942177E+03 0.10524771918E+03 0.94554023539E+02 0.79095044491E+02
 0.62966020756E+02 0.50802492188E+02 0.46281048836E+02 0.50802492188E+02 0.62966020756E+02
 0.79095044491E+02 0.94554023539E+02 0.10524771918E+03 0.10871942177E+03 0.10457012181E+03
 0.94249175087E+02 0.80436747227E+02 0.66243627801E+02 0.53760318234E+02 0.43203187985E+02
 0.34470826422E+02 0.27398198202E+02 0.21779723147E+02 0.17383946522E+02 0.13974918012E+02
 0.11337450057E+02 0.92952782354E+01 0.77153485162E+01 0.65003354108E+01 0.55768073551E+01
 0.48858750012E+01 0.43791205204E+01 0.40184841872E+01 0.37769318651E+01 0.36376978708E+01
 0.32341492936E+01 0.32793505464E+01 0.34176362609E+01 0.36580720126E+01 0.40184841872E+01
 0.45275774098E+01 0.52254783871E+01 0.61631318002E+01 0.74030568159E+01 0.90245662511E+01
 0.11134476509E+02 0.13879977665E+02 0.17456079932E+02 0.22099978717E+02 0.28071377870E+02
 0.35627461280E+02 0.45003735452E+02 0.56399932235E+02 0.69947846335E+02 0.84945137375E+02
 0.98371074903E+02 0.10663804047E+03 0.10676807955E+03 0.97311780603E+02 0.79095044491E+02
 0.55498759720E+02 0.31956749489E+02 0.14567304722E+02 0.81578804096E+01 0.14567304722E+02
 0.31956749489E+02 0.55498759720E+02 0.79095044491E+02 0.97311780603E+02 0.10676807955E+03
 0.10663804047E+03 0.98371074903E+02 0.84945137375E+02 0.69947846335E+02 0.56399932235E+02
 0.45003735452E+02 0.35627461280E+02 0.28071377870E+02 0.22099978717E+02 0.17456079932E+02
 0.13879977665E+02 0.11134476509E+02 0.90245662511E+01 0.74030568159E+01 0.61631318002E+01
 0.52254783871E+01 0.45275774098E+01 0.40184841872E+01 0.36580720126E+01 0.34176362609E+01
 0.32793505464E+01 0.29966260856E+01 0.30414586993E+01 0.31786778216E+01 0.34176362609E+01
 0.37769318651E+01 0.42864683015E+01 0.49878053230E+01 0.59336787979E+01 0.71893437255E+01
 0.88386440464E+01 0.10995640917E+02 0.13818197506E+02 0.17515402806E+02 0.22340982254E+02
 0.28572706685E+02 0.36487979668E+02 0.46346606337E+02 0.58376347040E+02 0.72708080531E+02
 0.88034605367E+02 0.10073156982E+03 0.10682705121E+03 0.10309322550E+03 0.88075821318E+02
 0.62966020756E+02 0.31956749489E+02 0.16760617050E+01 -.20460839244E+02 -.28585155097E+02
 -.20460839244E+02 0.16760617050E+01 0.31956749489E+02 0.62966020756E+02 0.88075821318E+02
 0.10309322550E+03 0.10682705121E+03 0.10073156982E+03 0.88034605367E+02 0.72708080531E+02
 0.58376347040E+02 0.46346606337E+02 0.36487979668E+02 0.28572706685E+02 0.22340982254E+02
 0.17515402806E+02 0.13818197506E+02 0.10995640917E+02 0.88386440464E+01 0.71893437255E+01
 0.59336787979E+01 0.49878053230E+01 0.42864683015E+01 0.37769318651E+01 0.34176362609E+01
 0.31786778216E+01 0.30414586993E+01 0.28603813822E+01 0.29049686996E+01 0.30414586993E+01
 0.32793505464E+01 0.36376978708E+01 0.41471178966E+01 0.48500058412E+01 0.58001652138E+01
 0.70645553063E+01 0.87298707694E+01 0.10914686558E+02 0.13783467225E+02 0.17553997715E+02
 0.22490242154E+02 0.28881289950E+02 0.37017509387E+02 0.47174570686E+02 0.59598310791E+02
 0.74387445359E+02 0.89787018412E+02 0.10182782038E+03 0.10628353008E+03 0.99756108023E+02
 0.80783241002E+02 0.50802492188E+02 0.14567304722E+02 -.20460839244E+02 -.45942218283E+02
 -.55274722912E+02 -.45942218283E+02 -.20460839244E+02 0.14567304722E+02 0.50802492188E+02
 0.80783241002E+02 0.99756108023E+02 0.10628353008E+03 0.10182782038E+03 0.89787018412E+02
 0.74387445359E+02 0.59598310791E+02 0.47174570686E+02 0.37017509387E+02 0.28881289950E+02
 0.22490242154E+02 0.17553997715E+02 0.13783467225E+02 0.10914686558E+02 0.87298707694E+01
 0.70645553063E+01 0.58001652138E+01 0.48500058412E+01 0.41471178966E+01 0.36376978708E+01
 0.32793505464E+01 0.30414586993E+01 0.29049686996E+01 0.28158751073E+01 0.28603813822E+01
 0.29966260856E+01 0.32341492936E+01 0.35921521393E+01 0.41014866235E+01 0.48048213769E+01
 0.57563149309E+01 0.70235063975E+01 0.86940628354E+01 0.10888089017E+02 0.13772278525E+02
 0.17567353032E+02 0.22540742810E+02 0.28985394617E+02 0.37196147948E+02 0.47454187011E+02
 0.60011573932E+02 0.74948227102E+02 0.90348589488E+02 0.10212994899E+03 0.10597659761E+03
 0.98429694600E+02 0.78022985686E+02 0.46281048836E+02 0.81578804096E+01 -.28585155097E+02
 -.55274722912E+02 -.65043716765E+02 -.55274722912E+02 -.28585155097E+02 0.81578804096E+01
 0.46281048836E+02 0.78022985686E+02 0.98429694600E+02 0.10597659761E+03 0.10212994899E+03
 0.90348589488E+02 0.74948227102E+02 0.60011573932E+02 0.47454187011E+02 0.37196147948E+02
 0.28985394617E+02 0.22540742810E+02 0.17567353032E+02 0.13772278525E+02 0.10888089017E+02
 0.86940628354E+01 0.70235063975E+01 0.57563149309E+01 0.48048213769E+01 0.41014866235E+01