   8   8   0   0
  0.2082684E+02  0.5502640E-09  0.5502640E-09  0.5502640E-09  0.1000000E-15
  1.000000000000000E-004
  CAR 
 GaAs                                    
      9.00835756    -10.94297044  301      2.89202857      1.00000000
    -10.943  0.0000E+00  0.0000E+00
    -10.876  0.0000E+00  0.0000E+00
    -10.810  0.0000E+00  0.0000E+00
    -10.743  0.0000E+00  0.0000E+00
    -10.677  0.0000E+00  0.0000E+00
    -10.610  0.0000E+00  0.0000E+00
    -10.544  0.0000E+00  0.0000E+00
    -10.477  0.0000E+00  0.0000E+00
    -10.411  0.0000E+00  0.0000E+00
    -10.344  0.0000E+00  0.0000E+00
    -10.278  0.0000E+00  0.0000E+00
    -10.211  0.0000E+00  0.0000E+00
    -10.145  0.0000E+00  0.0000E+00
    -10.078  0.0000E+00  0.0000E+00
    -10.012  0.0000E+00  0.0000E+00
     -9.945  0.0000E+00  0.0000E+00
     -9.879  0.8584E-03  0.1833E-04
     -9.812  0.3565E-02  0.1552E-03
     -9.746  0.7147E-02  0.5180E-03
     -9.679  0.8977E-02  0.1065E-02
     -9.613  0.9345E-02  0.1675E-02
     -9.546  0.1024E-01  0.2322E-02
     -9.480  0.1179E-01  0.3053E-02
     -9.413  0.1352E-01  0.3894E-02
     -9.347  0.1787E-01  0.4883E-02
     -9.280  0.2540E-01  0.6335E-02
     -9.214  0.2723E-01  0.8169E-02
     -9.147  0.2277E-01  0.9826E-02
     -9.081  0.2111E-01  0.1125E-01
     -9.014  0.2086E-01  0.1265E-01
     -8.948  0.2033E-01  0.1402E-01
     -8.881  0.1950E-01  0.1535E-01
     -8.815  0.2275E-01  0.1700E-01
     -8.748  0.1182E-01  0.1815E-01
     -8.682  0.1412E-01  0.1891E-01
     -8.615  0.2630E-01  0.2024E-01
     -8.549  0.3283E-01  0.2229E-01
     -8.482  0.3535E-01  0.2458E-01
     -8.416  0.3778E-01  0.2693E-01
     -8.349  0.4162E-01  0.2958E-01
     -8.283  0.1242E+00  0.3445E-01
     -8.216  0.4361E-01  0.3977E-01
     -8.150  0.3915E-01  0.4227E-01
     -8.083  0.4256E-01  0.4499E-01
     -8.017  0.4664E-01  0.4795E-01
     -7.950  0.7523E-01  0.5226E-01
     -7.884  0.7344E-01  0.5715E-01
     -7.817  0.8796E-01  0.6262E-01
     -7.751  0.6171E-01  0.6783E-01
     -7.684  0.5616E-01  0.7175E-01
     -7.618  0.5281E-01  0.7533E-01
     -7.551  0.4210E-01  0.7846E-01
     -7.485  0.9623E-02  0.8000E-01
     -7.418  0.0000E+00  0.8000E-01
     -7.352  0.0000E+00  0.8000E-01
     -7.285  0.0000E+00  0.8000E-01
     -7.219  0.0000E+00  0.8000E-01
     -7.152  0.0000E+00  0.8000E-01
     -7.086  0.0000E+00  0.8000E-01
     -7.019  0.0000E+00  0.8000E-01
     -6.953  0.0000E+00  0.8000E-01
     -6.886  0.0000E+00  0.8000E-01
     -6.820  0.0000E+00  0.8000E-01
     -6.753  0.0000E+00  0.8000E-01
     -6.687  0.0000E+00  0.8000E-01
     -6.620  0.0000E+00  0.8000E-01
     -6.554  0.0000E+00  0.8000E-01
     -6.487  0.0000E+00  0.8000E-01
     -6.421  0.0000E+00  0.8000E-01
     -6.354  0.0000E+00  0.8000E-01
     -6.288  0.0000E+00  0.8000E-01
     -6.221  0.0000E+00  0.8000E-01
     -6.155  0.0000E+00  0.8000E-01
     -6.088  0.0000E+00  0.8000E-01
     -6.022  0.0000E+00  0.8000E-01
     -5.955  0.0000E+00  0.8000E-01
     -5.889  0.0000E+00  0.8000E-01
     -5.822  0.0000E+00  0.8000E-01
     -5.756  0.0000E+00  0.8000E-01
     -5.689  0.0000E+00  0.8000E-01
     -5.623  0.0000E+00  0.8000E-01
     -5.556  0.0000E+00  0.8000E-01
     -5.490  0.0000E+00  0.8000E-01
     -5.423  0.0000E+00  0.8000E-01
     -5.357  0.0000E+00  0.8000E-01
     -5.290  0.0000E+00  0.8000E-01
     -5.224  0.0000E+00  0.8000E-01
     -5.157  0.0000E+00  0.8000E-01
     -5.091  0.0000E+00  0.8000E-01
     -5.024  0.0000E+00  0.8000E-01
     -4.958  0.0000E+00  0.8000E-01
     -4.891  0.0000E+00  0.8000E-01
     -4.825  0.0000E+00  0.8000E-01
     -4.758  0.0000E+00  0.8000E-01
     -4.692  0.0000E+00  0.8000E-01
     -4.625  0.0000E+00  0.8000E-01
     -4.559  0.0000E+00  0.8000E-01
     -4.492  0.0000E+00  0.8000E-01
     -4.426  0.0000E+00  0.8000E-01
     -4.359  0.0000E+00  0.8000E-01
     -4.293  0.0000E+00  0.8000E-01
     -4.226  0.0000E+00  0.8000E-01
     -4.160  0.0000E+00  0.8000E-01
     -4.093  0.0000E+00  0.8000E-01
     -4.027  0.0000E+00  0.8000E-01
     -3.960  0.2896E-02  0.8003E-01
     -3.894  0.1662E-01  0.8073E-01
     -3.827  0.2320E-01  0.8198E-01
     -3.760  0.4602E-01  0.8420E-01
     -3.694  0.9862E-01  0.8897E-01
     -3.627  0.1483E+00  0.9677E-01
     -3.561  0.1160E+00  0.1047E+00
     -3.494  0.7592E-01  0.1108E+00
     -3.428  0.5605E-01  0.1151E+00
     -3.361  0.4015E-01  0.1183E+00
     -3.295  0.3681E-01  0.1208E+00
     -3.228  0.2863E-01  0.1229E+00
     -3.162  0.2792E-01  0.1248E+00
     -3.095  0.2727E-01  0.1266E+00
     -3.029  0.2667E-01  0.1284E+00
     -2.962  0.2612E-01  0.1301E+00
     -2.896  0.2563E-01  0.1319E+00
     -2.829  0.2031E-01  0.1334E+00
     -2.763  0.1989E-01  0.1347E+00
     -2.696  0.1939E-01  0.1360E+00
     -2.630  0.1867E-01  0.1373E+00
     -2.563  0.1771E-01  0.1385E+00
     -2.497  0.1694E-01  0.1396E+00
     -2.430  0.1587E-01  0.1407E+00
     -2.364  0.1470E-01  0.1417E+00
     -2.297  0.1422E-01  0.1427E+00
     -2.231  0.1244E-01  0.1436E+00
     -2.164  0.1088E-01  0.1444E+00
     -2.098  0.9535E-02  0.1450E+00
     -2.031  0.8641E-02  0.1456E+00
     -1.965  0.7508E-02  0.1462E+00
     -1.898  0.7666E-02  0.1467E+00
     -1.832  0.7813E-02  0.1472E+00
     -1.765  0.7949E-02  0.1477E+00
     -1.699  0.8074E-02  0.1483E+00
     -1.632  0.8188E-02  0.1488E+00
     -1.566  0.8379E-02  0.1494E+00
     -1.499  0.8630E-02  0.1499E+00
     -1.433  0.8940E-02  0.1505E+00
     -1.366  0.9308E-02  0.1511E+00
     -1.300  0.9736E-02  0.1518E+00
     -1.233  0.1022E-01  0.1524E+00
     -1.167  0.1077E-01  0.1531E+00
     -1.100  0.1160E-01  0.1539E+00
     -1.034  0.1685E-01  0.1547E+00
     -0.967  0.3248E-01  0.1565E+00
     -0.901  0.3446E-01  0.1587E+00
     -0.834  0.3646E-01  0.1611E+00
     -0.768  0.5971E-01  0.1641E+00
     -0.701  0.6804E-01  0.1685E+00
     -0.635  0.6133E-01  0.1728E+00
     -0.568  0.5538E-01  0.1767E+00
     -0.502  0.5083E-01  0.1801E+00
     -0.435  0.4777E-01  0.1834E+00
     -0.369  0.4371E-01  0.1864E+00
     -0.302  0.4370E-01  0.1893E+00
     -0.236  0.4390E-01  0.1922E+00
     -0.169  0.5119E-01  0.1953E+00
     -0.103  0.4802E-01  0.1988E+00
     -0.036  0.4412E-01  0.2017E+00
      0.030  0.4508E-01  0.2046E+00
      0.097  0.5043E-01  0.2077E+00
      0.163  0.6327E-01  0.2113E+00
      0.230  0.7481E-01  0.2158E+00
      0.296  0.6985E-01  0.2208E+00
      0.363  0.8892E-01  0.2256E+00
      0.429  0.7030E-01  0.2305E+00
      0.496  0.6566E-01  0.2350E+00
      0.562  0.6074E-01  0.2393E+00
      0.629  0.5293E-01  0.2430E+00
      0.695  0.4843E-01  0.2464E+00
      0.762  0.4520E-01  0.2495E+00
      0.828  0.4881E-01  0.2525E+00
      0.895  0.5398E-01  0.2560E+00
      0.961  0.6319E-01  0.2601E+00
      1.028  0.5267E-01  0.2636E+00
      1.094  0.5611E-01  0.2672E+00
      1.161  0.6923E-01  0.2712E+00
      1.227  0.9180E-01  0.2762E+00
      1.294  0.5807E-01  0.2813E+00
      1.360  0.5092E-01  0.2849E+00
      1.427  0.4371E-01  0.2881E+00
      1.493  0.3427E-01  0.2911E+00
      1.560  0.2411E-01  0.2928E+00
      1.626  0.2229E-01  0.2943E+00
      1.693  0.2934E-01  0.2959E+00
      1.759  0.3886E-01  0.2982E+00
      1.826  0.5391E-01  0.3015E+00
      1.892  0.5508E-01  0.3050E+00
      1.959  0.5569E-01  0.3087E+00
      2.025  0.4143E-01  0.3122E+00
      2.092  0.1771E-01  0.3138E+00
      2.158  0.1551E-01  0.3149E+00
      2.225  0.1335E-01  0.3159E+00
      2.291  0.1123E-01  0.3167E+00
      2.358  0.9348E-02  0.3174E+00
      2.424  0.1012E-01  0.3180E+00
      2.491  0.9952E-02  0.3187E+00
      2.557  0.8149E-02  0.3193E+00
      2.624  0.4713E-02  0.3198E+00
      2.690  0.1271E-02  0.3199E+00
      2.757  0.3789E-03  0.3200E+00
      2.823  0.1081E-04  0.3200E+00
      2.890  0.0000E+00  0.3200E+00
      2.956  0.0000E+00  0.3200E+00
      3.023  0.0000E+00  0.3200E+00
      3.089  0.0000E+00  0.3200E+00
      3.156  0.0000E+00  0.3200E+00
      3.222  0.0000E+00  0.3200E+00
      3.289  0.0000E+00  0.3200E+00
      3.355  0.0000E+00  0.3200E+00
      3.422  0.0000E+00  0.3200E+00
      3.488  0.0000E+00  0.3200E+00
      3.555  0.7148E-05  0.3200E+00
      3.621  0.3599E-04  0.3200E+00
      3.688  0.8696E-04  0.3200E+00
      3.755  0.1600E-03  0.3200E+00
      3.821  0.2552E-03  0.3200E+00
      3.888  0.3726E-03  0.3200E+00
      3.954  0.5120E-03  0.3201E+00
      4.021  0.4238E-02  0.3203E+00
      4.087  0.2246E-02  0.3204E+00
      4.154  0.2708E-02  0.3206E+00
      4.220  0.3217E-02  0.3208E+00
      4.287  0.3934E-02  0.3210E+00
      4.353  0.5359E-02  0.3213E+00
      4.420  0.7421E-02  0.3218E+00
      4.486  0.1012E-01  0.3223E+00
      4.553  0.1271E-01  0.3231E+00
      4.619  0.1427E-01  0.3240E+00
      4.686  0.1634E-01  0.3250E+00
      4.752  0.3081E-01  0.3268E+00
      4.819  0.2807E-01  0.3285E+00
      4.885  0.3498E-01  0.3306E+00
      4.952  0.5675E-01  0.3337E+00
      5.018  0.7429E-01  0.3383E+00
      5.085  0.6998E-01  0.3431E+00
      5.151  0.6834E-01  0.3476E+00
      5.218  0.7361E-01  0.3523E+00
      5.284  0.9077E-01  0.3576E+00
      5.351  0.7794E-01  0.3636E+00
      5.417  0.5980E-01  0.3679E+00
      5.484  0.5948E-01  0.3719E+00
      5.550  0.5878E-01  0.3758E+00
      5.617  0.7167E-01  0.3800E+00
      5.683  0.5806E-01  0.3843E+00
      5.750  0.6107E-01  0.3883E+00
      5.816  0.6936E-01  0.3932E+00
      5.883  0.3836E-01  0.3958E+00
      5.949  0.3647E-01  0.3983E+00
      6.016  0.3483E-01  0.4007E+00
      6.082  0.3343E-01  0.4029E+00
      6.149  0.3246E-01  0.4051E+00
      6.215  0.2639E-01  0.4072E+00
      6.282  0.2551E-01  0.4090E+00
      6.348  0.1981E-01  0.4102E+00
      6.415  0.2132E-01  0.4116E+00
      6.481  0.2283E-01  0.4131E+00
      6.548  0.2433E-01  0.4146E+00
      6.614  0.2583E-01  0.4163E+00
      6.681  0.2811E-01  0.4181E+00
      6.747  0.3075E-01  0.4201E+00
      6.814  0.5260E-01  0.4232E+00
      6.880  0.4908E-01  0.4263E+00
      6.947  0.5556E-01  0.4298E+00
      7.013  0.6467E-01  0.4338E+00
      7.080  0.1119E+00  0.4393E+00
      7.146  0.7203E-01  0.4450E+00
      7.213  0.5250E-01  0.4491E+00
      7.279  0.4229E-01  0.4523E+00
      7.346  0.2653E-01  0.4543E+00
      7.412  0.2978E-01  0.4562E+00
      7.479  0.3361E-01  0.4583E+00
      7.545  0.5138E-01  0.4609E+00
      7.612  0.8893E-01  0.4650E+00
      7.678  0.6551E-01  0.4708E+00
      7.745  0.4418E-01  0.4741E+00
      7.811  0.3535E-01  0.4767E+00
      7.878  0.1929E-01  0.4785E+00
      7.944  0.1151E-01  0.4795E+00
      8.011  0.0000E+00  0.4800E+00
      8.077  0.0000E+00  0.4800E+00
      8.144  0.0000E+00  0.4800E+00
      8.210  0.0000E+00  0.4800E+00
      8.277  0.0000E+00  0.4800E+00
      8.343  0.0000E+00  0.4800E+00
      8.410  0.0000E+00  0.4800E+00
      8.476  0.0000E+00  0.4800E+00
      8.543  0.0000E+00  0.4800E+00
      8.609  0.0000E+00  0.4800E+00
      8.676  0.0000E+00  0.4800E+00
      8.742  0.0000E+00  0.4800E+00
      8.809  0.0000E+00  0.4800E+00
      8.875  0.0000E+00  0.4800E+00
      8.942  0.0000E+00  0.4800E+00
      9.008  0.0000E+00  0.4800E+00
