       N       E                     dE             d eps       ncg     rms          rms(c)
DAV:   1    -0.323434142773E+02   -0.32343E+02   -0.26077E-01   544   0.224E+00    0.825E-01
DAV:   2    -0.323374574206E+02    0.59569E-02   -0.14003E-02   504   0.524E-01    0.492E-01
DAV:   3    -0.323355068144E+02    0.19506E-02   -0.94626E-03   512   0.355E-01    0.556E-02
DAV:   4    -0.323353783172E+02    0.12850E-03   -0.56449E-04   504   0.109E-01    0.315E-02
DAV:   5    -0.323353632584E+02    0.15059E-04   -0.70178E-05   240   0.338E-02
   1 F= -.27135730E+02 E0= -.27135730E+02  d E =-.271357E+02
       N       E                     dE             d eps       ncg     rms          rms(c)
DAV:   1    -0.326508457333E+02   -0.31547E+00   -0.64373E-01   544   0.345E+00    0.863E-01
DAV:   2    -0.326288426512E+02    0.22003E-01   -0.38006E-02   504   0.873E-01    0.449E-01
DAV:   3    -0.326212847481E+02    0.75579E-02   -0.26634E-02   528   0.597E-01    0.133E-01
DAV:   4    -0.326210050665E+02    0.27968E-03   -0.10629E-03   512   0.155E-01    0.101E-01
DAV:   5    -0.326208073109E+02    0.19776E-03   -0.34046E-04   480   0.770E-02    0.448E-02
DAV:   6    -0.326208083843E+02   -0.10734E-05   -0.31036E-05   240   0.222E-02
   2 F= -.27284841E+02 E0= -.27284841E+02  d E =-.149111E+00
       N       E                     dE             d eps       ncg     rms          rms(c)
DAV:   1    -0.331836092254E+02   -0.56280E+00   -0.33520E+00   536   0.770E+00    0.192E+00
DAV:   2    -0.330683441025E+02    0.11527E+00   -0.19666E-01   504   0.199E+00    0.983E-01
DAV:   3    -0.330300007114E+02    0.38343E-01   -0.13789E-01   520   0.134E+00    0.279E-01
DAV:   4    -0.330283152581E+02    0.16855E-02   -0.59998E-03   528   0.365E-01    0.198E-01
DAV:   5    -0.330274186000E+02    0.89666E-03   -0.16663E-03   552   0.170E-01    0.100E-01
DAV:   6    -0.330274251026E+02   -0.65026E-05   -0.13332E-04   280   0.446E-02
   3 F= -.27368773E+02 E0= -.27368773E+02  d E =-.233044E+00
       N       E                     dE             d eps       ncg     rms          rms(c)
DAV:   1    -0.329678969777E+02    0.59522E-01   -0.19764E-01   528   0.191E+00    0.469E-01
DAV:   2    -0.329612735496E+02    0.66234E-02   -0.12035E-02   504   0.481E-01    0.242E-01
DAV:   3    -0.329590717275E+02    0.22018E-02   -0.80936E-03   520   0.326E-01    0.766E-02
DAV:   4    -0.329589867926E+02    0.84935E-04   -0.31654E-04   456   0.852E-02
   4 F= -.27379181E+02 E0= -.27379181E+02  d E =-.243451E+00
