<?xml version="1.0" encoding="ISO-8859-1"?>
<modeling>
 <generator>
  <i name="program" type="string">vasp </i>
  <i name="version" type="string">6.4.3  </i>
  <i name="subversion" type="string">19Mar24 (build Aug 29 2024 15:27:20) complex                          parallel </i>
  <i name="platform" type="string">LinuxIFC </i>
  <i name="date" type="string">2025 03 19 </i>
  <i name="time" type="string">10:25:01 </i>
 </generator>
 <incar>
  <i type="string" name="SYSTEM">GaAs</i>
  <i type="string" name="PREC">Normal</i>
  <i type="int" name="IBRION">     2</i>
  <i type="int" name="NFREE">     2</i>
  <i type="int" name="NSW">   100</i>
  <i type="int" name="ISIF">     3</i>
  <i name="ENCUT">    400.00000000</i>
  <i name="POTIM">      0.10000000</i>
  <i type="int" name="ISMEAR">    -5</i>
  <i name="SIGMA">      0.10000000</i>
  <i name="PSTRESS">     50.00000000</i>
 </incar>
 <primitive_cell>
  <structure name="primitive_cell" >
   <crystal>
    <varray name="basis" >
     <v>       2.75132003      -2.75132003       0.00000000 </v>
     <v>       2.75132003       0.00000000       2.75132003 </v>
     <v>       0.00000000      -2.75132003       2.75132003 </v>
    </varray>
    <i name="volume">     41.65367512 </i>
    <varray name="rec_basis" >
     <v>       0.18173095      -0.18173095      -0.18173095 </v>
     <v>       0.18173095       0.18173095       0.18173095 </v>
     <v>      -0.18173095      -0.18173095       0.18173095 </v>
    </varray>
   </crystal>
   <varray name="positions" >
    <v>       0.00000000       0.00000000       0.00000000 </v>
    <v>       0.75000000       0.75000000       0.75000000 </v>
   </varray>
  </structure>
  <varray name="primitive_index" >
   <v type="int" >        1 </v>
   <v type="int" >        5 </v>
  </varray>
 </primitive_cell>
 <kpoints>
  <generation param="Gamma">
   <v type="int" name="divisions">       5        5        5 </v>
   <v name="usershift">      0.00000000       0.00000000       0.00000000 </v>
   <v name="genvec1">      0.20000000       0.00000000       0.00000000 </v>
   <v name="genvec2">      0.00000000       0.20000000       0.00000000 </v>
   <v name="genvec3">      0.00000000       0.00000000       0.20000000 </v>
   <v name="shift">      0.00000000       0.00000000       0.00000000 </v>
  </generation>
  <varray name="kpointlist" >
   <v>       0.00000000       0.00000000       0.00000000 </v>
   <v>       0.20000000       0.00000000       0.00000000 </v>
   <v>       0.40000000       0.00000000       0.00000000 </v>
   <v>       0.20000000       0.20000000       0.00000000 </v>
   <v>       0.40000000       0.20000000       0.00000000 </v>
   <v>       0.40000000       0.40000000       0.00000000 </v>
   <v>       0.20000000       0.20000000       0.20000000 </v>
   <v>       0.40000000       0.20000000       0.20000000 </v>
   <v>       0.40000000       0.40000000       0.20000000 </v>
   <v>       0.40000000       0.40000000       0.40000000 </v>
  </varray>
  <varray name="weights" >
   <v>       0.00800000 </v>
   <v>       0.04800000 </v>
   <v>       0.04800000 </v>
   <v>       0.09600000 </v>
   <v>       0.19200000 </v>
   <v>       0.09600000 </v>
   <v>       0.06400000 </v>
   <v>       0.19200000 </v>
   <v>       0.19200000 </v>
   <v>       0.06400000 </v>
  </varray>
  <varray name="tetrahedronlist"  type="int" >
   <v type="int" >       12        7        8        8        9 </v>
   <v type="int" >       18        8        8        9        9 </v>
   <v type="int" >       24        8        9        9       10 </v>
   <v type="int" >       12        8        9        9        9 </v>
   <v type="int" >       24        9        9        9       10 </v>
   <v type="int" >       18        9        9       10       10 </v>
   <v type="int" >       24        4        5        7        8 </v>
   <v type="int" >       12        5        7        8        8 </v>
   <v type="int" >       24        5        8        8        9 </v>
   <v type="int" >       24        4        5        5        8 </v>
   <v type="int" >       24        5        5        6        8 </v>
   <v type="int" >       12        5        6        8        9 </v>
   <v type="int" >       12        9       10       10       10 </v>
   <v type="int" >       12        8        8        9       10 </v>
   <v type="int" >       12        8        9       10       10 </v>
   <v type="int" >       12        5        5        8        9 </v>
   <v type="int" >       12        5        8        9        9 </v>
   <v type="int" >       12        5        5        6        9 </v>
   <v type="int" >       12        5        6        6        9 </v>
   <v type="int" >       12        5        6        9        9 </v>
   <v type="int" >       12        5        6        8        8 </v>
   <v type="int" >       12        5        6        6        8 </v>
   <v type="int" >       12        6        8        8        9 </v>
   <v type="int" >       12        6        8        9        9 </v>
   <v type="int" >       12        6        6        8        9 </v>
   <v type="int" >       12        7        8        9       10 </v>
   <v type="int" >       12        4        5        8        9 </v>
   <v type="int" >       12        4        7        8        9 </v>
   <v type="int" >       12        4        5        6        9 </v>
   <v type="int" >       12        5        6        7        8 </v>
   <v type="int" >       12        4        5        6        7 </v>
   <v type="int" >       12        6        7        8        9 </v>
   <v type="int" >       12        2        4        7        8 </v>
   <v type="int" >       12        2        4        5        8 </v>
   <v type="int" >       12        2        3        5        8 </v>
   <v type="int" >       12        4        4        5        7 </v>
   <v type="int" >       12        2        4        4        5 </v>
   <v type="int" >       12        2        3        4        5 </v>
   <v type="int" >       12        3        4        5        5 </v>
   <v type="int" >       12        2        3        4        7 </v>
   <v type="int" >       12        3        4        5        7 </v>
   <v type="int" >       12        3        5        7        8 </v>
   <v type="int" >        6       10       10       10       10 </v>
   <v type="int" >       12        6        6        9        9 </v>
   <v type="int" >       12        6        9        9        9 </v>
   <v type="int" >       12        6        6        6        9 </v>
   <v type="int" >       12        3        5        8        8 </v>
   <v type="int" >       12        3        5        5        8 </v>
   <v type="int" >       12        3        3        5        8 </v>
   <v type="int" >       12        5        5        5        8 </v>
   <v type="int" >       12        3        5        5        5 </v>
   <v type="int" >        6        3        3        5        5 </v>
   <v type="int" >        6        5        5        8        8 </v>
   <v type="int" >       12        2        4        4        7 </v>
   <v type="int" >       12        2        2        4        4 </v>
   <v type="int" >       12        1        2        2        4 </v>
   <v type="int" >       12        1        2        4        7 </v>
  </varray>
  <i name="volumeweight">      0.00133333 </i>
 </kpoints>
 <parameters>
  <separator name="general" >
   <i type="string" name="SYSTEM">GaAs</i>
   <i type="logical" name="LCOMPAT"> F  </i>
  </separator>
  <separator name="electronic" >
   <i type="string" name="PREC">normal</i>
   <i name="ENMAX">    400.00000000</i>
   <i name="ENAUG">    462.75800000</i>
   <i name="EDIFF">      0.00010000</i>
   <i type="int" name="IALGO">    38</i>
   <i type="int" name="IWAVPR">    11</i>
   <i type="int" name="NBANDS">    24</i>
   <i type="int" name="NBANDSLOW">    -1</i>
   <i type="int" name="NBANDSHIGH">    -1</i>
   <i name="NELECT">     32.00000000</i>
   <i type="int" name="TURBO">     0</i>
   <i type="int" name="IRESTART">     0</i>
   <i type="int" name="NREBOOT">     0</i>
   <i type="int" name="NMIN">     0</i>
   <i name="EREF">      0.00000000</i>
   <separator name="electronic smearing" >
    <i type="int" name="ISMEAR">    -5</i>
    <i name="SIGMA">      0.10000000</i>
    <i name="KSPACING">      0.50000000</i>
    <i type="logical" name="KGAMMA"> T  </i>
    <i type="logical" name="KBLOWUP"> T  </i>
   </separator>
   <separator name="electronic projectors" >
    <i type="logical" name="LREAL"> F  </i>
    <v name="ROPT">      0.00000000      0.00000000</v>
    <i type="int" name="LMAXPAW">  -100</i>
    <i type="int" name="LMAXMIX">     2</i>
    <i type="logical" name="NLSPLINE"> F  </i>
   </separator>
   <separator name="electronic startup" >
    <i type="int" name="ISTART">     1</i>
    <i type="int" name="ICHARG">     0</i>
    <i type="int" name="INIWAV">     1</i>
   </separator>
   <separator name="electronic spin" >
    <i type="int" name="ISPIN">     1</i>
    <i type="logical" name="LNONCOLLINEAR"> F  </i>
    <v name="MAGMOM">      1.00000000      1.00000000      1.00000000      1.00000000      1.00000000      1.00000000      1.00000000      1.00000000</v>
    <i name="NUPDOWN">     -1.00000000</i>
    <i type="logical" name="LSORBIT"> F  </i>
    <v name="SAXIS">      0.00000000      0.00000000      1.00000000</v>
    <i type="logical" name="LSPIRAL"> F  </i>
    <v name="QSPIRAL">      0.00000000      0.00000000      0.00000000</v>
    <i type="logical" name="LZEROZ"> F  </i>
   </separator>
   <separator name="electronic exchange-correlation" >
    <i type="logical" name="LASPH"> F  </i>
   </separator>
   <separator name="electronic convergence" >
    <i type="int" name="NELM">    60</i>
    <i type="int" name="NELMDL">     0</i>
    <i type="int" name="NELMIN">     2</i>
    <i name="ENINI">    400.00000000</i>
    <separator name="electronic convergence detail" >
     <i type="logical" name="LDIAG"> T  </i>
     <i type="logical" name="LSUBROT"> F  </i>
     <i name="WEIMIN">      0.00100000</i>
     <i name="EBREAK">      0.00000104</i>
     <i name="DEPER">      0.30000000</i>
     <i type="int" name="NRMM">     4</i>
     <i name="TIME">      0.40000000</i>
    </separator>
   </separator>
   <separator name="electronic mixer" >
    <i name="AMIX">      0.40000000</i>
    <i name="BMIX">      1.00000000</i>
    <i name="AMIN">      0.10000000</i>
    <i name="AMIX_MAG">      1.60000000</i>
    <i name="BMIX_MAG">      1.00000000</i>
    <separator name="electronic mixer details" >
     <i type="int" name="IMIX">     4</i>
     <i type="logical" name="MIXFIRST"> F  </i>
     <i type="int" name="MAXMIX">   -45</i>
     <i name="WC">    100.00000000</i>
     <i type="int" name="INIMIX">     1</i>
     <i type="int" name="MIXPRE">     1</i>
     <i type="int" name="MREMOVE">     5</i>
    </separator>
   </separator>
   <separator name="electronic dipolcorrection" >
    <i type="logical" name="LDIPOL"> F  </i>
    <i type="logical" name="LMONO"> F  </i>
    <i type="int" name="IDIPOL">     0</i>
    <i name="EPSILON">      1.00000000</i>
    <v name="DIPOL">   -100.00000000   -100.00000000   -100.00000000</v>
    <i name="EFIELD">      0.00000000</i>
    <i type="logical" name="LVACPOTAV"> F  </i>
   </separator>
  </separator>
  <separator name="grids" >
   <i type="int" name="NGX">    28</i>
   <i type="int" name="NGY">    28</i>
   <i type="int" name="NGZ">    28</i>
   <i type="int" name="NGXF">    56</i>
   <i type="int" name="NGYF">    56</i>
   <i type="int" name="NGZF">    56</i>
   <i type="logical" name="ADDGRID"> F  </i>
  </separator>
  <separator name="ionic" >
   <i type="int" name="NSW">   100</i>
   <i type="int" name="IBRION">     2</i>
   <i type="int" name="MDALGO">     0</i>
   <i type="int" name="ISIF">     3</i>
   <i name="PSTRESS">     50.00000000</i>
   <i name="EDIFFG">      0.00100000</i>
   <i type="int" name="NFREE">     2</i>
   <i name="POTIM">      0.10000000</i>
   <i name="SMASS">     -3.00000000</i>
   <i name="SCALEE">      1.00000000</i>
  </separator>
  <separator name="ionic md" >
   <i name="TEBEG">      0.00010000</i>
   <i name="TEEND">      0.00010000</i>
   <i type="int" name="NBLOCK">     1</i>
   <i type="int" name="KBLOCK">   100</i>
   <i type="int" name="NPACO">   256</i>
   <i name="APACO">     10.00000000</i>
  </separator>
  <separator name="symmetry" >
   <i type="int" name="ISYM">     2</i>
   <i name="SYMPREC">      0.00001000</i>
  </separator>
  <separator name="dos" >
   <i type="int" name="LORBIT">     0</i>
   <v name="RWIGS">     -1.00000000     -1.00000000</v>
   <i type="int" name="NEDOS">   301</i>
   <i name="EMIN">     10.00000000</i>
   <i name="EMAX">    -10.00000000</i>
   <i name="EFERMI">      0.00000000</i>
  </separator>
  <separator name="writing" >
   <i type="int" name="NWRITE">     2</i>
   <i type="logical" name="LWAVE"> T  </i>
   <i type="logical" name="LDOWNSAMPLE"> F  </i>
   <i type="logical" name="LCHARG"> T  </i>
   <i type="logical" name="LPARD"> F  </i>
   <i type="logical" name="LVTOT"> F  </i>
   <i type="logical" name="LVHAR"> F  </i>
   <i type="logical" name="LELF"> F  </i>
   <i type="logical" name="LOPTICS"> F  </i>
   <v name="STM">      0.00000000      0.00000000      0.00000000      0.00000000      0.00000000      0.00000000      0.00000000</v>
  </separator>
  <separator name="performance" >
   <i type="int" name="NPAR">     8</i>
   <i type="int" name="NSIM">     4</i>
   <i type="int" name="NBLK">    -1</i>
   <i type="logical" name="LPLANE"> T  </i>
   <i type="logical" name="LSCALAPACK"> T  </i>
   <i type="logical" name="LSCAAWARE"> F  </i>
   <i type="logical" name="LSCALU"> F  </i>
   <i type="logical" name="LASYNC"> F  </i>
   <i type="logical" name="LORBITALREAL"> F  </i>
  </separator>
  <separator name="miscellaneous" >
   <i type="int" name="IDIOT">     3</i>
   <i type="int" name="PHON_NSTRUCT">    -1</i>
   <i type="logical" name="LMUSIC"> F  </i>
   <v name="POMASS">     74.92200000     69.72300000</v>
   <v name="DARWINR">      0.00000000      0.00000000</v>
   <v name="DARWINV">      1.00000000      1.00000000</v>
   <i type="logical" name="LCORR"> T  </i>
  </separator>
  <i type="logical" name="GGA_COMPAT"> T  </i>
  <i type="logical" name="LBERRY"> F  </i>
  <i type="int" name="ICORELEVEL">     0</i>
  <i type="logical" name="LDAU"> F  </i>
  <i type="int" name="I_CONSTRAINED_M">     0</i>
  <separator name="electronic exchange-correlation" >
   <i type="string" name="GGA    ">PE</i>
   <i type="string" name="XC_C">1</i>
   <i type="int" name="VOSKOWN">     0</i>
   <i type="logical" name="LHFCALC"> F  </i>
   <i type="string" name="PRECFOCK"></i>
   <i type="logical" name="LSYMGRAD"> F  </i>
   <i type="logical" name="LHFONE"> F  </i>
   <i type="logical" name="LRHFCALC"> F  </i>
   <i type="logical" name="LTHOMAS"> F  </i>
   <i type="logical" name="LMODELHF"> F  </i>
   <i type="logical" name="LFOCKACE"> F  </i>
   <i name="ENCUT4O">     -1.00000000</i>
   <i type="int" name="EXXOEP">     0</i>
   <i type="int" name="FOURORBIT">     0</i>
   <i name="AEXX">      0.00000000</i>
   <i name="HFALPHA">      0.00000000</i>
   <i name="MCALPHA">      0.00000000</i>
   <i name="ALDAX">      1.00000000</i>
   <i name="AGGAX">      1.00000000</i>
   <i name="AMGGAX">      1.00000000</i>
   <i name="ALDAC">      1.00000000</i>
   <i name="AGGAC">      1.00000000</i>
   <i name="AMGGAC">      1.00000000</i>
   <i type="int" name="NKREDX">     1</i>
   <i type="int" name="NKREDY">     1</i>
   <i type="int" name="NKREDZ">     1</i>
   <i type="logical" name="SHIFTRED"> F  </i>
   <i type="logical" name="ODDONLY"> F  </i>
   <i type="logical" name="EVENONLY"> F  </i>
   <i type="int" name="LMAXFOCK">     0</i>
   <i type="int" name="NMAXFOCKAE">     0</i>
   <i type="logical" name="LFOCKAEDFT"> F  </i>
   <i name="HFSCREEN">      0.00000000</i>
   <i name="HFSCREENC">      0.00000000</i>
   <i type="int" name="NBANDSGWLOW">     0</i>
  </separator>
  <separator name="vdW DFT" >
   <i type="logical" name="LUSE_VDW"> F  </i>
   <i type="int" name="IVDW_NL">    -1</i>
   <i type="logical" name="LSPIN_VDW"> F  </i>
   <i name="ZAB_VDW">     -0.84910000</i>
   <i name="GAMMA_VDW">      1.39626340</i>
   <i name="ALPHA_VDW">      0.00000000</i>
   <i name="PARAM1">      0.12340000</i>
   <i name="PARAM2">      1.00000000</i>
   <i name="BPARAM">      6.30000000</i>
   <i name="CPARAM">      0.00930000</i>
  </separator>
  <separator name="model GW" >
   <i type="int" name="MODEL_GW">     0</i>
   <i name="MODEL_EPS0">     12.49610254</i>
   <i name="MODEL_ALPHA">      1.00000000</i>
  </separator>
  <separator name="linear response parameters" >
   <i type="logical" name="LEPSILON"> F  </i>
   <i type="logical" name="LRPA"> F  </i>
   <i type="logical" name="LNABLA"> F  </i>
   <i type="logical" name="LVEL"> F  </i>
   <i name="CSHIFT">      0.10000000</i>
   <i name="OMEGAMAX">     -1.00000000</i>
   <i name="DEG_THRESHOLD">      0.00200000</i>
   <i name="RTIME">     -0.10000000</i>
   <i name="WPLASMAI">      0.00000000</i>
   <v name="DFIELD">      0.00000000      0.00000000      0.00000000</v>
   <v name="WPLASMA">      0.00000000      0.00000000      0.00000000      0.00000000      0.00000000      0.00000000      0.00000000      0.00000000      0.00000000</v>
  </separator>
  <separator name="orbital magnetization" >
   <i type="logical" name="NUCIND"> F  </i>
   <v name="MAGPOS">      0.00000000      0.00000000      0.00000000</v>
   <i type="logical" name="LNICSALL"> T  </i>
   <i type="logical" name="ORBITALMAG"> F  </i>
   <i type="logical" name="LMAGBLOCH"> F  </i>
   <i type="logical" name="LCHIMAG"> F  </i>
   <i type="logical" name="LGAUGE"> T  </i>
   <i type="int" name="MAGATOM">     0</i>
   <v name="MAGDIPOL">      0.00000000      0.00000000      0.00000000</v>
   <v name="AVECCONST">      0.00000000      0.00000000      0.00000000</v>
  </separator>
  <separator name="response functions" >
   <i type="logical" name="LALL_IN_ONE"> F  </i>
   <i type="int" name="IALL_IN_ONE">    -1</i>
   <i type="int" name="NBANDS_WAVE">    -1</i>
   <i type="logical" name="LFINITE_TEMPERATURE"> F  </i>
   <i type="logical" name="LADDER"> F  </i>
   <i type="logical" name="LRPAFORCE"> F  </i>
   <i type="logical" name="LFXC"> F  </i>
   <i type="logical" name="LHARTREE"> T  </i>
   <i type="int" name="IBSE">     0</i>
   <v type="int" name="KPOINT">    -1     0     0     0</v>
   <i type="logical" name="LTCTC"> F  </i>
   <i type="logical" name="LTCTE"> F  </i>
   <i type="logical" name="LTETE"> F  </i>
   <i type="logical" name="LTRIPLET"> F  </i>
   <i type="logical" name="LFXCEPS"> F  </i>
   <i type="logical" name="LFXHEG"> F  </i>
   <i type="int" name="NATURALO">     2</i>
   <i type="logical" name="LHOLEGF"> F  </i>
   <i type="logical" name="L2ORDER"> F  </i>
   <i type="logical" name="LDMP1"> F  </i>
   <i type="logical" name="LMP2LT"> F  </i>
   <i type="logical" name="LSMP2LT"> F  </i>
   <i type="logical" name="LGWLF"> F  </i>
   <i name="ENCUTGW">     -1.60000002</i>
   <i name="ENCUTGWSOFT">     -1.60000002</i>
   <i name="ENCUTLF">     -1.00000000</i>
   <i type="logical" name="ESF_SPLINES"> F  </i>
   <i name="ESF_CONV">      0.01000000</i>
   <i type="int" name="ESF_NINTER">    15</i>
   <i type="int" name="LMAXMP2">    -1</i>
   <i name="SCISSOR">      0.00000000</i>
   <i type="int" name="NOMEGA">     0</i>
   <i type="int" name="NOMEGAR">     0</i>
   <i type="int" name="NBANDSGW">    -1</i>
   <i type="int" name="NBANDSO">    -1</i>
   <i type="int" name="NBANDSV">    -1</i>
   <i type="int" name="NELMGW">     1</i>
   <i type="int" name="NELMHF">     1</i>
   <i type="int" name="DIM">     3</i>
   <i type="int" name="IESPILON">     4</i>
   <i type="int" name="ANTIRES">     0</i>
   <i name="OMEGAMAX">    -30.00000000</i>
   <i name="OMEGAMIN">    -30.00000000</i>
   <i name="OMEGATL">   -200.00000000</i>
   <i type="int" name="OMEGAGRID">     0</i>
   <i name="CSHIFT">     -0.10000000</i>
   <i type="logical" name="LSELFENERGY"> F  </i>
   <i type="logical" name="LSPECTRAL"> F  </i>
   <i type="logical" name="LSPECTRALGW"> F  </i>
   <i type="logical" name="LSINGLES"> F  </i>
   <i type="logical" name="LFERMIGW"> F  </i>
   <i type="logical" name="ODDONLYGW"> F  </i>
   <i type="logical" name="EVENONLYGW"> F  </i>
   <i type="int" name="NKREDLFX">     1</i>
   <i type="int" name="NKREDLFY">     1</i>
   <i type="int" name="NKREDLFZ">     1</i>
   <i type="int" name="MAXMEM">  2800</i>
   <i type="int" name="TELESCOPE">     0</i>
   <i type="int" name="NTAUPAR">    -1</i>
   <i type="int" name="NOMEGAPAR">    -1</i>
   <i name="DAMP_NEWTON">      0.80000001</i>
   <i name="LAMBDA">      1.00000000</i>
  </separator>
  <separator name="External order field" >
   <i name="OFIELD_KAPPA">      0.00000000</i>
   <v name="OFIELD_K">      0.00000000      0.00000000      0.00000000</v>
   <i name="OFIELD_Q6_NEAR">      0.00000000</i>
   <i name="OFIELD_Q6_FAR">      0.00000000</i>
   <i name="OFIELD_A">      0.00000000</i>
  </separator>
  <separator name="optional k-points parameters" >
   <i type="int" name="KPOINTS_OPT_MODE">     1</i>
   <i type="logical" name="LKPOINTS_OPT"> F  </i>
  </separator>
 </parameters>
 <atominfo>
  <atoms>       8 </atoms>
  <types>       2 </types>
  <array name="atoms" >
   <dimension dim="1">ion</dimension>
   <field type="string">element</field>
   <field type="int">atomtype</field>
   <set>
    <rc><c>As</c><c>   1</c></rc>
    <rc><c>As</c><c>   1</c></rc>
    <rc><c>As</c><c>   1</c></rc>
    <rc><c>As</c><c>   1</c></rc>
    <rc><c>Ga</c><c>   2</c></rc>
    <rc><c>Ga</c><c>   2</c></rc>
    <rc><c>Ga</c><c>   2</c></rc>
    <rc><c>Ga</c><c>   2</c></rc>
   </set>
  </array>
  <array name="atomtypes" >
   <dimension dim="1">type</dimension>
   <field type="int">atomspertype</field>
   <field type="string">element</field>
   <field>mass</field>
   <field>valence</field>
   <field type="string">pseudopotential</field>
   <set>
    <rc><c>   4</c><c>As</c><c>     74.92200000</c><c>      5.00000000</c><c>  PAW_PBE As 22Sep2009                  </c></rc>
    <rc><c>   4</c><c>Ga</c><c>     69.72300000</c><c>      3.00000000</c><c>  PAW_PBE Ga 08Apr2002                  </c></rc>
   </set>
  </array>
 </atominfo>
 <structure name="initialpos" >
  <crystal>
   <varray name="basis" >
    <v>       5.50264006       0.00000000       0.00000000 </v>
    <v>       0.00000000       5.50264006       0.00000000 </v>
    <v>       0.00000000       0.00000000       5.50264006 </v>
   </varray>
   <i name="volume">    166.61470049 </i>
   <varray name="rec_basis" >
    <v>       0.18173095       0.00000000       0.00000000 </v>
    <v>       0.00000000       0.18173095       0.00000000 </v>
    <v>       0.00000000       0.00000000       0.18173095 </v>
   </varray>
  </crystal>
  <varray name="positions" >
   <v>       0.00000000       0.00000000       0.00000000 </v>
   <v>       0.50000000       0.50000000       0.00000000 </v>
   <v>       0.50000000       0.00000000       0.50000000 </v>
   <v>       0.00000000       0.50000000       0.50000000 </v>
   <v>       0.25000000       0.25000000       0.25000000 </v>
   <v>       0.75000000       0.25000000       0.75000000 </v>
   <v>       0.75000000       0.75000000       0.25000000 </v>
   <v>       0.25000000       0.75000000       0.75000000 </v>
  </varray>
 </structure>
 <calculation>
  <scstep>
   <time name="dav">    0.21    0.22</time>
   <time name="total">    0.23    0.24</time>
   <energy>
    <i name="alphaZ">     82.12872199 </i>
    <i name="ewald">   -941.78307081 </i>
    <i name="hartreedc">    -80.28717984 </i>
    <i name="XCdc">   -120.08222369 </i>
    <i name="pawpsdc">   2215.69655713 </i>
    <i name="pawaedc">  -2037.23112734 </i>
    <i name="eentropy">      0.00000000 </i>
    <i name="bandstr">    -67.00172465 </i>
    <i name="atom">    916.21663293 </i>
    <i name="e_fr_energy">    -32.34341428 </i>
    <i name="e_wo_entrp">    -32.34341428 </i>
    <i name="e_0_energy">    -32.34341428 </i>
   </energy>
  </scstep>
  <scstep>
   <time name="dav">    0.19    0.20</time>
   <time name="total">    0.21    0.22</time>
   <energy>
    <i name="e_fr_energy">    -32.33745742 </i>
    <i name="e_wo_entrp">    -32.33745742 </i>
    <i name="e_0_energy">    -32.33745742 </i>
   </energy>
  </scstep>
  <scstep>
   <time name="dav">    0.19    0.20</time>
   <time name="total">    0.21    0.23</time>
   <energy>
    <i name="e_fr_energy">    -32.33550681 </i>
    <i name="e_wo_entrp">    -32.33550681 </i>
    <i name="e_0_energy">    -32.33550681 </i>
   </energy>
  </scstep>
  <scstep>
   <time name="dav">    0.19    0.20</time>
   <time name="total">    0.21    0.22</time>
   <energy>
    <i name="e_fr_energy">    -32.33537832 </i>
    <i name="e_wo_entrp">    -32.33537832 </i>
    <i name="e_0_energy">    -32.33537832 </i>
   </energy>
  </scstep>
  <scstep>
   <time name="dav">    0.13    0.14</time>
   <time name="total">    0.15    0.16</time>
   <energy>
    <i name="alphaZ">     82.12872199 </i>
    <i name="ewald">   -941.78307081 </i>
    <i name="hartreedc">    -78.91987543 </i>
    <i name="XCdc">   -120.02991246 </i>
    <i name="pawpsdc">   2308.45232597 </i>
    <i name="pawaedc">  -2129.94905809 </i>
    <i name="eentropy">      0.00000000 </i>
    <i name="bandstr">    -68.45112736 </i>
    <i name="atom">    916.21663293 </i>
    <i name="e_fr_energy">    -32.33536326 </i>
    <i name="e_wo_entrp">    -32.33536326 </i>
    <i name="e_0_energy">    -32.33536326 </i>
   </energy>
  </scstep>
  <structure>
   <crystal>
    <varray name="basis" >
     <v>       5.50264006       0.00000000       0.00000000 </v>
     <v>       0.00000000       5.50264006       0.00000000 </v>
     <v>       0.00000000       0.00000000       5.50264006 </v>
    </varray>
    <i name="volume">    166.61470049 </i>
    <varray name="rec_basis" >
     <v>       0.18173095       0.00000000       0.00000000 </v>
     <v>       0.00000000       0.18173095       0.00000000 </v>
     <v>       0.00000000       0.00000000       0.18173095 </v>
    </varray>
   </crystal>
   <varray name="positions" >
    <v>       0.00000000       0.00000000       0.00000000 </v>
    <v>       0.50000000       0.50000000       0.00000000 </v>
    <v>       0.50000000       0.00000000       0.50000000 </v>
    <v>       0.00000000       0.50000000       0.50000000 </v>
    <v>       0.25000000       0.25000000       0.25000000 </v>
    <v>       0.75000000       0.25000000       0.75000000 </v>
    <v>       0.75000000       0.75000000       0.25000000 </v>
    <v>       0.25000000       0.75000000       0.75000000 </v>
   </varray>
  </structure>
  <varray name="forces" >
   <v>       0.00000000       0.00000000      -0.00000000 </v>
   <v>      -0.00000000      -0.00000000      -0.00000000 </v>
   <v>       0.00000000       0.00000000      -0.00000000 </v>
   <v>      -0.00000000      -0.00000000       0.00000000 </v>
   <v>       0.00000000      -0.00000000       0.00000000 </v>
   <v>       0.00000000       0.00000000       0.00000000 </v>
   <v>       0.00000000       0.00000000       0.00000000 </v>
   <v>       0.00000000      -0.00000000       0.00000000 </v>
  </varray>
  <varray name="stress" >
   <v>     119.08408403       0.00000000      -0.00000000 </v>
   <v>      -0.00000000     119.08408403      -0.00000000 </v>
   <v>       0.00000000      -0.00000000     119.08408403 </v>
  </varray>
  <energy>
   <i name="e_fr_energy">    -27.13572969 </i>
   <i name="e_wo_entrp">    -27.13572969 </i>
   <i name="e_0_energy">    -27.13572969 </i>
  </energy>
  <time name="totalsc">    1.48    1.57</time>
 </calculation>
 <calculation>
  <scstep>
   <time name="dav">    0.20    0.21</time>
   <time name="total">    0.22    0.23</time>
   <energy>
    <i name="alphaZ">     80.03033581 </i>
    <i name="ewald">   -933.69293131 </i>
    <i name="hartreedc">    -78.24596148 </i>
    <i name="XCdc">   -120.23683411 </i>
    <i name="pawpsdc">   2307.60620424 </i>
    <i name="pawaedc">  -2129.10349373 </i>
    <i name="eentropy">      0.00000000 </i>
    <i name="bandstr">    -75.22479810 </i>
    <i name="atom">    916.21663293 </i>
    <i name="e_fr_energy">    -32.65084573 </i>
    <i name="e_wo_entrp">    -32.65084573 </i>
    <i name="e_0_energy">    -32.65084573 </i>
   </energy>
  </scstep>
  <scstep>
   <time name="dav">    0.19    0.20</time>
   <time name="total">    0.21    0.22</time>
   <energy>
    <i name="e_fr_energy">    -32.62884265 </i>
    <i name="e_wo_entrp">    -32.62884265 </i>
    <i name="e_0_energy">    -32.62884265 </i>
   </energy>
  </scstep>
  <scstep>
   <time name="dav">    0.19    0.21</time>
   <time name="total">    0.22    0.23</time>
   <energy>
    <i name="e_fr_energy">    -32.62128475 </i>
    <i name="e_wo_entrp">    -32.62128475 </i>
    <i name="e_0_energy">    -32.62128475 </i>
   </energy>
  </scstep>
  <scstep>
   <time name="dav">    0.19    0.20</time>
   <time name="total">    0.21    0.23</time>
   <energy>
    <i name="e_fr_energy">    -32.62100507 </i>
    <i name="e_wo_entrp">    -32.62100507 </i>
    <i name="e_0_energy">    -32.62100507 </i>
   </energy>
  </scstep>
  <scstep>
   <time name="dav">    0.18    0.19</time>
   <time name="total">    0.21    0.22</time>
   <energy>
    <i name="e_fr_energy">    -32.62080731 </i>
    <i name="e_wo_entrp">    -32.62080731 </i>
    <i name="e_0_energy">    -32.62080731 </i>
   </energy>
  </scstep>
  <scstep>
   <time name="dav">    0.13    0.14</time>
   <time name="total">    0.15    0.15</time>
   <energy>
    <i name="alphaZ">     80.03033581 </i>
    <i name="ewald">   -933.69293131 </i>
    <i name="hartreedc">    -80.72763324 </i>
    <i name="XCdc">   -120.35321641 </i>
    <i name="pawpsdc">   2204.29380275 </i>
    <i name="pawaedc">  -2025.67760533 </i>
    <i name="eentropy">      0.00000000 </i>
    <i name="bandstr">    -72.71019358 </i>
    <i name="atom">    916.21663293 </i>
    <i name="e_fr_energy">    -32.62080838 </i>
    <i name="e_wo_entrp">    -32.62080838 </i>
    <i name="e_0_energy">    -32.62080838 </i>
   </energy>
  </scstep>
  <structure>
   <crystal>
    <varray name="basis" >
     <v>       5.55031861       0.00000000      -0.00000000 </v>
     <v>      -0.00000000       5.55031861      -0.00000000 </v>
     <v>       0.00000000      -0.00000000       5.55031861 </v>
    </varray>
    <i name="volume">    170.98331873 </i>
    <varray name="rec_basis" >
     <v>       0.18016984       0.00000000      -0.00000000 </v>
     <v>      -0.00000000       0.18016984       0.00000000 </v>
     <v>       0.00000000       0.00000000       0.18016984 </v>
    </varray>
   </crystal>
   <varray name="positions" >
    <v>       0.00000000       0.00000000       1.00000000 </v>
    <v>       0.50000000       0.50000000       1.00000000 </v>
    <v>       0.50000000       0.00000000       0.50000000 </v>
    <v>       1.00000000       0.50000000       0.50000000 </v>
    <v>       0.25000000       0.25000000       0.25000000 </v>
    <v>       0.75000000       0.25000000       0.75000000 </v>
    <v>       0.75000000       0.75000000       0.25000000 </v>
    <v>       0.25000000       0.75000000       0.75000000 </v>
   </varray>
  </structure>
  <varray name="forces" >
   <v>       0.00000000      -0.00000000       0.00000000 </v>
   <v>       0.00000000       0.00000000       0.00000000 </v>
   <v>      -0.00000000      -0.00000000       0.00000000 </v>
   <v>      -0.00000000       0.00000000       0.00000000 </v>
   <v>       0.00000000       0.00000000      -0.00000000 </v>
   <v>      -0.00000000       0.00000000      -0.00000000 </v>
   <v>       0.00000000       0.00000000      -0.00000000 </v>
   <v>       0.00000000       0.00000000      -0.00000000 </v>
  </varray>
  <varray name="stress" >
   <v>      91.03775905      -0.00000000      -0.00000000 </v>
   <v>      -0.00000000      91.03775905      -0.00000000 </v>
   <v>      -0.00000000       0.00000000      91.03775905 </v>
  </varray>
  <energy>
   <i name="e_fr_energy">    -27.28484103 </i>
   <i name="e_wo_entrp">    -27.28484103 </i>
   <i name="e_0_energy">    -27.28484103 </i>
  </energy>
  <time name="totalsc">    1.54    1.63</time>
 </calculation>
 <calculation>
  <scstep>
   <time name="dav">    0.20    0.21</time>
   <time name="total">    0.22    0.23</time>
   <energy>
    <i name="alphaZ">     75.46660744 </i>
    <i name="ewald">   -915.59652034 </i>
    <i name="hartreedc">    -79.16988059 </i>
    <i name="XCdc">   -120.83144368 </i>
    <i name="pawpsdc">   2206.84847905 </i>
    <i name="pawaedc">  -2028.22974015 </i>
    <i name="eentropy">      0.00000000 </i>
    <i name="bandstr">    -87.88774390 </i>
    <i name="atom">    916.21663293 </i>
    <i name="e_fr_energy">    -33.18360923 </i>
    <i name="e_wo_entrp">    -33.18360923 </i>
    <i name="e_0_energy">    -33.18360923 </i>
   </energy>
  </scstep>
  <scstep>
   <time name="dav">    0.19    0.20</time>
   <time name="total">    0.21    0.22</time>
   <energy>
    <i name="e_fr_energy">    -33.06834410 </i>
    <i name="e_wo_entrp">    -33.06834410 </i>
    <i name="e_0_energy">    -33.06834410 </i>
   </energy>
  </scstep>
  <scstep>
   <time name="dav">    0.19    0.21</time>
   <time name="total">    0.22    0.23</time>
   <energy>
    <i name="e_fr_energy">    -33.03000071 </i>
    <i name="e_wo_entrp">    -33.03000071 </i>
    <i name="e_0_energy">    -33.03000071 </i>
   </energy>
  </scstep>
  <scstep>
   <time name="dav">    0.20    0.21</time>
   <time name="total">    0.22    0.23</time>
   <energy>
    <i name="e_fr_energy">    -33.02831526 </i>
    <i name="e_wo_entrp">    -33.02831526 </i>
    <i name="e_0_energy">    -33.02831526 </i>
   </energy>
  </scstep>
  <scstep>
   <time name="dav">    0.20    0.21</time>
   <time name="total">    0.22    0.24</time>
   <energy>
    <i name="e_fr_energy">    -33.02741860 </i>
    <i name="e_wo_entrp">    -33.02741860 </i>
    <i name="e_0_energy">    -33.02741860 </i>
   </energy>
  </scstep>
  <scstep>
   <time name="dav">    0.14    0.15</time>
   <time name="total">    0.15    0.16</time>
   <energy>
    <i name="alphaZ">     75.46660744 </i>
    <i name="ewald">   -915.59652034 </i>
    <i name="hartreedc">    -84.88613993 </i>
    <i name="XCdc">   -121.09148891 </i>
    <i name="pawpsdc">   1996.48507913 </i>
    <i name="pawaedc">  -1817.62918380 </i>
    <i name="eentropy">      0.00000000 </i>
    <i name="bandstr">    -81.99241164 </i>
    <i name="atom">    916.21663293 </i>
    <i name="e_fr_energy">    -33.02742510 </i>
    <i name="e_wo_entrp">    -33.02742510 </i>
    <i name="e_0_energy">    -33.02742510 </i>
   </energy>
  </scstep>
  <structure>
   <crystal>
    <varray name="basis" >
     <v>       5.66001851       0.00000000      -0.00000000 </v>
     <v>      -0.00000000       5.66001851      -0.00000000 </v>
     <v>       0.00000000      -0.00000000       5.66001851 </v>
    </varray>
    <i name="volume">    181.32327502 </i>
    <varray name="rec_basis" >
     <v>       0.17667787       0.00000000      -0.00000000 </v>
     <v>      -0.00000000       0.17667787       0.00000000 </v>
     <v>       0.00000000       0.00000000       0.17667787 </v>
    </varray>
   </crystal>
   <varray name="positions" >
    <v>       0.00000000       0.00000000       0.00000000 </v>
    <v>       0.50000000       0.50000000       0.00000000 </v>
    <v>       0.50000000       0.00000000       0.50000000 </v>
    <v>       0.00000000       0.50000000       0.50000000 </v>
    <v>       0.25000000       0.25000000       0.25000000 </v>
    <v>       0.75000000       0.25000000       0.75000000 </v>
    <v>       0.75000000       0.75000000       0.25000000 </v>
    <v>       0.25000000       0.75000000       0.75000000 </v>
   </varray>
  </structure>
  <varray name="forces" >
   <v>       0.00000000       0.00000000       0.00000000 </v>
   <v>       0.00000000       0.00000000      -0.00000000 </v>
   <v>       0.00000000       0.00000000       0.00000000 </v>
   <v>       0.00000000       0.00000000       0.00000000 </v>
   <v>      -0.00000000      -0.00000000      -0.00000000 </v>
   <v>      -0.00000000      -0.00000000      -0.00000000 </v>
   <v>      -0.00000000      -0.00000000      -0.00000000 </v>
   <v>      -0.00000000      -0.00000000      -0.00000000 </v>
  </varray>
  <varray name="stress" >
   <v>      37.72872477       0.00000000       0.00000000 </v>
   <v>       0.00000000      37.72872477      -0.00000000 </v>
   <v>      -0.00000000       0.00000000      37.72872477 </v>
  </varray>
  <energy>
   <i name="e_fr_energy">    -27.36877323 </i>
   <i name="e_wo_entrp">    -27.36877323 </i>
   <i name="e_0_energy">    -27.36877323 </i>
  </energy>
  <time name="totalsc">    1.57    1.66</time>
 </calculation>
 <calculation>
  <scstep>
   <time name="dav">    0.25    0.26</time>
   <time name="total">    0.27    0.29</time>
   <energy>
    <i name="alphaZ">     76.53299488 </i>
    <i name="ewald">   -919.88900360 </i>
    <i name="hartreedc">    -85.30127951 </i>
    <i name="XCdc">   -120.97996935 </i>
    <i name="pawpsdc">   2001.79559379 </i>
    <i name="pawaedc">  -1822.93441048 </i>
    <i name="eentropy">      0.00000000 </i>
    <i name="bandstr">    -78.40845563 </i>
    <i name="atom">    916.21663293 </i>
    <i name="e_fr_energy">    -32.96789698 </i>
    <i name="e_wo_entrp">    -32.96789698 </i>
    <i name="e_0_energy">    -32.96789698 </i>
   </energy>
  </scstep>
  <scstep>
   <time name="dav">    0.19    0.20</time>
   <time name="total">    0.21    0.23</time>
   <energy>
    <i name="e_fr_energy">    -32.96127355 </i>
    <i name="e_wo_entrp">    -32.96127355 </i>
    <i name="e_0_energy">    -32.96127355 </i>
   </energy>
  </scstep>
  <scstep>
   <time name="dav">    0.19    0.20</time>
   <time name="total">    0.22    0.23</time>
   <energy>
    <i name="e_fr_energy">    -32.95907173 </i>
    <i name="e_wo_entrp">    -32.95907173 </i>
    <i name="e_0_energy">    -32.95907173 </i>
   </energy>
  </scstep>
  <scstep>
   <time name="dav">    0.18    0.19</time>
   <time name="total">    0.19    0.20</time>
   <energy>
    <i name="alphaZ">     76.53299488 </i>
    <i name="ewald">   -919.88900360 </i>
    <i name="hartreedc">    -83.94136037 </i>
    <i name="XCdc">   -120.92699024 </i>
    <i name="pawpsdc">   2050.16582138 </i>
    <i name="pawaedc">  -1871.34877889 </i>
    <i name="eentropy">      0.00000000 </i>
    <i name="bandstr">    -79.76830287 </i>
    <i name="atom">    916.21663293 </i>
    <i name="e_fr_energy">    -32.95898679 </i>
    <i name="e_wo_entrp">    -32.95898679 </i>
    <i name="e_0_energy">    -32.95898679 </i>
   </energy>
  </scstep>
  <structure>
   <crystal>
    <varray name="basis" >
     <v>       5.63360713       0.00000000      -0.00000000 </v>
     <v>      -0.00000000       5.63360713      -0.00000000 </v>
     <v>       0.00000000      -0.00000000       5.63360713 </v>
    </varray>
    <i name="volume">    178.79677174 </i>
    <varray name="rec_basis" >
     <v>       0.17750617       0.00000000      -0.00000000 </v>
     <v>      -0.00000000       0.17750617       0.00000000 </v>
     <v>       0.00000000       0.00000000       0.17750617 </v>
    </varray>
   </crystal>
   <varray name="positions" >
    <v>       0.00000000       0.00000000       0.00000000 </v>
    <v>       0.50000000       0.50000000       0.00000000 </v>
    <v>       0.50000000       0.00000000       0.50000000 </v>
    <v>       0.00000000       0.50000000       0.50000000 </v>
    <v>       0.25000000       0.25000000       0.25000000 </v>
    <v>       0.75000000       0.25000000       0.75000000 </v>
    <v>       0.75000000       0.75000000       0.25000000 </v>
    <v>       0.25000000       0.75000000       0.75000000 </v>
   </varray>
  </structure>
  <varray name="forces" >
   <v>      -0.00000000      -0.00000000      -0.00000000 </v>
   <v>       0.00000000      -0.00000000      -0.00000000 </v>
   <v>      -0.00000000      -0.00000000       0.00000000 </v>
   <v>       0.00000000       0.00000000      -0.00000000 </v>
   <v>      -0.00000000      -0.00000000      -0.00000000 </v>
   <v>      -0.00000000       0.00000000       0.00000000 </v>
   <v>       0.00000000       0.00000000      -0.00000000 </v>
   <v>       0.00000000       0.00000000       0.00000000 </v>
  </varray>
  <varray name="stress" >
   <v>      48.97499871      -0.00000000       0.00000000 </v>
   <v>      -0.00000000      48.97499871       0.00000000 </v>
   <v>      -0.00000000       0.00000000      48.97499871 </v>
  </varray>
  <energy>
   <i name="e_fr_energy">    -27.37918085 </i>
   <i name="e_wo_entrp">    -27.37918085 </i>
   <i name="e_0_energy">    -27.37918085 </i>
  </energy>
  <time name="totalsc">    1.22    1.30</time>
  <eigenvalues>
   <array>
    <dimension dim="1">band</dimension>
    <dimension dim="2">kpoint</dimension>
    <dimension dim="3">spin</dimension>
    <field>eigene</field>
    <field>occ</field>
    <set>
     <set comment="spin 1">
      <set comment="kpoint 1">
       <r>   -9.9430    1.0000 </r>
       <r>   -7.5399    1.0000 </r>
       <r>   -7.5399    1.0000 </r>
       <r>   -7.5399    1.0000 </r>
       <r>   -3.9945    1.0000 </r>
       <r>   -3.9945    1.0000 </r>
       <r>   -3.9945    1.0000 </r>
       <r>    0.1358    1.0000 </r>
       <r>    0.1358    1.0000 </r>
       <r>    0.1358    1.0000 </r>
       <r>    0.1358    1.0000 </r>
       <r>    0.1358    1.0000 </r>
       <r>    0.1358    1.0000 </r>
       <r>    2.8370    1.0000 </r>
       <r>    2.8370    1.0000 </r>
       <r>    2.8370    1.0000 </r>
       <r>    3.5015    0.0000 </r>
       <r>    4.2879    0.0000 </r>
       <r>    4.2879    0.0000 </r>
       <r>    4.2879    0.0000 </r>
       <r>    4.5111    0.0000 </r>
       <r>    4.5111    0.0000 </r>
       <r>    4.5111    0.0000 </r>
       <r>    6.6073    0.0000 </r>
      </set>
      <set comment="kpoint 2">
       <r>   -9.7968    1.0000 </r>
       <r>   -7.9510    1.0000 </r>
       <r>   -7.5243    1.0000 </r>
       <r>   -7.5243    1.0000 </r>
       <r>   -3.9295    1.0000 </r>
       <r>   -3.9295    1.0000 </r>
       <r>   -3.3843    1.0000 </r>
       <r>   -0.2080    1.0000 </r>
       <r>   -0.2080    1.0000 </r>
       <r>   -0.1335    1.0000 </r>
       <r>   -0.1335    1.0000 </r>
       <r>    0.3007    1.0000 </r>
       <r>    0.3007    1.0000 </r>
       <r>    1.3154    1.0000 </r>
       <r>    2.3738    1.0000 </r>
       <r>    2.3738    1.0000 </r>
       <r>    4.2632    0.0000 </r>
       <r>    4.9545    0.0000 </r>
       <r>    4.9572    0.0000 </r>
       <r>    5.0311    0.0000 </r>
       <r>    5.0311    0.0000 </r>
       <r>    5.2643    0.0000 </r>
       <r>    5.2643    0.0000 </r>
       <r>    6.1321    0.0000 </r>
      </set>
      <set comment="kpoint 3">
       <r>   -9.3697    1.0000 </r>
       <r>   -8.7075    1.0000 </r>
       <r>   -7.4986    1.0000 </r>
       <r>   -7.4986    1.0000 </r>
       <r>   -3.8113    1.0000 </r>
       <r>   -3.8113    1.0000 </r>
       <r>   -2.0407    1.0000 </r>
       <r>   -0.6812    1.0000 </r>
       <r>   -0.6812    1.0000 </r>
       <r>   -0.4854    1.0000 </r>
       <r>   -0.4854    1.0000 </r>
       <r>   -0.4223    1.0000 </r>
       <r>    0.7815    1.0000 </r>
       <r>    0.7815    1.0000 </r>
       <r>    1.5251    1.0000 </r>
       <r>    1.5251    1.0000 </r>
       <r>    4.5586    0.0000 </r>
       <r>    5.1785    0.0000 </r>
       <r>    5.8014    0.0000 </r>
       <r>    6.2224    0.0000 </r>
       <r>    6.7776    0.0000 </r>
       <r>    6.7776    0.0000 </r>
       <r>    6.9431    0.0000 </r>
       <r>    6.9431    0.0000 </r>
      </set>
      <set comment="kpoint 4">
       <r>   -9.6544    1.0000 </r>
       <r>   -7.8958    1.0000 </r>
       <r>   -7.8958    1.0000 </r>
       <r>   -7.5459    1.0000 </r>
       <r>   -3.8647    1.0000 </r>
       <r>   -3.4205    1.0000 </r>
       <r>   -3.4205    1.0000 </r>
       <r>   -0.8590    1.0000 </r>
       <r>   -0.1273    1.0000 </r>
       <r>   -0.1273    1.0000 </r>
       <r>    0.1884    1.0000 </r>
       <r>    0.1884    1.0000 </r>
       <r>    0.3532    1.0000 </r>
       <r>    0.4096    1.0000 </r>
       <r>    1.8817    1.0000 </r>
       <r>    2.6654    1.0000 </r>
       <r>    4.6639    0.0000 </r>
       <r>    5.0081    0.0000 </r>
       <r>    5.0647    0.0000 </r>
       <r>    5.0647    0.0000 </r>
       <r>    5.6102    0.0000 </r>
       <r>    5.6102    0.0000 </r>
       <r>    6.6297    0.0000 </r>
       <r>    6.7866    0.0000 </r>
      </set>
      <set comment="kpoint 5">
       <r>   -9.2400    1.0000 </r>
       <r>   -8.6046    1.0000 </r>
       <r>   -7.7617    1.0000 </r>
       <r>   -7.6252    1.0000 </r>
       <r>   -3.7087    1.0000 </r>
       <r>   -3.5377    1.0000 </r>
       <r>   -2.3085    1.0000 </r>
       <r>   -1.1101    1.0000 </r>
       <r>   -1.0039    1.0000 </r>
       <r>   -0.7969    1.0000 </r>
       <r>    0.1476    1.0000 </r>
       <r>    0.2924    1.0000 </r>
       <r>    0.3589    1.0000 </r>
       <r>    0.9312    1.0000 </r>
       <r>    1.0150    1.0000 </r>
       <r>    1.9307    1.0000 </r>
       <r>    5.3788    0.0000 </r>
       <r>    5.6503    0.0000 </r>
       <r>    5.7573    0.0000 </r>
       <r>    6.2419    0.0000 </r>
       <r>    6.2434    0.0000 </r>
       <r>    6.7692    0.0000 </r>
       <r>    7.0975    0.0000 </r>
       <r>    8.0084    0.0000 </r>
      </set>
      <set comment="kpoint 6">
       <r>   -8.8689    1.0000 </r>
       <r>   -8.3226    1.0000 </r>
       <r>   -8.3226    1.0000 </r>
       <r>   -7.9479    1.0000 </r>
       <r>   -3.3874    1.0000 </r>
       <r>   -2.8688    1.0000 </r>
       <r>   -2.8688    1.0000 </r>
       <r>   -1.9791    1.0000 </r>
       <r>   -1.0533    1.0000 </r>
       <r>   -0.5109    1.0000 </r>
       <r>   -0.5109    1.0000 </r>
       <r>    0.1534    1.0000 </r>
       <r>    1.1464    1.0000 </r>
       <r>    1.2097    1.0000 </r>
       <r>    1.2097    1.0000 </r>
       <r>    2.0505    1.0000 </r>
       <r>    5.3444    0.0000 </r>
       <r>    5.6527    0.0000 </r>
       <r>    6.1985    0.0000 </r>
       <r>    6.1985    0.0000 </r>
       <r>    7.3207    0.0000 </r>
       <r>    7.3207    0.0000 </r>
       <r>    7.8312    0.0000 </r>
       <r>    7.8420    0.0000 </r>
      </set>
      <set comment="kpoint 7">
       <r>   -9.5166    1.0000 </r>
       <r>   -7.8688    1.0000 </r>
       <r>   -7.8688    1.0000 </r>
       <r>   -7.8688    1.0000 </r>
       <r>   -3.4941    1.0000 </r>
       <r>   -3.4941    1.0000 </r>
       <r>   -3.4941    1.0000 </r>
       <r>   -0.5294    1.0000 </r>
       <r>   -0.5294    1.0000 </r>
       <r>   -0.5294    1.0000 </r>
       <r>   -0.4645    1.0000 </r>
       <r>    0.5604    1.0000 </r>
       <r>    0.5604    1.0000 </r>
       <r>    0.5604    1.0000 </r>
       <r>    2.3302    1.0000 </r>
       <r>    2.3302    1.0000 </r>
       <r>    4.5084    0.0000 </r>
       <r>    4.8399    0.0000 </r>
       <r>    4.8399    0.0000 </r>
       <r>    4.8399    0.0000 </r>
       <r>    6.7961    0.0000 </r>
       <r>    6.7961    0.0000 </r>
       <r>    6.7961    0.0000 </r>
       <r>    7.3103    0.0000 </r>
      </set>
      <set comment="kpoint 8">
       <r>   -9.1181    1.0000 </r>
       <r>   -8.5167    1.0000 </r>
       <r>   -7.8236    1.0000 </r>
       <r>   -7.8236    1.0000 </r>
       <r>   -3.6247    1.0000 </r>
       <r>   -3.6247    1.0000 </r>
       <r>   -2.6649    1.0000 </r>
       <r>   -1.6296    1.0000 </r>
       <r>   -0.7212    1.0000 </r>
       <r>   -0.7212    1.0000 </r>
       <r>    0.3808    1.0000 </r>
       <r>    0.5904    1.0000 </r>
       <r>    0.5904    1.0000 </r>
       <r>    0.9945    1.0000 </r>
       <r>    1.5990    1.0000 </r>
       <r>    1.6432    1.0000 </r>
       <r>    5.1089    0.0000 </r>
       <r>    5.2540    0.0000 </r>
       <r>    5.7584    0.0000 </r>
       <r>    5.7584    0.0000 </r>
       <r>    6.8632    0.0000 </r>
       <r>    7.0201    0.0000 </r>
       <r>    7.6747    0.0000 </r>
       <r>    7.6747    0.0000 </r>
      </set>
      <set comment="kpoint 9">
       <r>   -8.7742    1.0000 </r>
       <r>   -8.2870    1.0000 </r>
       <r>   -8.2870    1.0000 </r>
       <r>   -8.0152    1.0000 </r>
       <r>   -3.6165    1.0000 </r>
       <r>   -3.2599    1.0000 </r>
       <r>   -3.2599    1.0000 </r>
       <r>   -2.5583    1.0000 </r>
       <r>   -0.3958    1.0000 </r>
       <r>    0.0856    1.0000 </r>
       <r>    0.0856    1.0000 </r>
       <r>    0.9113    1.0000 </r>
       <r>    1.2379    1.0000 </r>
       <r>    1.2787    1.0000 </r>
       <r>    1.2787    1.0000 </r>
       <r>    1.9779    1.0000 </r>
       <r>    4.8910    0.0000 </r>
       <r>    5.3300    0.0000 </r>
       <r>    5.5937    0.0000 </r>
       <r>    5.5937    0.0000 </r>
       <r>    7.0738    0.0000 </r>
       <r>    7.0738    0.0000 </r>
       <r>    7.6088    0.0000 </r>
       <r>    7.6348    0.0000 </r>
      </set>
      <set comment="kpoint 10">
       <r>   -8.5247    1.0000 </r>
       <r>   -8.2261    1.0000 </r>
       <r>   -8.2261    1.0000 </r>
       <r>   -8.2261    1.0000 </r>
       <r>   -3.7191    1.0000 </r>
       <r>   -3.7191    1.0000 </r>
       <r>   -3.7191    1.0000 </r>
       <r>   -3.3303    1.0000 </r>
       <r>    0.9067    1.0000 </r>
       <r>    0.9067    1.0000 </r>
       <r>    0.9067    1.0000 </r>
       <r>    1.4777    1.0000 </r>
       <r>    1.4777    1.0000 </r>
       <r>    1.4777    1.0000 </r>
       <r>    1.7657    1.0000 </r>
       <r>    1.7657    1.0000 </r>
       <r>    3.9918    0.0000 </r>
       <r>    4.7232    0.0000 </r>
       <r>    4.7232    0.0000 </r>
       <r>    4.7232    0.0000 </r>
       <r>    7.2357    0.0000 </r>
       <r>    7.2357    0.0000 </r>
       <r>    7.2357    0.0000 </r>
       <r>    7.5438    0.0000 </r>
      </set>
     </set>
    </set>
   </array>
  </eigenvalues>
  <separator name="orbital magnetization" >
   <v name="MAGDIPOLOUT">      0.00000000      0.00000000      0.00000000</v>
  </separator>
  <dos>
   <i name="efermi">      2.89202857 </i>
   <total>
    <array>
     <dimension dim="1">gridpoints</dimension>
     <dimension dim="2">spin</dimension>
     <field>energy</field>
     <field>total</field>
     <field>integrated</field>
     <set>
      <set comment="spin 1">
       <r>   -10.9430     0.0000     0.0000 </r>
       <r>   -10.8765     0.0000     0.0000 </r>
       <r>   -10.8100     0.0000     0.0000 </r>
       <r>   -10.7435     0.0000     0.0000 </r>
       <r>   -10.6770     0.0000     0.0000 </r>
       <r>   -10.6104     0.0000     0.0000 </r>
       <r>   -10.5439     0.0000     0.0000 </r>
       <r>   -10.4774     0.0000     0.0000 </r>
       <r>   -10.4109     0.0000     0.0000 </r>
       <r>   -10.3444     0.0000     0.0000 </r>
       <r>   -10.2779     0.0000     0.0000 </r>
       <r>   -10.2114     0.0000     0.0000 </r>
       <r>   -10.1449     0.0000     0.0000 </r>
       <r>   -10.0784     0.0000     0.0000 </r>
       <r>   -10.0119     0.0000     0.0000 </r>
       <r>    -9.9454     0.0000     0.0000 </r>
       <r>    -9.8789     0.0858     0.0018 </r>
       <r>    -9.8124     0.3565     0.0155 </r>
       <r>    -9.7459     0.7147     0.0518 </r>
       <r>    -9.6794     0.8977     0.1065 </r>
       <r>    -9.6129     0.9345     0.1675 </r>
       <r>    -9.5464     1.0236     0.2322 </r>
       <r>    -9.4799     1.1790     0.3053 </r>
       <r>    -9.4134     1.3521     0.3894 </r>
       <r>    -9.3469     1.7865     0.4883 </r>
       <r>    -9.2804     2.5397     0.6335 </r>
       <r>    -9.2139     2.7228     0.8169 </r>
       <r>    -9.1474     2.2767     0.9826 </r>
       <r>    -9.0808     2.1108     1.1254 </r>
       <r>    -9.0143     2.0864     1.2652 </r>
       <r>    -8.9478     2.0327     1.4023 </r>
       <r>    -8.8813     1.9497     1.5349 </r>
       <r>    -8.8148     2.2747     1.6998 </r>
       <r>    -8.7483     1.1823     1.8148 </r>
       <r>    -8.6818     1.4122     1.8907 </r>
       <r>    -8.6153     2.6303     2.0236 </r>
       <r>    -8.5488     3.2833     2.2293 </r>
       <r>    -8.4823     3.5353     2.4577 </r>
       <r>    -8.4158     3.7780     2.6934 </r>
       <r>    -8.3493     4.1622     2.9580 </r>
       <r>    -8.2828    12.4228     3.4448 </r>
       <r>    -8.2163     4.3614     3.9766 </r>
       <r>    -8.1498     3.9147     4.2275 </r>
       <r>    -8.0833     4.2563     4.4988 </r>
       <r>    -8.0168     4.6644     4.7951 </r>
       <r>    -7.9503     7.5234     5.2262 </r>
       <r>    -7.8838     7.3438     5.7150 </r>
       <r>    -7.8173     8.7957     6.2616 </r>
       <r>    -7.7508     6.1708     6.7833 </r>
       <r>    -7.6843     5.6164     7.1752 </r>
       <r>    -7.6177     5.2805     7.5327 </r>
       <r>    -7.5512     4.2103     7.8464 </r>
       <r>    -7.4847     0.9623     8.0000 </r>
       <r>    -7.4182     0.0000     8.0000 </r>
       <r>    -7.3517     0.0000     8.0000 </r>
       <r>    -7.2852     0.0000     8.0000 </r>
       <r>    -7.2187     0.0000     8.0000 </r>
       <r>    -7.1522     0.0000     8.0000 </r>
       <r>    -7.0857     0.0000     8.0000 </r>
       <r>    -7.0192     0.0000     8.0000 </r>
       <r>    -6.9527     0.0000     8.0000 </r>
       <r>    -6.8862     0.0000     8.0000 </r>
       <r>    -6.8197     0.0000     8.0000 </r>
       <r>    -6.7532     0.0000     8.0000 </r>
       <r>    -6.6867     0.0000     8.0000 </r>
       <r>    -6.6202     0.0000     8.0000 </r>
       <r>    -6.5537     0.0000     8.0000 </r>
       <r>    -6.4872     0.0000     8.0000 </r>
       <r>    -6.4207     0.0000     8.0000 </r>
       <r>    -6.3542     0.0000     8.0000 </r>
       <r>    -6.2877     0.0000     8.0000 </r>
       <r>    -6.2212     0.0000     8.0000 </r>
       <r>    -6.1547     0.0000     8.0000 </r>
       <r>    -6.0881     0.0000     8.0000 </r>
       <r>    -6.0216     0.0000     8.0000 </r>
       <r>    -5.9551     0.0000     8.0000 </r>
       <r>    -5.8886     0.0000     8.0000 </r>
       <r>    -5.8221     0.0000     8.0000 </r>
       <r>    -5.7556     0.0000     8.0000 </r>
       <r>    -5.6891     0.0000     8.0000 </r>
       <r>    -5.6226     0.0000     8.0000 </r>
       <r>    -5.5561     0.0000     8.0000 </r>
       <r>    -5.4896     0.0000     8.0000 </r>
       <r>    -5.4231     0.0000     8.0000 </r>
       <r>    -5.3566     0.0000     8.0000 </r>
       <r>    -5.2901     0.0000     8.0000 </r>
       <r>    -5.2236     0.0000     8.0000 </r>
       <r>    -5.1571     0.0000     8.0000 </r>
       <r>    -5.0906     0.0000     8.0000 </r>
       <r>    -5.0241     0.0000     8.0000 </r>
       <r>    -4.9576     0.0000     8.0000 </r>
       <r>    -4.8911     0.0000     8.0000 </r>
       <r>    -4.8246     0.0000     8.0000 </r>
       <r>    -4.7581     0.0000     8.0000 </r>
       <r>    -4.6916     0.0000     8.0000 </r>
       <r>    -4.6250     0.0000     8.0000 </r>
       <r>    -4.5585     0.0000     8.0000 </r>
       <r>    -4.4920     0.0000     8.0000 </r>
       <r>    -4.4255     0.0000     8.0000 </r>
       <r>    -4.3590     0.0000     8.0000 </r>
       <r>    -4.2925     0.0000     8.0000 </r>
       <r>    -4.2260     0.0000     8.0000 </r>
       <r>    -4.1595     0.0000     8.0000 </r>
       <r>    -4.0930     0.0000     8.0000 </r>
       <r>    -4.0265     0.0000     8.0000 </r>
       <r>    -3.9600     0.2896     8.0033 </r>
       <r>    -3.8935     1.6620     8.0727 </r>
       <r>    -3.8270     2.3197     8.1975 </r>
       <r>    -3.7605     4.6021     8.4202 </r>
       <r>    -3.6940     9.8624     8.8973 </r>
       <r>    -3.6275    14.8345     9.6775 </r>
       <r>    -3.5610    11.5959    10.4651 </r>
       <r>    -3.4945     7.5915    11.0770 </r>
       <r>    -3.4280     5.6046    11.5098 </r>
       <r>    -3.3615     4.0150    11.8307 </r>
       <r>    -3.2950     3.6806    12.0785 </r>
       <r>    -3.2285     2.8626    12.2880 </r>
       <r>    -3.1620     2.7922    12.4760 </r>
       <r>    -3.0954     2.7271    12.6595 </r>
       <r>    -3.0289     2.6671    12.8388 </r>
       <r>    -2.9624     2.6123    13.0143 </r>
       <r>    -2.8959     2.5627    13.1864 </r>
       <r>    -2.8294     2.0315    13.3361 </r>
       <r>    -2.7629     1.9889    13.4698 </r>
       <r>    -2.6964     1.9387    13.6005 </r>
       <r>    -2.6299     1.8665    13.7273 </r>
       <r>    -2.5634     1.7710    13.8483 </r>
       <r>    -2.4969     1.6939    13.9641 </r>
       <r>    -2.4304     1.5870    14.0732 </r>
       <r>    -2.3639     1.4699    14.1749 </r>
       <r>    -2.2974     1.4220    14.2695 </r>
       <r>    -2.2309     1.2440    14.3580 </r>
       <r>    -2.1644     1.0878    14.4354 </r>
       <r>    -2.0979     0.9535    14.5032 </r>
       <r>    -2.0314     0.8641    14.5628 </r>
       <r>    -1.9649     0.7508    14.6199 </r>
       <r>    -1.8984     0.7666    14.6704 </r>
       <r>    -1.8319     0.7813    14.7219 </r>
       <r>    -1.7654     0.7949    14.7743 </r>
       <r>    -1.6989     0.8074    14.8276 </r>
       <r>    -1.6324     0.8188    14.8817 </r>
       <r>    -1.5658     0.8379    14.9367 </r>
       <r>    -1.4993     0.8630    14.9932 </r>
       <r>    -1.4328     0.8940    15.0516 </r>
       <r>    -1.3663     0.9308    15.1123 </r>
       <r>    -1.2998     0.9736    15.1756 </r>
       <r>    -1.2333     1.0221    15.2419 </r>
       <r>    -1.1668     1.0766    15.3117 </r>
       <r>    -1.1003     1.1600    15.3855 </r>
       <r>    -1.0338     1.6847    15.4681 </r>
       <r>    -0.9673     3.2484    15.6477 </r>
       <r>    -0.9008     3.4457    15.8700 </r>
       <r>    -0.8343     3.6456    16.1066 </r>
       <r>    -0.7678     5.9713    16.4084 </r>
       <r>    -0.7013     6.8035    16.8518 </r>
       <r>    -0.6348     6.1333    17.2761 </r>
       <r>    -0.5683     5.5385    17.6656 </r>
       <r>    -0.5018     5.0825    18.0109 </r>
       <r>    -0.4353     4.7771    18.3359 </r>
       <r>    -0.3688     4.3713    18.6406 </r>
       <r>    -0.3023     4.3695    18.9311 </r>
       <r>    -0.2358     4.3904    19.2223 </r>
       <r>    -0.1693     5.1186    19.5334 </r>
       <r>    -0.1027     4.8020    19.8752 </r>
       <r>    -0.0362     4.4125    20.1655 </r>
       <r>     0.0303     4.5085    20.4621 </r>
       <r>     0.0968     5.0431    20.7697 </r>
       <r>     0.1633     6.3273    21.1344 </r>
       <r>     0.2298     7.4811    21.5825 </r>
       <r>     0.2963     6.9853    22.0781 </r>
       <r>     0.3628     8.8919    22.5632 </r>
       <r>     0.4293     7.0299    23.0526 </r>
       <r>     0.4958     6.5663    23.5048 </r>
       <r>     0.5623     6.0743    23.9254 </r>
       <r>     0.6288     5.2934    24.2998 </r>
       <r>     0.6953     4.8432    24.6362 </r>
       <r>     0.7618     4.5196    24.9468 </r>
       <r>     0.8283     4.8812    25.2537 </r>
       <r>     0.8948     5.3980    25.5961 </r>
       <r>     0.9613     6.3187    26.0131 </r>
       <r>     1.0278     5.2669    26.3555 </r>
       <r>     1.0943     5.6108    26.7171 </r>
       <r>     1.1608     6.9225    27.1164 </r>
       <r>     1.2273     9.1797    27.6208 </r>
       <r>     1.2938     5.8073    28.1299 </r>
       <r>     1.3603     5.0923    28.4923 </r>
       <r>     1.4269     4.3710    28.8070 </r>
       <r>     1.4934     3.4271    29.1059 </r>
       <r>     1.5599     2.4109    29.2766 </r>
       <r>     1.6264     2.2294    29.4273 </r>
       <r>     1.6929     2.9336    29.5938 </r>
       <r>     1.7594     3.8862    29.8203 </r>
       <r>     1.8259     5.3906    30.1530 </r>
       <r>     1.8924     5.5084    30.5001 </r>
       <r>     1.9589     5.5689    30.8692 </r>
       <r>     2.0254     4.1430    31.2154 </r>
       <r>     2.0919     1.7713    31.3842 </r>
       <r>     2.1584     1.5509    31.4946 </r>
       <r>     2.2249     1.3346    31.5906 </r>
       <r>     2.2914     1.1225    31.6722 </r>
       <r>     2.3579     0.9348    31.7401 </r>
       <r>     2.4244     1.0121    31.8040 </r>
       <r>     2.4909     0.9952    31.8717 </r>
       <r>     2.5574     0.8149    31.9328 </r>
       <r>     2.6239     0.4713    31.9764 </r>
       <r>     2.6904     0.1271    31.9938 </r>
       <r>     2.7569     0.0379    31.9990 </r>
       <r>     2.8234     0.0011    32.0000 </r>
       <r>     2.8900     0.0000    32.0000 </r>
       <r>     2.9565     0.0000    32.0000 </r>
       <r>     3.0230     0.0000    32.0000 </r>
       <r>     3.0895     0.0000    32.0000 </r>
       <r>     3.1560     0.0000    32.0000 </r>
       <r>     3.2225     0.0000    32.0000 </r>
       <r>     3.2890     0.0000    32.0000 </r>
       <r>     3.3555     0.0000    32.0000 </r>
       <r>     3.4220     0.0000    32.0000 </r>
       <r>     3.4885     0.0000    32.0000 </r>
       <r>     3.5550     0.0007    32.0000 </r>
       <r>     3.6215     0.0036    32.0001 </r>
       <r>     3.6880     0.0087    32.0005 </r>
       <r>     3.7545     0.0160    32.0013 </r>
       <r>     3.8210     0.0255    32.0027 </r>
       <r>     3.8875     0.0373    32.0048 </r>
       <r>     3.9540     0.0512    32.0077 </r>
       <r>     4.0205     0.4238    32.0308 </r>
       <r>     4.0870     0.2246    32.0444 </r>
       <r>     4.1535     0.2708    32.0608 </r>
       <r>     4.2200     0.3217    32.0805 </r>
       <r>     4.2865     0.3934    32.1039 </r>
       <r>     4.3530     0.5359    32.1345 </r>
       <r>     4.4196     0.7421    32.1766 </r>
       <r>     4.4861     1.0120    32.2346 </r>
       <r>     4.5526     1.2712    32.3115 </r>
       <r>     4.6191     1.4266    32.4011 </r>
       <r>     4.6856     1.6338    32.5019 </r>
       <r>     4.7521     3.0809    32.6801 </r>
       <r>     4.8186     2.8073    32.8516 </r>
       <r>     4.8851     3.4981    33.0575 </r>
       <r>     4.9516     5.6747    33.3697 </r>
       <r>     5.0181     7.4291    33.8343 </r>
       <r>     5.0846     6.9978    34.3146 </r>
       <r>     5.1511     6.8338    34.7587 </r>
       <r>     5.2176     7.3608    35.2281 </r>
       <r>     5.2841     9.0770    35.7562 </r>
       <r>     5.3506     7.7941    36.3591 </r>
       <r>     5.4171     5.9796    36.7901 </r>
       <r>     5.4836     5.9479    37.1870 </r>
       <r>     5.5501     5.8779    37.5804 </r>
       <r>     5.6166     7.1667    37.9960 </r>
       <r>     5.6831     5.8060    38.4312 </r>
       <r>     5.7496     6.1068    38.8303 </r>
       <r>     5.8161     6.9362    39.3197 </r>
       <r>     5.8826     3.8355    39.5818 </r>
       <r>     5.9492     3.6467    39.8304 </r>
       <r>     6.0157     3.4826    40.0674 </r>
       <r>     6.0822     3.3433    40.2942 </r>
       <r>     6.1487     3.2462    40.5127 </r>
       <r>     6.2152     2.6388    40.7203 </r>
       <r>     6.2817     2.5511    40.8977 </r>
       <r>     6.3482     1.9809    41.0244 </r>
       <r>     6.4147     2.1321    41.1612 </r>
       <r>     6.4812     2.2828    41.3080 </r>
       <r>     6.5477     2.4332    41.4648 </r>
       <r>     6.6142     2.5832    41.6316 </r>
       <r>     6.6807     2.8114    41.8104 </r>
       <r>     6.7472     3.0747    42.0060 </r>
       <r>     6.8137     5.2600    42.3196 </r>
       <r>     6.8802     4.9078    42.6292 </r>
       <r>     6.9467     5.5564    42.9770 </r>
       <r>     7.0132     6.4670    43.3776 </r>
       <r>     7.0797    11.1864    43.9320 </r>
       <r>     7.1462     7.2031    44.4956 </r>
       <r>     7.2127     5.2495    44.9073 </r>
       <r>     7.2792     4.2293    45.2268 </r>
       <r>     7.3457     2.6531    45.4334 </r>
       <r>     7.4123     2.9781    45.6203 </r>
       <r>     7.4788     3.3612    45.8308 </r>
       <r>     7.5453     5.1379    46.0862 </r>
       <r>     7.6118     8.8925    46.4993 </r>
       <r>     7.6783     6.5510    47.0849 </r>
       <r>     7.7448     4.4178    47.4094 </r>
       <r>     7.8113     3.5355    47.6736 </r>
       <r>     7.8778     1.9293    47.8484 </r>
       <r>     7.9443     1.1505    47.9509 </r>
       <r>     8.0108     0.0000    48.0000 </r>
       <r>     8.0773     0.0000    48.0000 </r>
       <r>     8.1438     0.0000    48.0000 </r>
       <r>     8.2103     0.0000    48.0000 </r>
       <r>     8.2768     0.0000    48.0000 </r>
       <r>     8.3433     0.0000    48.0000 </r>
       <r>     8.4098     0.0000    48.0000 </r>
       <r>     8.4763     0.0000    48.0000 </r>
       <r>     8.5428     0.0000    48.0000 </r>
       <r>     8.6093     0.0000    48.0000 </r>
       <r>     8.6758     0.0000    48.0000 </r>
       <r>     8.7423     0.0000    48.0000 </r>
       <r>     8.8088     0.0000    48.0000 </r>
       <r>     8.8753     0.0000    48.0000 </r>
       <r>     8.9419     0.0000    48.0000 </r>
       <r>     9.0084     0.0000    48.0000 </r>
      </set>
     </set>
    </array>
   </total>
  </dos>
 </calculation>
 <structure name="finalpos" >
  <crystal>
   <varray name="basis" >
    <v>       5.63360713       0.00000000      -0.00000000 </v>
    <v>      -0.00000000       5.63360713      -0.00000000 </v>
    <v>       0.00000000      -0.00000000       5.63360713 </v>
   </varray>
   <i name="volume">    178.79677174 </i>
   <varray name="rec_basis" >
    <v>       0.17750617       0.00000000      -0.00000000 </v>
    <v>      -0.00000000       0.17750617       0.00000000 </v>
    <v>       0.00000000       0.00000000       0.17750617 </v>
   </varray>
  </crystal>
  <varray name="positions" >
   <v>       0.00000000       0.00000000       0.00000000 </v>
   <v>       0.50000000       0.50000000       0.00000000 </v>
   <v>       0.50000000       0.00000000       0.50000000 </v>
   <v>       0.00000000       0.50000000       0.50000000 </v>
   <v>       0.25000000       0.25000000       0.25000000 </v>
   <v>       0.75000000       0.25000000       0.75000000 </v>
   <v>       0.75000000       0.75000000       0.25000000 </v>
   <v>       0.25000000       0.75000000       0.75000000 </v>
  </varray>
 </structure>
</modeling>
