GaAs                                    
           1
     5.502640    0.000000    0.000000
     0.000000    5.502640    0.000000
     0.000000    0.000000    5.502640
   As   Ga
     4     4
Direct configuration=     1
   0.00000000  0.00000000  0.00000000
   0.50000000  0.50000000  0.00000000
   0.50000000  0.00000000  0.50000000
   0.00000000  0.50000000  0.50000000
   0.25000000  0.25000000  0.25000000
   0.75000000  0.25000000  0.75000000
   0.75000000  0.75000000  0.25000000
   0.25000000  0.75000000  0.75000000
GaAs                                    
           1
     5.550319    0.000000   -0.000000
    -0.000000    5.550319   -0.000000
     0.000000   -0.000000    5.550319
   As   Ga
     4     4
Direct configuration=     2
   0.00000000  0.00000000  1.00000000
   0.50000000  0.50000000  1.00000000
   0.50000000  0.00000000  0.50000000
   1.00000000  0.50000000  0.50000000
   0.25000000  0.25000000  0.25000000
   0.75000000  0.25000000  0.75000000
   0.75000000  0.75000000  0.25000000
   0.25000000  0.75000000  0.75000000
GaAs                                    
           1
     5.660019    0.000000   -0.000000
    -0.000000    5.660019   -0.000000
     0.000000   -0.000000    5.660019
   As   Ga
     4     4
Direct configuration=     3
   0.00000000  0.00000000  0.00000000
   0.50000000  0.50000000  0.00000000
   0.50000000  0.00000000  0.50000000
   0.00000000  0.50000000  0.50000000
   0.25000000  0.25000000  0.25000000
   0.75000000  0.25000000  0.75000000
   0.75000000  0.75000000  0.25000000
   0.25000000  0.75000000  0.75000000
GaAs                                    
           1
     5.633607    0.000000   -0.000000
    -0.000000    5.633607   -0.000000
     0.000000   -0.000000    5.633607
   As   Ga
     4     4
Direct configuration=     4
   0.00000000  0.00000000  0.00000000
   0.50000000  0.50000000  0.00000000
   0.50000000  0.00000000  0.50000000
   0.00000000  0.50000000  0.50000000
   0.25000000  0.25000000  0.25000000
   0.75000000  0.25000000  0.75000000
   0.75000000  0.75000000  0.25000000
   0.25000000  0.75000000  0.75000000
