GaAs                                    
   4.50000000000000     
     1.211973    0.000000    0.000000
     0.000000    1.211973    0.000000
     0.000000    0.000000    1.211973
   As   Ga
     4     4
Direct
  0.000000  0.000000  0.000000
  0.500000  0.500000  0.000000
  0.500000  0.000000  0.500000
  0.000000  0.500000  0.500000
  0.250000  0.250000  0.250000
  0.750000  0.250000  0.750000
  0.750000  0.750000  0.250000
  0.250000  0.750000  0.750000
 
   60   60   60
 -62.697     -55.204     -34.344     -4.5030      28.394      58.467      81.261      94.493      98.064      93.548    
  83.505      70.848      58.313      47.417      38.216      30.605      24.442      19.538      15.678      12.652    
  10.280      8.4264      6.9852      5.8747      5.0285      4.3916      3.9202      3.5821      3.3557      3.2263    
  3.1843      3.2263      3.3557      3.5821      3.9202      4.3916      5.0285      5.8747      6.9852      8.4264    
  10.280      12.652      15.678      19.538      24.442      30.605      38.216      47.417      58.313      70.848    
  83.505      93.548      98.064      94.493      81.261      58.467      28.394     -4.5030     -34.344     -55.204    
 -55.204     -47.980     -27.876     0.84891      32.451      61.236      82.898      95.243      98.197      93.313    
  83.110      70.445      58.000      47.196      38.067      30.512      24.392      19.520      15.682      12.670    
  10.308      8.4600      7.0228      5.9149      5.0701      4.4339      3.9626      3.6244      3.3978      3.2683    
  3.2263      3.2683      3.3978      3.6244      3.9626      4.4339      5.0701      5.9149      7.0228      8.4600    
  10.308      12.670      15.682      19.520      24.392      30.512      38.067      47.196      58.000      70.445    
  83.110      93.313      98.197      95.243      82.898      61.236      32.451     0.84891     -27.876     -47.980    
 -34.344     -27.876     -9.9084      15.670      43.626      68.792      87.282      97.148      98.387      92.499    
  81.879      69.235      57.073      46.537      37.622      30.236      24.244      19.466      15.693      12.725    
  10.392      8.5628      7.1381      6.0380      5.1978      4.5636      4.0930      3.7547      3.5278      3.3978    
  3.3557      3.3978      3.5278      3.7547      4.0930      4.5636      5.1978      6.0380      7.1381      8.5628    
  10.392      12.725      15.693      19.466      24.244      30.236      37.622      46.537      57.073      69.235    
  81.879      92.499      98.387      97.148      87.282      68.792      43.626      15.670     -9.9084     -27.876    
 -4.5030     0.84891      15.670      36.623      59.236      79.116      92.995      99.285      98.089      90.827    
  79.710      67.221      55.558      45.459      36.894      29.785      24.004      19.381      15.716      12.821    
  10.537      8.7408      7.3376      6.2514      5.4193      4.7891      4.3200      3.9820      3.7547      3.6244    
  3.5821      3.6244      3.7547      3.9820      4.3200      4.7891      5.4193      6.2514      7.3376      8.7408    
  10.537      12.821      15.716      19.381      24.004      29.785      36.894      45.459      55.558      67.221    
  79.710      90.827      98.089      99.285      92.995      79.116      59.236      36.623      15.670     0.84891    
  28.394      32.451      43.626      59.236      75.700      89.531      98.175      100.46      96.618      87.973    
  76.517      64.455      53.506      43.995      35.906      29.173      23.682      19.271      15.757      12.965    
  10.751      9.0027      7.6316      6.5663      5.7466      5.1230      4.6569      4.3200      4.0930      3.9626    
  3.9202      3.9626      4.0930      4.3200      4.6569      5.1230      5.7466      6.5663      7.6316      9.0027    
  10.751      12.965      15.757      19.271      23.682      29.173      35.906      43.995      53.506      64.455    
  76.517      87.973      96.618      100.46      98.175      89.531      75.700      59.236      43.626      32.451    
  58.467      61.236      68.792      79.116      89.531      97.459      101.06      99.590      93.399      83.722    
  72.318      61.061      50.985      42.194      34.690      28.424      23.292      19.147      15.823      13.165    
  11.044      9.3604      8.0337      6.9978      6.1965      5.5835      5.1230      4.7891      4.5636      4.4339    
  4.3916      4.4339      4.5636      4.7891      5.1230      5.5835      6.1965      6.9978      8.0337      9.3604    
  11.044      13.165      15.823      19.147      23.292      28.424      34.690      42.194      50.985      61.061    
  72.318      83.722      93.399      99.590      101.06      97.459      89.531      79.116      68.792      61.236    
  81.261      82.898      87.282      92.995      98.175      101.06      100.46      96.010      88.177      78.103    
  67.310      57.175      48.087      40.119      33.290      27.566      22.855      19.024      15.928      13.433    
  11.429      9.8291      8.5618      7.5669      6.7925      6.1965      5.7466      5.4193      5.1978      5.0701    
  5.0285      5.0701      5.1978      5.4193      5.7466      6.1965      6.7925      7.5669      8.5618      9.8291    
  11.429      13.433      15.928      19.024      22.855      27.566      33.290      40.119      48.087      57.175    
  67.310      78.103      88.177      96.010      100.46      101.06      98.175      92.995      87.282      82.898    
  94.493      95.243      97.148      99.285      100.46      99.590      96.010      89.671      81.137      71.448    
  61.839      52.945      44.918      37.847      31.762      26.638      22.394      18.917      16.084      13.783    
  11.923      10.430      9.2406      8.3019      7.5669      6.9978      6.5663      6.2514      6.0380      5.9149    
  5.8747      5.9149      6.0380      6.2514      6.5663      6.9978      7.5669      8.3019      9.2406      10.430    
  11.923      13.783      16.084      18.917      22.394      26.638      31.762      37.847      44.918      52.945    
  61.839      71.448      81.137      89.671      96.010      99.590      100.46      99.285      97.148      95.243    
  98.064      98.197      98.387      98.089      96.618      93.399      88.177      81.137      72.893      64.352    
  56.158      48.525      41.596      35.465      30.166      25.680      21.940      18.850      16.312      14.236    
  12.549      11.190      10.103      9.2406      8.5618      8.0337      7.6316      7.3376      7.1381      7.0228    
  6.9852      7.0228      7.1381      7.3376      7.6316      8.0337      8.5618      9.2406      10.103      11.190    
  12.549      14.236      16.312      18.850      21.940      25.680      30.166      35.465      41.596      48.525    
  56.158      64.352      72.893      81.137      88.177      93.399      96.618      98.089      98.387      98.197    
  93.548      93.313      92.499      90.827      87.973      83.722      78.103      71.448      64.352      57.283    
  50.465      44.073      38.242      33.062      28.565      24.737      21.522      18.847      16.635      14.819    
  13.339      12.145      11.190      10.430      9.8291      9.3604      9.0027      8.7408      8.5628      8.4600    
  8.4264      8.4600      8.5628      8.7408      9.0027      9.3604      9.8291      10.430      11.190      12.145    
  13.339      14.819      16.635      18.847      21.522      24.737      28.565      33.062      38.242      44.073    
  50.465      57.283      64.352      71.448      78.103      83.722      87.973      90.827      92.499      93.313    
  83.505      83.110      81.879      79.710      76.517      72.318      67.310      61.839      56.158      50.465    
  44.939      39.735      34.971      30.723      27.020      23.851      21.175      18.938      17.084      15.564    
  14.330      13.339      12.549      11.923      11.429      11.044      10.751      10.537      10.392      10.308    
  10.280      10.308      10.392      10.537      10.751      11.044      11.429      11.923      12.549      13.339    
  14.330      15.564      17.084      18.938      21.175      23.851      27.020      30.723      34.971      39.735    
  44.939      50.465      56.158      61.839      67.310      72.318      76.517      79.710      81.879      83.110    
  70.848      70.445      69.235      67.221      64.455      61.061      57.175      52.945      48.525      44.073    
  39.735      35.638      31.879      28.520      25.584      23.064      20.933      19.156      17.694      16.509    
  15.564      14.819      14.236      13.783      13.433      13.165      12.965      12.821      12.725      12.670    
  12.652      12.670      12.725      12.821      12.965      13.165      13.433      13.783      14.236      14.819    
  15.564      16.509      17.694      19.156      20.933      23.064      25.584      28.520      31.879      35.638    
  39.735      44.073      48.525      52.945      57.175      61.061      64.455      67.221      69.235      70.445    
  58.313      58.000      57.073      55.558      53.506      50.985      48.087      44.918      41.596      38.242    
  34.971      31.879      29.044      26.510      24.300      22.411      20.830      19.536      18.500      17.694    
  17.084      16.635      16.312      16.084      15.928      15.823      15.757      15.716      15.693      15.682    
  15.678      15.682      15.693      15.716      15.757      15.823      15.928      16.084      16.312      16.635    
  17.084      17.694      18.500      19.536      20.830      22.411      24.300      26.510      29.044      31.879    
  34.971      38.242      41.596      44.918      48.087      50.985      53.506      55.558      57.073      58.000    
  47.417      47.196      46.537      45.459      43.995      42.194      40.119      37.847      35.465      33.062    
  30.723      28.520      26.510      24.730      23.199      21.922      20.896      20.107      19.536      19.156    
  18.938      18.847      18.850      18.917      19.024      19.147      19.271      19.381      19.466      19.520    
  19.538      19.520      19.466      19.381      19.271      19.147      19.024      18.917      18.850      18.847    
  18.938      19.156      19.536      20.107      20.896      21.922      23.199      24.730      26.510      28.520    
  30.723      33.062      35.465      37.847      40.119      42.194      43.995      45.459      46.537      47.196    
  38.216      38.067      37.622      36.894      35.906      34.690      33.290      31.762      30.166      28.565    
  27.020      25.584      24.300      23.199      22.302      21.620      21.154      20.896      20.830      20.933    
  21.175      21.522      21.940      22.394      22.855      23.292      23.682      24.004      24.244      24.392    
  24.442      24.392      24.244      24.004      23.682      23.292      22.855      22.394      21.940      21.522    
  21.175      20.933      20.830      20.896      21.154      21.620      22.302      23.199      24.300      25.584    
  27.020      28.565      30.166      31.762      33.290      34.690      35.906      36.894      37.622      38.067    
  30.605      30.512      30.236      29.785      29.173      28.424      27.566      26.638      25.680      24.737    
  23.851      23.064      22.411      21.922      21.620      21.518      21.620      21.922      22.411      23.064    
  23.851      24.737      25.680      26.638      27.566      28.424      29.173      29.785      30.236      30.512    
  30.605      30.512      30.236      29.785      29.173      28.424      27.566      26.638      25.680      24.737    
  23.851      23.064      22.411      21.922      21.620      21.518      21.620      21.922      22.411      23.064    
  23.851      24.737      25.680      26.638      27.566      28.424      29.173      29.785      30.236      30.512    
  24.442      24.392      24.244      24.004      23.682      23.292      22.855      22.394      21.940      21.522    
  21.175      20.933      20.830      20.896      21.154      21.620      22.302      23.199      24.300      25.584    
  27.020      28.565      30.166      31.762      33.290      34.690      35.906      36.894      37.622      38.067    
  38.216      38.067      37.622      36.894      35.906      34.690      33.290      31.762      30.166      28.565    
  27.020      25.584      24.300      23.199      22.302      21.620      21.154      20.896      20.830      20.933    
  21.175      21.522      21.940      22.394      22.855      23.292      23.682      24.004      24.244      24.392    
  19.538      19.520      19.466      19.381      19.271      19.147      19.024      18.917      18.850      18.847    
  18.938      19.156      19.536      20.107      20.896      21.922      23.199      24.730      26.510      28.520    
  30.723      33.062      35.465      37.847      40.119      42.194      43.995      45.459      46.537      47.196    
  47.417      47.196      46.537      45.459      43.995      42.194      40.119      37.847      35.465      33.062    
  30.723      28.520      26.510      24.730      23.199      21.922      20.896      20.107      19.536      19.156    
  18.938      18.847      18.850      18.917      19.024      19.147      19.271      19.381      19.466      19.520    
  15.678      15.682      15.693      15.716      15.757      15.823      15.928      16.084      16.312      16.635    
  17.084      17.694      18.500      19.536      20.830      22.411      24.300      26.510      29.044      31.879    
  34.971      38.242      41.596      44.918      48.087      50.985      53.506      55.558      57.073      58.000    
  58.313      58.000      57.073      55.558      53.506      50.985      48.087      44.918      41.596      38.242    
  34.971      31.879      29.044      26.510      24.300      22.411      20.830      19.536      18.500      17.694    
  17.084      16.635      16.312      16.084      15.928      15.823      15.757      15.716      15.693      15.682    
  12.652      12.670      12.725      12.821      12.965      13.165      13.433      13.783      14.236      14.819    
  15.564      16.509      17.694      19.156      20.933      23.064      25.584      28.520      31.879      35.638    
  39.735      44.073      48.525      52.945      57.175      61.061      64.455      67.221      69.235      70.445    
  70.848      70.445      69.235      67.221      64.455      61.061      57.175      52.945      48.525      44.073    
  39.735      35.638      31.879      28.520      25.584      23.064      20.933      19.156      17.694      16.509    
  15.564      14.819      14.236      13.783      13.433      13.165      12.965      12.821      12.725      12.670    
  10.280      10.308      10.392      10.537      10.751      11.044      11.429      11.923      12.549      13.339    
  14.330      15.564      17.084      18.938      21.175      23.851      27.020      30.723      34.971      39.735    
  44.939      50.465      56.158      61.839      67.310      72.318      76.517      79.710      81.879      83.110    
  83.505      83.110      81.879      79.710      76.517      72.318      67.310      61.839      56.158      50.465    
  44.939      39.735      34.971      30.723      27.020      23.851      21.175      18.938      17.084      15.564    
  14.330      13.339      12.549      11.923      11.429      11.044      10.751      10.537      10.392      10.308    
  8.4264      8.4600      8.5628      8.7408      9.0027      9.3604      9.8291      10.430      11.190      12.145    
  13.339      14.819      16.635      18.847      21.522      24.737      28.565      33.062      38.242      44.073    
  50.465      57.283      64.352      71.448      78.103      83.722      87.973      90.827      92.499      93.313    
  93.548      93.313      92.499      90.827      87.973      83.722      78.103      71.448      64.352      57.283    
  50.465      44.073      38.242      33.062      28.565      24.737      21.522      18.847      16.635      14.819    
  13.339      12.145      11.190      10.430      9.8291      9.3604      9.0027      8.7408      8.5628      8.4600    
  6.9852      7.0228      7.1381      7.3376      7.6316      8.0337      8.5618      9.2406      10.103      11.190    
  12.549      14.236      16.312      18.850      21.940      25.680      30.166      35.465      41.596      48.525    
  56.158      64.352      72.893      81.137      88.177      93.399      96.618      98.089      98.387      98.197    
  98.064      98.197      98.387      98.089      96.618      93.399      88.177      81.137      72.893      64.352    
  56.158      48.525      41.596      35.465      30.166      25.680      21.940      18.850      16.312      14.236    
  12.549      11.190      10.103      9.2406      8.5618      8.0337      7.6316      7.3376      7.1381      7.0228    
  5.8747      5.9149      6.0380      6.2514      6.5663      6.9978      7.5669      8.3019      9.2406      10.430    
  11.923      13.783      16.084      18.917      22.394      26.638      31.762      37.847      44.918      52.945    
  61.839      71.448      81.137      89.671      96.010      99.590      100.46      99.285      97.148      95.243    
  94.493      95.243      97.148      99.285      100.46      99.590      96.010      89.671      81.137      71.448    
  61.839      52.945      44.918      37.847      31.762      26.638      22.394      18.917      16.084      13.783    
  11.923      10.430      9.2406      8.3019      7.5669      6.9978      6.5663      6.2514      6.0380      5.9149    
  5.0285      5.0701      5.1978      5.4193      5.7466      6.1965      6.7925      7.5669      8.5618      9.8291    
  11.429      13.433      15.928      19.024      22.855      27.566      33.290      40.119      48.087      57.175    
  67.310      78.103      88.177      96.010      100.46      101.06      98.175      92.995      87.282      82.898    
  81.261      82.898      87.282      92.995      98.175      101.06      100.46      96.010      88.177      78.103    
  67.310      57.175      48.087      40.119      33.290      27.566      22.855      19.024      15.928      13.433    
  11.429      9.8291      8.5618      7.5669      6.7925      6.1965      5.7466      5.4193      5.1978      5.0701    
  4.3916      4.4339      4.5636      4.7891      5.1230      5.5835      6.1965      6.9978      8.0337      9.3604    
  11.044      13.165      15.823      19.147      23.292      28.424      34.690      42.194      50.985      61.061    
  72.318      83.722      93.399      99.590      101.06      97.459      89.531      79.116      68.792      61.236    
  58.467      61.236      68.792      79.116      89.531      97.459      101.06      99.590      93.399      83.722    
  72.318      61.061      50.985      42.194      34.690      28.424      23.292      19.147      15.823      13.165    
  11.044      9.3604      8.0337      6.9978      6.1965      5.5835      5.1230      4.7891      4.5636      4.4339    
  3.9202      3.9626      4.0930      4.3200      4.6569      5.1230      5.7466      6.5663      7.6316      9.0027    
  10.751      12.965      15.757      19.271      23.682      29.173      35.906      43.995      53.506      64.455    
  76.517      87.973      96.618      100.46      98.175      89.531      75.700      59.236      43.626      32.451    
  28.394      32.451      43.626      59.236      75.700      89.531      98.175      100.46      96.618      87.973    
  76.517      64.455      53.506      43.995      35.906      29.173      23.682      19.271      15.757      12.965    
  10.751      9.0027      7.6316      6.5663      5.7466      5.1230      4.6569      4.3200      4.0930      3.9626    
  3.5821      3.6244      3.7547      3.9820      4.3200      4.7891      5.4193      6.2514      7.3376      8.7408    
  10.537      12.821      15.716      19.381      24.004      29.785      36.894      45.459      55.558      67.221    
  79.710      90.827      98.089      99.285      92.995      79.116      59.236      36.623      15.670     0.84891    
 -4.5030     0.84891      15.670      36.623      59.236      79.116      92.995      99.285      98.089      90.827    
  79.710      67.221      55.558      45.459      36.894      29.785      24.004      19.381      15.716      12.821    
  10.537      8.7408      7.3376      6.2514      5.4193      4.7891      4.3200      3.9820      3.7547      3.6244    
  3.3557      3.3978      3.5278      3.7547      4.0930      4.5636      5.1978      6.0380      7.1381      8.5628    
  10.392      12.725      15.693      19.466      24.244      30.236      37.622      46.537      57.073      69.235    
  81.879      92.499      98.387      97.148      87.282      68.792      43.626      15.670     -9.9084     -27.876    
 -34.344     -27.876     -9.9084      15.670      43.626      68.792      87.282      97.148      98.387      92.499    
  81.879      69.235      57.073      46.537      37.622      30.236      24.244      19.466      15.693      12.725    
  10.392      8.5628      7.1381      6.0380      5.1978      4.5636      4.0930      3.7547      3.5278      3.3978    
  3.2263      3.2683      3.3978      3.6244      3.9626      4.4339      5.0701      5.9149      7.0228      8.4600    
  10.308      12.670      15.682      19.520      24.392      30.512      38.067      47.196      58.000      70.445    
  83.110      93.313      98.197      95.243      82.898      61.236      32.451     0.84891     -27.876     -47.980    
 -55.204     -47.980     -27.876     0.84891      32.451      61.236      82.898      95.243      98.197      93.313    
  83.110      70.445      58.000      47.196      38.067      30.512      24.392      19.520      15.682      12.670    
  10.308      8.4600      7.0228      5.9149      5.0701      4.4339      3.9626      3.6244      3.3978      3.2683    
  3.1843      3.2263      3.3557      3.5821      3.9202      4.3916      5.0285      5.8747      6.9852      8.4264    
  10.280      12.652      15.678      19.538      24.442      30.605      38.216      47.417      58.313      70.848    
  83.505      93.548      98.064      94.493      81.261      58.467      28.394     -4.5030     -34.344     -55.204    
 -62.697     -55.204     -34.344     -4.5030      28.394      58.467      81.261      94.493      98.064      93.548    
  83.505      70.848      58.313      47.417      38.216      30.605      24.442      19.538      15.678      12.652    
  10.280      8.4264      6.9852      5.8747      5.0285      4.3916      3.9202      3.5821      3.3557      3.2263    
  3.2263      3.2683      3.3978      3.6244      3.9626      4.4339      5.0701      5.9149      7.0228      8.4600    
  10.308      12.670      15.682      19.520      24.392      30.512      38.067      47.196      58.000      70.445    
  83.110      93.313      98.197      95.243      82.898      61.236      32.451     0.84891     -27.876     -47.980    
 -55.204     -47.980     -27.876     0.84891      32.451      61.236      82.898      95.243      98.197      93.313    
  83.110      70.445      58.000      47.196      38.067      30.512      24.392      19.520      15.682      12.670    
  10.308      8.4600      7.0228      5.9149      5.0701      4.4339      3.9626      3.6244      3.3978      3.2683    
  3.3557      3.3978      3.5278      3.7547      4.0930      4.5636      5.1978      6.0380      7.1381      8.5628    
  10.392      12.725      15.693      19.466      24.244      30.236      37.622      46.537      57.073      69.235    
  81.879      92.499      98.387      97.148      87.282      68.792      43.626      15.670     -9.9084     -27.876    
 -34.344     -27.876     -9.9084      15.670      43.626      68.792      87.282      97.148      98.387      92.499    
  81.879      69.235      57.073      46.537      37.622      30.236      24.244      19.466      15.693      12.725    
  10.392      8.5628      7.1381      6.0380      5.1978      4.5636      4.0930      3.7547      3.5278      3.3978    
  3.5821      3.6244      3.7547      3.9820      4.3200      4.7891      5.4193      6.2514      7.3376      8.7408    
  10.537      12.821      15.716      19.381      24.004      29.785      36.894      45.459      55.558      67.221    
  79.710      90.827      98.089      99.285      92.995      79.116      59.236      36.623      15.670     0.84891    
 -4.5030     0.84891      15.670      36.623      59.236      79.116      92.995      99.285      98.089      90.827    
  79.710      67.221      55.558      45.459      36.894      29.785      24.004      19.381      15.716      12.821    
  10.537      8.7408      7.3376      6.2514      5.4193      4.7891      4.3200      3.9820      3.7547      3.6244    
  3.9202      3.9626      4.0930      4.3200      4.6569      5.1230      5.7466      6.5663      7.6316      9.0027    
  10.751      12.965      15.757      19.271      23.682      29.173      35.906      43.995      53.506      64.455    
  76.517      87.973      96.618      100.46      98.175      89.531      75.700      59.236      43.626      32.451    
  28.394      32.451      43.626      59.236      75.700      89.531      98.175      100.46      96.618      87.973    
  76.517      64.455      53.506      43.995      35.906      29.173      23.682      19.271      15.757      12.965    
  10.751      9.0027      7.6316      6.5663      5.7466      5.1230      4.6569      4.3200      4.0930      3.9626    
  4.3916      4.4339      4.5636      4.7891      5.1230      5.5835      6.1965      6.9978      8.0337      9.3604    
  11.044      13.165      15.823      19.147      23.292      28.424      34.690      42.194      50.985      61.061    
  72.318      83.722      93.399      99.590      101.06      97.459      89.531      79.116      68.792      61.236    
  58.467      61.236      68.792      79.116      89.531      97.459      101.06      99.590      93.399      83.722    
  72.318      61.061      50.985      42.194      34.690      28.424      23.292      19.147      15.823      13.165    
  11.044      9.3604      8.0337      6.9978      6.1965      5.5835      5.1230      4.7891      4.5636      4.4339    
  5.0285      5.0701      5.1978      5.4193      5.7466      6.1965      6.7925      7.5669      8.5618      9.8291    
  11.429      13.433      15.928      19.024      22.855      27.566      33.290      40.119      48.087      57.175    
  67.310      78.103      88.177      96.010      100.46      101.06      98.175      92.995      87.282      82.898    
  81.261      82.898      87.282      92.995      98.175      101.06      100.46      96.010      88.177      78.103    
  67.310      57.175      48.087      40.119      33.290      27.566      22.855      19.024      15.928      13.433    
  11.429      9.8291      8.5618      7.5669      6.7925      6.1965      5.7466      5.4193      5.1978      5.0701    
  5.8747      5.9149      6.0380      6.2514      6.5663      6.9978      7.5669      8.3019      9.2406      10.430    
  11.923      13.783      16.084      18.917      22.394      26.638      31.762      37.847      44.918      52.945    
  61.839      71.448      81.137      89.671      96.010      99.590      100.46      99.285      97.148      95.243    
  94.493      95.243      97.148      99.285      100.46      99.590      96.010      89.671      81.137      71.448    
  61.839      52.945      44.918      37.847      31.762      26.638      22.394      18.917      16.084      13.783    
  11.923      10.430      9.2406      8.3019      7.5669      6.9978      6.5663      6.2514      6.0380      5.9149    
  6.9852      7.0228      7.1381      7.3376      7.6316      8.0337      8.5618      9.2406      10.103      11.190    
  12.549      14.236      16.312      18.850      21.940      25.680      30.166      35.465      41.596      48.525    
  56.158      64.352      72.893      81.137      88.177      93.399      96.618      98.089      98.387      98.197    
  98.064      98.197      98.387      98.089      96.618      93.399      88.177      81.137      72.893      64.352    
  56.158      48.525      41.596      35.465      30.166      25.680      21.940      18.850      16.312      14.236    
  12.549      11.190      10.103      9.2406      8.5618      8.0337      7.6316      7.3376      7.1381      7.0228    
  8.4264      8.4600      8.5628      8.7408      9.0027      9.3604      9.8291      10.430      11.190      12.145    
  13.339      14.819      16.635      18.847      21.522      24.737      28.565      33.062      38.242      44.073    
  50.465      57.283      64.352      71.448      78.103      83.722      87.973      90.827      92.499      93.313    
  93.548      93.313      92.499      90.827      87.973      83.722      78.103      71.448      64.352      57.283    
  50.465      44.073      38.242      33.062      28.565      24.737      21.522      18.847      16.635      14.819    
  13.339      12.145      11.190      10.430      9.8291      9.3604      9.0027      8.7408      8.5628      8.4600    
  10.280      10.308      10.392      10.537      10.751      11.044      11.429      11.923      12.549      13.339    
  14.330      15.564      17.084      18.938      21.175      23.851      27.020      30.723      34.971      39.735    
  44.939      50.465      56.158      61.839      67.310      72.318      76.517      79.710      81.879      83.110    