GaAs                                    
   4.50000000000000     
     1.211973    0.000000    0.000000
     0.000000    1.211973    0.000000
     0.000000    0.000000    1.211973
   As   Ga
     4     4
Direct
  0.000000  0.000000  0.000000
  0.500000  0.500000  0.000000
  0.500000  0.000000  0.500000
  0.000000  0.500000  0.500000
  0.250000  0.250000  0.250000
  0.750000  0.250000  0.750000
  0.750000  0.750000  0.250000
  0.250000  0.750000  0.750000
 
   60   60   60
 -.62696928117E+02 -.55204492477E+02 -.34343963826E+02 -.45029847142E+01 0.28393875466E+02
 0.58466785473E+02 0.81260732960E+02 0.94493230569E+02 0.98064268449E+02 0.93548162251E+02
 0.83505285219E+02 0.70847527004E+02 0.58312558120E+02 0.47417441702E+02 0.38216227877E+02
 0.30605383565E+02 0.24441839070E+02 0.19537992887E+02 0.15678157071E+02 0.12651676508E+02
 0.10280373225E+02 0.84264163724E+01 0.69851622842E+01 0.58747052760E+01 0.50284799162E+01
 0.43915847711E+01 0.39201865756E+01 0.35821238371E+01 0.33556817372E+01 0.32262547177E+01
 0.31842948432E+01 0.32262547177E+01 0.33556817372E+01 0.35821238371E+01 0.39201865756E+01
 0.43915847711E+01 0.50284799162E+01 0.58747052760E+01 0.69851622842E+01 0.84264163724E+01
 0.10280373225E+02 0.12651676508E+02 0.15678157071E+02 0.19537992887E+02 0.24441839070E+02
 0.30605383565E+02 0.38216227877E+02 0.47417441702E+02 0.58312558120E+02 0.70847527004E+02
 0.83505285219E+02 0.93548162251E+02 0.98064268449E+02 0.94493230569E+02 0.81260732960E+02
 0.58466785473E+02 0.28393875466E+02 -.45029847142E+01 -.34343963826E+02 -.55204492477E+02
 -.55204492477E+02 -.47979949457E+02 -.27876125483E+02 0.84890550809E+00 0.32450781139E+02
 0.61235784365E+02 0.82898258896E+02 0.95243439055E+02 0.98196851881E+02 0.93313261746E+02
 0.83109551578E+02 0.70445389037E+02 0.58000286423E+02 0.47195707593E+02 0.38066652374E+02
 0.30512456119E+02 0.24392067596E+02 0.19519634597E+02 0.15681557108E+02 0.12669576553E+02
 0.10307763644E+02 0.84600125769E+01 0.70228055073E+01 0.59148956447E+01 0.50701113423E+01
 0.44338590476E+01 0.39626050831E+01 0.36244462535E+01 0.33978374885E+01 0.32682695672E+01
 0.32262547177E+01 0.32682695672E+01 0.33978374885E+01 0.36244462535E+01 0.39626050831E+01
 0.44338590476E+01 0.50701113423E+01 0.59148956447E+01 0.70228055073E+01 0.84600125769E+01
 0.10307763644E+02 0.12669576553E+02 0.15681557108E+02 0.19519634597E+02 0.24392067596E+02
 0.30512456119E+02 0.38066652374E+02 0.47195707593E+02 0.58000286423E+02 0.70445389037E+02
 0.83109551578E+02 0.93313261746E+02 0.98196851881E+02 0.95243439055E+02 0.82898258896E+02
 0.61235784365E+02 0.32450781139E+02 0.84890550809E+00 -.27876125483E+02 -.47979949457E+02
 -.34343963826E+02 -.27876125483E+02 -.99084008379E+01 0.15670070901E+02 0.43626156586E+02
 0.68791912479E+02 0.87282025529E+02 0.97148017569E+02 0.98387196087E+02 0.92499453283E+02
 0.81878639268E+02 0.69235182647E+02 0.57072705953E+02 0.46536560881E+02 0.37621870002E+02
 0.30236251021E+02 0.24244464539E+02 0.19465819527E+02 0.15692937484E+02 0.12724653204E+02
 0.10391641307E+02 0.85628494191E+01 0.71380756661E+01 0.60380413932E+01 0.51977765559E+01
 0.45636378825E+01 0.40930023028E+01 0.37547276583E+01 0.35277512740E+01 0.33978374885E+01
 0.33556817372E+01 0.33978374885E+01 0.35277512740E+01 0.37547276583E+01 0.40930023028E+01
 0.45636378825E+01 0.51977765559E+01 0.60380413932E+01 0.71380756661E+01 0.85628494191E+01
 0.10391641307E+02 0.12724653204E+02 0.15692937484E+02 0.19465819527E+02 0.24244464539E+02
 0.30236251021E+02 0.37621870002E+02 0.46536560881E+02 0.57072705953E+02 0.69235182647E+02
 0.81878639268E+02 0.92499453283E+02 0.98387196087E+02 0.97148017569E+02 0.87282025529E+02
 0.68791912479E+02 0.43626156586E+02 0.15670070901E+02 -.99084008379E+01 -.27876125483E+02
 -.45029847142E+01 0.84890550809E+00 0.15670070901E+02 0.36623424392E+02 0.59235993399E+02
 0.79116066210E+02 0.92995173541E+02 0.99285268945E+02 0.98089360086E+02 0.90827351533E+02
 0.79710041147E+02 0.67221149130E+02 0.55558178513E+02 0.45458747414E+02 0.36894242881E+02
 0.29784935581E+02 0.24004484297E+02 0.19380522962E+02 0.15715893848E+02 0.12820941387E+02
 0.10536901546E+02 0.87407561874E+01 0.73376131483E+01 0.62514188290E+01 0.54192519343E+01
 0.47891327229E+01 0.43200035141E+01 0.39819732902E+01 0.37547276583E+01 0.36244462535E+01
 0.35821238371E+01 0.36244462535E+01 0.37547276583E+01 0.39819732902E+01 0.43200035141E+01
 0.47891327229E+01 0.54192519343E+01 0.62514188290E+01 0.73376131483E+01 0.87407561874E+01
 0.10536901546E+02 0.12820941387E+02 0.15715893848E+02 0.19380522962E+02 0.24004484297E+02
 0.29784935581E+02 0.36894242881E+02 0.45458747414E+02 0.55558178513E+02 0.67221149130E+02
 0.79710041147E+02 0.90827351533E+02 0.98089360086E+02 0.99285268945E+02 0.92995173541E+02
 0.79116066210E+02 0.59235993399E+02 0.36623424392E+02 0.15670070901E+02 0.84890550809E+00
 0.28393875466E+02 0.32450781139E+02 0.43626156586E+02 0.59235993399E+02 0.75700046890E+02
 0.89531031805E+02 0.98175095075E+02 0.10046171762E+03 0.96618318564E+02 0.87972647862E+02
 0.76516837511E+02 0.64455282159E+02 0.53505578302E+02 0.43995090619E+02 0.35905845250E+02
 0.29173298954E+02 0.23682041544E+02 0.19270839324E+02 0.15756516148E+02 0.12964891246E+02
 0.10751123078E+02 0.90026758507E+01 0.76316198248E+01 0.65662516817E+01 0.57465688538E+01
 0.51230493467E+01 0.46569098723E+01 0.43200035141E+01 0.40930023028E+01 0.39626050831E+01
 0.39201865756E+01 0.39626050831E+01 0.40930023028E+01 0.43200035141E+01 0.46569098723E+01
 0.51230493467E+01 0.57465688538E+01 0.65662516817E+01 0.76316198248E+01 0.90026758507E+01
 0.10751123078E+02 0.12964891246E+02 0.15756516148E+02 0.19270839324E+02 0.23682041544E+02
 0.29173298954E+02 0.35905845250E+02 0.43995090619E+02 0.53505578302E+02 0.64455282159E+02
 0.76516837511E+02 0.87972647862E+02 0.96618318564E+02 0.10046171762E+03 0.98175095075E+02
 0.89531031805E+02 0.75700046890E+02 0.59235993399E+02 0.43626156586E+02 0.32450781139E+02
 0.58466785473E+02 0.61235784365E+02 0.68791912479E+02 0.79116066210E+02 0.89531031805E+02
 0.97458686724E+02 0.10106154699E+03 0.99589655331E+02 0.93398557264E+02 0.83721862790E+02
 0.72318175475E+02 0.61061369387E+02 0.50985053257E+02 0.42193788144E+02 0.34689748482E+02
 0.28423706130E+02 0.23292091751E+02 0.19147252370E+02 0.15823404567E+02 0.13165181487E+02
 0.11044260737E+02 0.93603539060E+01 0.80336803349E+01 0.69978051056E+01 0.61964983187E+01
 0.55835193875E+01 0.51230493467E+01 0.47891327229E+01 0.45636378825E+01 0.44338590476E+01
 0.43915847711E+01 0.44338590476E+01 0.45636378825E+01 0.47891327229E+01 0.51230493467E+01
 0.55835193875E+01 0.61964983187E+01 0.69978051056E+01 0.80336803349E+01 0.93603539060E+01
 0.11044260737E+02 0.13165181487E+02 0.15823404567E+02 0.19147252370E+02 0.23292091751E+02
 0.28423706130E+02 0.34689748482E+02 0.42193788144E+02 0.50985053257E+02 0.61061369387E+02
 0.72318175475E+02 0.83721862790E+02 0.93398557264E+02 0.99589655331E+02 0.10106154699E+03
 0.97458686724E+02 0.89531031805E+02 0.79116066210E+02 0.68791912479E+02 0.61235784365E+02
 0.81260732960E+02 0.82898258896E+02 0.87282025529E+02 0.92995173541E+02 0.98175095075E+02
 0.10106154699E+03 0.10046251591E+03 0.96010076090E+02 0.88176927092E+02 0.78103037290E+02
 0.67309878793E+02 0.57175484947E+02 0.48086918556E+02 0.40118534389E+02 0.33290348329E+02
 0.27566267728E+02 0.22854669471E+02 0.19023669772E+02 0.15927802689E+02 0.13433012861E+02
 0.11429139999E+02 0.98290824197E+01 0.85618308700E+01 0.75668642940E+01 0.67924922870E+01
 0.61964983187E+01 0.57465688538E+01 0.54192519343E+01 0.51977765559E+01 0.50701113423E+01
 0.50284799162E+01 0.50701113423E+01 0.51977765559E+01 0.54192519343E+01 0.57465688538E+01
 0.61964983187E+01 0.67924922870E+01 0.75668642940E+01 0.85618308700E+01 0.98290824197E+01
 0.11429139999E+02 0.13433012861E+02 0.15927802689E+02 0.19023669772E+02 0.22854669471E+02
 0.27566267728E+02 0.33290348329E+02 0.40118534389E+02 0.48086918556E+02 0.57175484947E+02
 0.67309878793E+02 0.78103037290E+02 0.88176927092E+02 0.96010076090E+02 0.10046251591E+03
 0.10106154699E+03 0.98175095075E+02 0.92995173541E+02 0.87282025529E+02 0.82898258896E+02
 0.94493230569E+02 0.95243439055E+02 0.97148017569E+02 0.99285268945E+02 0.10046171762E+03
 0.99589655331E+02 0.96010076090E+02 0.89671410919E+02 0.81137240331E+02 0.71448038397E+02
 0.61838603830E+02 0.52944522697E+02 0.44918130322E+02 0.37846599668E+02 0.31762006876E+02
 0.26637855496E+02 0.22394381413E+02 0.18917482901E+02 0.16084226916E+02 0.13783240465E+02
 0.11922988203E+02 0.10429530682E+02 0.92406108586E+01 0.83019167332E+01 0.75668642940E+01
 0.69978051056E+01 0.65662516817E+01 0.62514188290E+01 0.60380413932E+01 0.59148956447E+01
 0.58747052760E+01 0.59148956447E+01 0.60380413932E+01 0.62514188290E+01 0.65662516817E+01
 0.69978051056E+01 0.75668642940E+01 0.83019167332E+01 0.92406108586E+01 0.10429530682E+02
 0.11922988203E+02 0.13783240465E+02 0.16084226916E+02 0.18917482901E+02 0.22394381413E+02
 0.26637855496E+02 0.31762006876E+02 0.37846599668E+02 0.44918130322E+02 0.52944522697E+02
 0.61838603830E+02 0.71448038397E+02 0.81137240331E+02 0.89671410919E+02 0.96010076090E+02
 0.99589655331E+02 0.10046171762E+03 0.99285268945E+02 0.97148017569E+02 0.95243439055E+02
 0.98064268449E+02 0.98196851881E+02 0.98387196087E+02 0.98089360086E+02 0.96618318564E+02
 0.93398557264E+02 0.88176927092E+02 0.81137240331E+02 0.72892677898E+02 0.64351563046E+02
 0.56157561804E+02 0.48524846170E+02 0.41596422372E+02 0.35464505267E+02 0.30165830857E+02
 0.25680084271E+02 0.21939654079E+02 0.18849940931E+02 0.16311684733E+02 0.14236107263E+02
 0.12549382200E+02 0.11189678445E+02 0.10102823125E+02 0.92406108586E+01 0.85618308700E+01
 0.80336803349E+01 0.76316198248E+01 0.73376131483E+01 0.71380756661E+01 0.70228055073E+01
 0.69851622842E+01 0.70228055073E+01 0.71380756661E+01 0.73376131483E+01 0.76316198248E+01
 0.80336803349E+01 0.85618308700E+01 0.92406108586E+01 0.10102823125E+02 0.11189678445E+02
 0.12549382200E+02 0.14236107263E+02 0.16311684733E+02 0.18849940931E+02 0.21939654079E+02
 0.25680084271E+02 0.30165830857E+02 0.35464505267E+02 0.41596422372E+02 0.48524846170E+02
 0.56157561804E+02 0.64351563046E+02 0.72892677898E+02 0.81137240331E+02 0.88176927092E+02
 0.93398557264E+02 0.96618318564E+02 0.98089360086E+02 0.98387196087E+02 0.98196851881E+02
 0.93548162251E+02 0.93313261746E+02 0.92499453283E+02 0.90827351533E+02 0.87972647862E+02
 0.83721862790E+02 0.78103037290E+02 0.71448038397E+02 0.64351563046E+02 0.57282871265E+02
 0.50464578424E+02 0.44072747124E+02 0.38242464917E+02 0.33061598343E+02 0.28565063632E+02
 0.24736736707E+02 0.21521974982E+02 0.18846680018E+02 0.16634865719E+02 0.14818547895E+02
 0.13339291892E+02 0.12145420545E+02 0.11189678445E+02 0.10429530682E+02 0.98290824197E+01
 0.93603539060E+01 0.90026758507E+01 0.87407561874E+01 0.85628494191E+01 0.84600125769E+01
 0.84264163724E+01 0.84600125769E+01 0.85628494191E+01 0.87407561874E+01 0.90026758507E+01
 0.93603539060E+01 0.98290824197E+01 0.10429530682E+02 0.11189678445E+02 0.12145420545E+02
 0.13339291892E+02 0.14818547895E+02 0.16634865719E+02 0.18846680018E+02 0.21521974982E+02
 0.24736736707E+02 0.28565063632E+02 0.33061598343E+02 0.38242464917E+02 0.44072747124E+02
 0.50464578424E+02 0.57282871265E+02 0.64351563046E+02 0.71448038397E+02 0.78103037290E+02
 0.83721862790E+02 0.87972647862E+02 0.90827351533E+02 0.92499453283E+02 0.93313261746E+02
 0.83505285219E+02 0.83109551578E+02 0.81878639268E+02 0.79710041147E+02 0.76516837511E+02
 0.72318175475E+02 0.67309878793E+02 0.61838603830E+02 0.56157561804E+02 0.50464578424E+02
 0.44939152128E+02 0.39734837352E+02 0.34970613377E+02 0.30722516896E+02 0.27020055191E+02
 0.23851159614E+02 0.21175029108E+02 0.18937712048E+02 0.17084210598E+02 0.15563861451E+02
 0.14330217253E+02 0.13339291892E+02 0.12549382200E+02 0.11922988203E+02 0.11429139999E+02
 0.11044260737E+02 0.10751123078E+02 0.10536901546E+02 0.10391641307E+02 0.10307763644E+02
 0.10280373225E+02 0.10307763644E+02 0.10391641307E+02 0.10536901546E+02 0.10751123078E+02
 0.11044260737E+02 0.11429139999E+02 0.11922988203E+02 0.12549382200E+02 0.13339291892E+02
 0.14330217253E+02 0.15563861451E+02 0.17084210598E+02 0.18937712048E+02 0.21175029108E+02
 0.23851159614E+02 0.27020055191E+02 0.30722516896E+02 0.34970613377E+02 0.39734837352E+02
 0.44939152128E+02 0.50464578424E+02 0.56157561804E+02 0.61838603830E+02 0.67309878793E+02
 0.72318175475E+02 0.76516837511E+02 0.79710041147E+02 0.81878639268E+02 0.83109551578E+02
 0.70847527004E+02 0.70445389037E+02 0.69235182647E+02 0.67221149130E+02 0.64455282159E+02
 0.61061369387E+02 0.57175484947E+02 0.52944522697E+02 0.48524846170E+02 0.44072747124E+02
 0.39734837352E+02 0.35637952794E+02 0.31879377632E+02 0.28520064025E+02 0.25583898912E+02
 0.23063964175E+02 0.20933376129E+02 0.19156142967E+02 0.17694168966E+02 0.16509496794E+02
 0.15563861451E+02 0.14818547895E+02 0.14236107263E+02 0.13783240465E+02 0.13433012861E+02
 0.13165181487E+02 0.12964891246E+02 0.12820941387E+02 0.12724653204E+02 0.12669576553E+02
 0.12651676508E+02 0.12669576553E+02 0.12724653204E+02 0.12820941387E+02 0.12964891246E+02
 0.13165181487E+02 0.13433012861E+02 0.13783240465E+02 0.14236107263E+02 0.14818547895E+02
 0.15563861451E+02 0.16509496794E+02 0.17694168966E+02 0.19156142967E+02 0.20933376129E+02
 0.23063964175E+02 0.25583898912E+02 0.28520064025E+02 0.31879377632E+02 0.35637952794E+02
 0.39734837352E+02 0.44072747124E+02 0.48524846170E+02 0.52944522697E+02 0.57175484947E+02
 0.61061369387E+02 0.64455282159E+02 0.67221149130E+02 0.69235182647E+02 0.70445389037E+02
 0.58312558120E+02 0.58000286423E+02 0.57072705953E+02 0.55558178513E+02 0.53505578302E+02
 0.50985053257E+02 0.48086918556E+02 0.44918130322E+02 0.41596422372E+02 0.38242464917E+02
 0.34970613377E+02 0.31879377632E+02 0.29043539444E+02 0.26510130394E+02 0.24299549846E+02
 0.22411113972E+02 0.20830434366E+02 0.19535556076E+02 0.18500137166E+02 0.17694168966E+02
 0.17084210598E+02 0.16634865719E+02 0.16311684733E+02 0.16084226916E+02 0.15927802689E+02
 0.15823404567E+02 0.15756516148E+02 0.15715893848E+02 0.15692937484E+02 0.15681557108E+02
 0.15678157071E+02 0.15681557108E+02 0.15692937484E+02 0.15715893848E+02 0.15756516148E+02
 0.15823404567E+02 0.15927802689E+02 0.16084226916E+02 0.16311684733E+02 0.16634865719E+02
 0.17084210598E+02 0.17694168966E+02 0.18500137166E+02 0.19535556076E+02 0.20830434366E+02
 0.22411113972E+02 0.24299549846E+02 0.26510130394E+02 0.29043539444E+02 0.31879377632E+02
 0.34970613377E+02 0.38242464917E+02 0.41596422372E+02 0.44918130322E+02 0.48086918556E+02
 0.50985053257E+02 0.53505578302E+02 0.55558178513E+02 0.57072705953E+02 0.58000286423E+02
 0.47417441702E+02 0.47195707593E+02 0.46536560881E+02 0.45458747414E+02 0.43995090619E+02
 0.42193788144E+02 0.40118534389E+02 0.37846599668E+02 0.35464505267E+02 0.33061598343E+02
 0.30722516896E+02 0.28520064025E+02 0.26510130394E+02 0.24729799169E+02 0.23198685292E+02
 0.21922350314E+02 0.20895981754E+02 0.20106889981E+02 0.19535556076E+02 0.19156142967E+02
 0.18937712048E+02 0.18846680018E+02 0.18849940931E+02 0.18917482901E+02 0.19023669772E+02
 0.19147252370E+02 0.19270839324E+02 0.19380522962E+02 0.19465819527E+02 0.19519634597E+02
 0.19537992887E+02 0.19519634597E+02 0.19465819527E+02 0.19380522962E+02 0.19270839324E+02
 0.19147252370E+02 0.19023669772E+02 0.18917482901E+02 0.18849940931E+02 0.18846680018E+02
 0.18937712048E+02 0.19156142967E+02 0.19535556076E+02 0.20106889981E+02 0.20895981754E+02
 0.21922350314E+02 0.23198685292E+02 0.24729799169E+02 0.26510130394E+02 0.28520064025E+02
 0.30722516896E+02 0.33061598343E+02 0.35464505267E+02 0.37846599668E+02 0.40118534389E+02
 0.42193788144E+02 0.43995090619E+02 0.45458747414E+02 0.46536560881E+02 0.47195707593E+02
 0.38216227877E+02 0.38066652374E+02 0.37621870002E+02 0.36894242881E+02 0.35905845250E+02
 0.34689748482E+02 0.33290348329E+02 0.31762006876E+02 0.30165830857E+02 0.28565063632E+02
 0.27020055191E+02 0.25583898912E+02 0.24299549846E+02 0.23198685292E+02 0.22301959593E+02
 0.21619908908E+02 0.21153779628E+02 0.20895981754E+02 0.20830434366E+02 0.20933376129E+02
 0.21175029108E+02 0.21521974982E+02 0.21939654079E+02 0.22394381413E+02 0.22854669471E+02
 0.23292091751E+02 0.23682041544E+02 0.24004484297E+02 0.24244464539E+02 0.24392067596E+02
 0.24441839070E+02 0.24392067596E+02 0.24244464539E+02 0.24004484297E+02 0.23682041544E+02
 0.23292091751E+02 0.22854669471E+02 0.22394381413E+02 0.21939654079E+02 0.21521974982E+02
 0.21175029108E+02 0.20933376129E+02 0.20830434366E+02 0.20895981754E+02 0.21153779628E+02
 0.21619908908E+02 0.22301959593E+02 0.23198685292E+02 0.24299549846E+02 0.25583898912E+02
 0.27020055191E+02 0.28565063632E+02 0.30165830857E+02 0.31762006876E+02 0.33290348329E+02
 0.34689748482E+02 0.35905845250E+02 0.36894242881E+02 0.37621870002E+02 0.38066652374E+02
 0.30605383565E+02 0.30512456119E+02 0.30236251021E+02 0.29784935581E+02 0.29173298954E+02
 0.28423706130E+02 0.27566267728E+02 0.26637855496E+02 0.25680084271E+02 0.24736736707E+02
 0.23851159614E+02 0.23063964175E+02 0.22411113972E+02 0.21922350314E+02 0.21619908908E+02
 0.21517543457E+02 0.21619908908E+02 0.21922350314E+02 0.22411113972E+02 0.23063964175E+02
 0.23851159614E+02 0.24736736707E+02 0.25680084271E+02 0.26637855496E+02 0.27566267728E+02
 0.28423706130E+02 0.29173298954E+02 0.29784935581E+02 0.30236251021E+02 0.30512456119E+02
 0.30605383565E+02 0.30512456119E+02 0.30236251021E+02 0.29784935581E+02 0.29173298954E+02
 0.28423706130E+02 0.27566267728E+02 0.26637855496E+02 0.25680084271E+02 0.24736736707E+02
 0.23851159614E+02 0.23063964175E+02 0.22411113972E+02 0.21922350314E+02 0.21619908908E+02
 0.21517543457E+02 0.21619908908E+02 0.21922350314E+02 0.22411113972E+02 0.23063964175E+02
 0.23851159614E+02 0.24736736707E+02 0.25680084271E+02 0.26637855496E+02 0.27566267728E+02
 0.28423706130E+02 0.29173298954E+02 0.29784935581E+02 0.30236251021E+02 0.30512456119E+02
 0.24441839070E+02 0.24392067596E+02 0.24244464539E+02 0.24004484297E+02 0.23682041544E+02
 0.23292091751E+02 0.22854669471E+02 0.22394381413E+02 0.21939654079E+02 0.21521974982E+02
 0.21175029108E+02 0.20933376129E+02 0.20830434366E+02 0.20895981754E+02 0.21153779628E+02
 0.21619908908E+02 0.22301959593E+02 0.23198685292E+02 0.24299549846E+02 0.25583898912E+02
 0.27020055191E+02 0.28565063632E+02 0.30165830857E+02 0.31762006876E+02 0.33290348329E+02
 0.34689748482E+02 0.35905845250E+02 0.36894242881E+02 0.37621870002E+02 0.38066652374E+02
 0.38216227877E+02 0.38066652374E+02 0.37621870002E+02 0.36894242881E+02 0.35905845250E+02
 0.34689748482E+02 0.33290348329E+02 0.31762006876E+02 0.30165830857E+02 0.28565063632E+02
 0.27020055191E+02 0.25583898912E+02 0.24299549846E+02 0.23198685292E+02 0.22301959593E+02
 0.21619908908E+02 0.21153779628E+02 0.20895981754E+02 0.20830434366E+02 0.20933376129E+02
 0.21175029108E+02 0.21521974982E+02 0.21939654079E+02 0.22394381413E+02 0.22854669471E+02
 0.23292091751E+02 0.23682041544E+02 0.24004484297E+02 0.24244464539E+02 0.24392067596E+02
 0.19537992887E+02 0.19519634597E+02 0.19465819527E+02 0.19380522962E+02 0.19270839324E+02
 0.19147252370E+02 0.19023669772E+02 0.18917482901E+02 0.18849940931E+02 0.18846680018E+02
 0.18937712048E+02 0.19156142967E+02 0.19535556076E+02 0.20106889981E+02 0.20895981754E+02
 0.21922350314E+02 0.23198685292E+02 0.24729799169E+02 0.26510130394E+02 0.28520064025E+02
 0.30722516896E+02 0.33061598343E+02 0.35464505267E+02 0.37846599668E+02 0.40118534389E+02
 0.42193788144E+02 0.43995090619E+02 0.45458747414E+02 0.46536560881E+02 0.47195707593E+02
 0.47417441702E+02 0.47195707593E+02 0.46536560881E+02 0.45458747414E+02 0.43995090619E+02
 0.42193788144E+02 0.40118534389E+02 0.37846599668E+02 0.35464505267E+02 0.33061598343E+02
 0.30722516896E+02 0.28520064025E+02 0.26510130394E+02 0.24729799169E+02 0.23198685292E+02
 0.21922350314E+02 0.20895981754E+02 0.20106889981E+02 0.19535556076E+02 0.19156142967E+02
 0.18937712048E+02 0.18846680018E+02 0.18849940931E+02 0.18917482901E+02 0.19023669772E+02
 0.19147252370E+02 0.19270839324E+02 0.19380522962E+02 0.19465819527E+02 0.19519634597E+02
 0.15678157071E+02 0.15681557108E+02 0.15692937484E+02 0.15715893848E+02 0.15756516148E+02
 0.15823404567E+02 0.15927802689E+02 0.16084226916E+02 0.16311684733E+02 0.16634865719E+02
 0.17084210598E+02 0.17694168966E+02 0.18500137166E+02 0.19535556076E+02 0.20830434366E+02
 0.22411113972E+02 0.24299549846E+02 0.26510130394E+02 0.29043539444E+02 0.31879377632E+02
 0.34970613377E+02 0.38242464917E+02 0.41596422372E+02 0.44918130322E+02 0.48086918556E+02
 0.50985053257E+02 0.53505578302E+02 0.55558178513E+02 0.57072705953E+02 0.58000286423E+02
 0.58312558120E+02 0.58000286423E+02 0.57072705953E+02 0.55558178513E+02 0.53505578302E+02
 0.50985053257E+02 0.48086918556E+02 0.44918130322E+02 0.41596422372E+02 0.38242464917E+02
 0.34970613377E+02 0.31879377632E+02 0.29043539444E+02 0.26510130394E+02 0.24299549846E+02
 0.22411113972E+02 0.20830434366E+02 0.19535556076E+02 0.18500137166E+02 0.17694168966E+02
 0.17084210598E+02 0.16634865719E+02 0.16311684733E+02 0.16084226916E+02 0.15927802689E+02
 0.15823404567E+02 0.15756516148E+02 0.15715893848E+02 0.15692937484E+02 0.15681557108E+02
 0.12651676508E+02 0.12669576553E+02 0.12724653204E+02 0.12820941387E+02 0.12964891246E+02
 0.13165181487E+02 0.13433012861E+02 0.13783240465E+02 0.14236107263E+02 0.14818547895E+02
 0.15563861451E+02 0.16509496794E+02 0.17694168966E+02 0.19156142967E+02 0.20933376129E+02
 0.23063964175E+02 0.25583898912E+02 0.28520064025E+02 0.31879377632E+02 0.35637952794E+02
 0.39734837352E+02 0.44072747124E+02 0.48524846170E+02 0.52944522697E+02 0.57175484947E+02
 0.61061369387E+02 0.64455282159E+02 0.67221149130E+02 0.69235182647E+02 0.70445389037E+02
 0.70847527004E+02 0.70445389037E+02 0.69235182647E+02 0.67221149130E+02 0.64455282159E+02
 0.61061369387E+02 0.57175484947E+02 0.52944522697E+02 0.48524846170E+02 0.44072747124E+02
 0.39734837352E+02 0.35637952794E+02 0.31879377632E+02 0.28520064025E+02 0.25583898912E+02
 0.23063964175E+02 0.20933376129E+02 0.19156142967E+02 0.17694168966E+02 0.16509496794E+02
 0.15563861451E+02 0.14818547895E+02 0.14236107263E+02 0.13783240465E+02 0.13433012861E+02
 0.13165181487E+02 0.12964891246E+02 0.12820941387E+02 0.12724653204E+02 0.12669576553E+02
 0.10280373225E+02 0.10307763644E+02 0.10391641307E+02 0.10536901546E+02 0.10751123078E+02
 0.11044260737E+02 0.11429139999E+02 0.11922988203E+02 0.12549382200E+02 0.13339291892E+02
 0.14330217253E+02 0.15563861451E+02 0.17084210598E+02 0.18937712048E+02 0.21175029108E+02
 0.23851159614E+02 0.27020055191E+02 0.30722516896E+02 0.34970613377E+02 0.39734837352E+02
 0.44939152128E+02 0.50464578424E+02 0.56157561804E+02 0.61838603830E+02 0.67309878793E+02
 0.72318175475E+02 0.76516837511E+02 0.79710041147E+02 0.81878639268E+02 0.83109551578E+02
 0.83505285219E+02 0.83109551578E+02 0.81878639268E+02 0.79710041147E+02 0.76516837511E+02
 0.72318175475E+02 0.67309878793E+02 0.61838603830E+02 0.56157561804E+02 0.50464578424E+02
 0.44939152128E+02 0.39734837352E+02 0.34970613377E+02 0.30722516896E+02 0.27020055191E+02
 0.23851159614E+02 0.21175029108E+02 0.18937712048E+02 0.17084210598E+02 0.15563861451E+02
 0.14330217253E+02 0.13339291892E+02 0.12549382200E+02 0.11922988203E+02 0.11429139999E+02
 0.11044260737E+02 0.10751123078E+02 0.10536901546E+02 0.10391641307E+02 0.10307763644E+02
 0.84264163724E+01 0.84600125769E+01 0.85628494191E+01 0.87407561874E+01 0.90026758507E+01
 0.93603539060E+01 0.98290824197E+01 0.10429530682E+02 0.11189678445E+02 0.12145420545E+02
 0.13339291892E+02 0.14818547895E+02 0.16634865719E+02 0.18846680018E+02 0.21521974982E+02
 0.24736736707E+02 0.28565063632E+02 0.33061598343E+02 0.38242464917E+02 0.44072747124E+02
 0.50464578424E+02 0.57282871265E+02 0.64351563046E+02 0.71448038397E+02 0.78103037290E+02
 0.83721862790E+02 0.87972647862E+02 0.90827351533E+02 0.92499453283E+02 0.93313261746E+02
 0.93548162251E+02 0.93313261746E+02 0.92499453283E+02 0.90827351533E+02 0.87972647862E+02
 0.83721862790E+02 0.78103037290E+02 0.71448038397E+02 0.64351563046E+02 0.57282871265E+02
 0.50464578424E+02 0.44072747124E+02 0.38242464917E+02 0.33061598343E+02 0.28565063632E+02
 0.24736736707E+02 0.21521974982E+02 0.18846680018E+02 0.16634865719E+02 0.14818547895E+02
 0.13339291892E+02 0.12145420545E+02 0.11189678445E+02 0.10429530682E+02 0.98290824197E+01
 0.93603539060E+01 0.90026758507E+01 0.87407561874E+01 0.85628494191E+01 0.84600125769E+01
 0.69851622842E+01 0.70228055073E+01 0.71380756661E+01 0.73376131483E+01 0.76316198248E+01
 0.80336803349E+01 0.85618308700E+01 0.92406108586E+01 0.10102823125E+02 0.11189678445E+02
 0.12549382200E+02 0.14236107263E+02 0.16311684733E+02 0.18849940931E+02 0.21939654079E+02
 0.25680084271E+02 0.30165830857E+02 0.35464505267E+02 0.41596422372E+02 0.48524846170E+02
 0.56157561804E+02 0.64351563046E+02 0.72892677898E+02 0.81137240331E+02 0.88176927092E+02
 0.93398557264E+02 0.96618318564E+02 0.98089360086E+02 0.98387196087E+02 0.98196851881E+02
 0.98064268449E+02 0.98196851881E+02 0.98387196087E+02 0.98089360086E+02 0.96618318564E+02
 0.93398557264E+02 0.88176927092E+02 0.81137240331E+02 0.72892677898E+02 0.64351563046E+02
 0.56157561804E+02 0.48524846170E+02 0.41596422372E+02 0.35464505267E+02 0.30165830857E+02
 0.25680084271E+02 0.21939654079E+02 0.18849940931E+02 0.16311684733E+02 0.14236107263E+02
 0.12549382200E+02 0.11189678445E+02 0.10102823125E+02 0.92406108586E+01 0.85618308700E+01
 0.80336803349E+01 0.76316198248E+01 0.73376131483E+01 0.71380756661E+01 0.70228055073E+01
 0.58747052760E+01 0.59148956447E+01 0.60380413932E+01 0.62514188290E+01 0.65662516817E+01
 0.69978051056E+01 0.75668642940E+01 0.83019167332E+01 0.92406108586E+01 0.10429530682E+02
 0.11922988203E+02 0.13783240465E+02 0.16084226916E+02 0.18917482901E+02 0.22394381413E+02
 0.26637855496E+02 0.31762006876E+02 0.37846599668E+02 0.44918130322E+02 0.52944522697E+02
 0.61838603830E+02 0.71448038397E+02 0.81137240331E+02 0.89671410919E+02 0.96010076090E+02
 0.99589655331E+02 0.10046171762E+03 0.99285268945E+02 0.97148017569E+02 0.95243439055E+02
 0.94493230569E+02 0.95243439055E+02 0.97148017569E+02 0.99285268945E+02 0.10046171762E+03
 0.99589655331E+02 0.96010076090E+02 0.89671410919E+02 0.81137240331E+02 0.71448038397E+02
 0.61838603830E+02 0.52944522697E+02 0.44918130322E+02 0.37846599668E+02 0.31762006876E+02
 0.26637855496E+02 0.22394381413E+02 0.18917482901E+02 0.16084226916E+02 0.13783240465E+02
 0.11922988203E+02 0.10429530682E+02 0.92406108586E+01 0.83019167332E+01 0.75668642940E+01
 0.69978051056E+01 0.65662516817E+01 0.62514188290E+01 0.60380413932E+01 0.59148956447E+01
 0.50284799162E+01 0.50701113423E+01 0.51977765559E+01 0.54192519343E+01 0.57465688538E+01
 0.61964983187E+01 0.67924922870E+01 0.75668642940E+01 0.85618308700E+01 0.98290824197E+01
 0.11429139999E+02 0.13433012861E+02 0.15927802689E+02 0.19023669772E+02 0.22854669471E+02
 0.27566267728E+02 0.33290348329E+02 0.40118534389E+02 0.48086918556E+02 0.57175484947E+02
 0.67309878793E+02 0.78103037290E+02 0.88176927092E+02 0.96010076090E+02 0.10046251591E+03
 0.10106154699E+03 0.98175095075E+02 0.92995173541E+02 0.87282025529E+02 0.82898258896E+02
 0.81260732960E+02 0.82898258896E+02 0.87282025529E+02 0.92995173541E+02 0.98175095075E+02
 0.10106154699E+03 0.10046251591E+03 0.96010076090E+02 0.88176927092E+02 0.78103037290E+02
 0.67309878793E+02 0.57175484947E+02 0.48086918556E+02 0.40118534389E+02 0.33290348329E+02
 0.27566267728E+02 0.22854669471E+02 0.19023669772E+02 0.15927802689E+02 0.13433012861E+02
 0.11429139999E+02 0.98290824197E+01 0.85618308700E+01 0.75668642940E+01 0.67924922870E+01
 0.61964983187E+01 0.57465688538E+01 0.54192519343E+01 0.51977765559E+01 0.50701113423E+01
 0.43915847711E+01 0.44338590476E+01 0.45636378825E+01 0.47891327229E+01 0.51230493467E+01
 0.55835193875E+01 0.61964983187E+01 0.69978051056E+01 0.80336803349E+01 0.93603539060E+01
 0.11044260737E+02 0.13165181487E+02 0.15823404567E+02 0.19147252370E+02 0.23292091751E+02
 0.28423706130E+02 0.34689748482E+02 0.42193788144E+02 0.50985053257E+02 0.61061369387E+02
 0.72318175475E+02 0.83721862790E+02 0.93398557264E+02 0.99589655331E+02 0.10106154699E+03
 0.97458686724E+02 0.89531031805E+02 0.79116066210E+02 0.68791912479E+02 0.61235784365E+02
 0.58466785473E+02 0.61235784365E+02 0.68791912479E+02 0.79116066210E+02 0.89531031805E+02
 0.97458686724E+02 0.10106154699E+03 0.99589655331E+02 0.93398557264E+02 0.83721862790E+02
 0.72318175475E+02 0.61061369387E+02 0.50985053257E+02 0.42193788144E+02 0.34689748482E+02
 0.28423706130E+02 0.23292091751E+02 0.19147252370E+02 0.15823404567E+02 0.13165181487E+02
 0.11044260737E+02 0.93603539060E+01 0.80336803349E+01 0.69978051056E+01 0.61964983187E+01
 0.55835193875E+01 0.51230493467E+01 0.47891327229E+01 0.45636378825E+01 0.44338590476E+01
 0.39201865756E+01 0.39626050831E+01 0.40930023028E+01 0.43200035141E+01 0.46569098723E+01
 0.51230493467E+01 0.57465688538E+01 0.65662516817E+01 0.76316198248E+01 0.90026758507E+01
 0.10751123078E+02 0.12964891246E+02 0.15756516148E+02 0.19270839324E+02 0.23682041544E+02
 0.29173298954E+02 0.35905845250E+02 0.43995090619E+02 0.53505578302E+02 0.64455282159E+02
 0.76516837511E+02 0.87972647862E+02 0.96618318564E+02 0.10046171762E+03 0.98175095075E+02
 0.89531031805E+02 0.75700046890E+02 0.59235993399E+02 0.43626156586E+02 0.32450781139E+02
 0.28393875466E+02 0.32450781139E+02 0.43626156586E+02 0.59235993399E+02 0.75700046890E+02
 0.89531031805E+02 0.98175095075E+02 0.10046171762E+03 0.96618318564E+02 0.87972647862E+02
 0.76516837511E+02 0.64455282159E+02 0.53505578302E+02 0.43995090619E+02 0.35905845250E+02
 0.29173298954E+02 0.23682041544E+02 0.19270839324E+02 0.15756516148E+02 0.12964891246E+02
 0.10751123078E+02 0.90026758507E+01 0.76316198248E+01 0.65662516817E+01 0.57465688538E+01
 0.51230493467E+01 0.46569098723E+01 0.43200035141E+01 0.40930023028E+01 0.39626050831E+01