   8   8   0   0
  0.2027806E+02  0.5453879E-09  0.5453879E-09  0.5453879E-09  0.5000000E-15
  1.000000000000000E-004
  CAR 
 GaAs                                    
      9.95660211    -10.83872573  301      3.72016994      1.00000000
    -10.839  0.0000E+00  0.0000E+00
    -10.769  0.0000E+00  0.0000E+00
    -10.700  0.0000E+00  0.0000E+00
    -10.631  0.0000E+00  0.0000E+00
    -10.561  0.0000E+00  0.0000E+00
    -10.492  0.0000E+00  0.0000E+00
    -10.423  0.0000E+00  0.0000E+00
    -10.354  0.0000E+00  0.0000E+00
    -10.284  0.0000E+00  0.0000E+00
    -10.215  0.0000E+00  0.0000E+00
    -10.146  0.0000E+00  0.0000E+00
    -10.076  0.0000E+00  0.0000E+00
    -10.007  0.0000E+00  0.0000E+00
     -9.938  0.0000E+00  0.0000E+00
     -9.868  0.0000E+00  0.0000E+00
     -9.799  0.2322E-01  0.3077E-03
     -9.730  0.1747E+00  0.6352E-02
     -9.660  0.4635E+00  0.2777E-01
     -9.591  0.7075E+00  0.6919E-01
     -9.522  0.8077E+00  0.1225E+00
     -9.452  0.8339E+00  0.1792E+00
     -9.383  0.9139E+00  0.2394E+00
     -9.314  0.1041E+01  0.3070E+00
     -9.244  0.1179E+01  0.3839E+00
     -9.175  0.1469E+01  0.4719E+00
     -9.106  0.2097E+01  0.5965E+00
     -9.036  0.2504E+01  0.7585E+00
     -8.967  0.2120E+01  0.9183E+00
     -8.898  0.1827E+01  0.1054E+01
     -8.829  0.1817E+01  0.1181E+01
     -8.759  0.1787E+01  0.1306E+01
     -8.690  0.1737E+01  0.1428E+01
     -8.621  0.1666E+01  0.1546E+01
     -8.551  0.1933E+01  0.1696E+01
     -8.482  0.1024E+01  0.1803E+01
     -8.413  0.1115E+01  0.1870E+01
     -8.343  0.1978E+01  0.1976E+01
     -8.274  0.2683E+01  0.2144E+01
     -8.205  0.2834E+01  0.2336E+01
     -8.135  0.3115E+01  0.2540E+01
     -8.066  0.3198E+01  0.2751E+01
     -7.997  0.3450E+01  0.2982E+01
     -7.927  0.6966E+01  0.3400E+01
     -7.858  0.5381E+01  0.3842E+01
     -7.789  0.3849E+01  0.4139E+01
     -7.719  0.3388E+01  0.4366E+01
     -7.650  0.3665E+01  0.4610E+01
     -7.581  0.5092E+01  0.4888E+01
     -7.511  0.6031E+01  0.5294E+01
     -7.442  0.6130E+01  0.5721E+01
     -7.373  0.7123E+01  0.6184E+01
     -7.304  0.6287E+01  0.6656E+01
     -7.234  0.4724E+01  0.7004E+01
     -7.165  0.4359E+01  0.7319E+01
     -7.096  0.4049E+01  0.7612E+01
     -7.026  0.3409E+01  0.7869E+01
     -6.957  0.0000E+00  0.8000E+01
     -6.888  0.0000E+00  0.8000E+01
     -6.818  0.0000E+00  0.8000E+01
     -6.749  0.0000E+00  0.8000E+01
     -6.680  0.0000E+00  0.8000E+01
     -6.610  0.0000E+00  0.8000E+01
     -6.541  0.0000E+00  0.8000E+01
     -6.472  0.0000E+00  0.8000E+01
     -6.402  0.0000E+00  0.8000E+01
     -6.333  0.0000E+00  0.8000E+01
     -6.264  0.0000E+00  0.8000E+01
     -6.194  0.0000E+00  0.8000E+01
     -6.125  0.0000E+00  0.8000E+01
     -6.056  0.0000E+00  0.8000E+01
     -5.986  0.0000E+00  0.8000E+01
     -5.917  0.0000E+00  0.8000E+01
     -5.848  0.0000E+00  0.8000E+01
     -5.779  0.0000E+00  0.8000E+01
     -5.709  0.0000E+00  0.8000E+01
     -5.640  0.0000E+00  0.8000E+01
     -5.571  0.0000E+00  0.8000E+01
     -5.501  0.0000E+00  0.8000E+01
     -5.432  0.0000E+00  0.8000E+01
     -5.363  0.0000E+00  0.8000E+01
     -5.293  0.0000E+00  0.8000E+01
     -5.224  0.0000E+00  0.8000E+01
     -5.155  0.0000E+00  0.8000E+01
     -5.085  0.0000E+00  0.8000E+01
     -5.016  0.0000E+00  0.8000E+01
     -4.947  0.0000E+00  0.8000E+01
     -4.877  0.0000E+00  0.8000E+01
     -4.808  0.0000E+00  0.8000E+01
     -4.739  0.0000E+00  0.8000E+01
     -4.669  0.0000E+00  0.8000E+01
     -4.600  0.0000E+00  0.8000E+01
     -4.531  0.0000E+00  0.8000E+01
     -4.461  0.0000E+00  0.8000E+01
     -4.392  0.0000E+00  0.8000E+01
     -4.323  0.0000E+00  0.8000E+01
     -4.254  0.0000E+00  0.8000E+01
     -4.184  0.0000E+00  0.8000E+01
     -4.115  0.0000E+00  0.8000E+01
     -4.046  0.0000E+00  0.8000E+01
     -3.976  0.0000E+00  0.8000E+01
     -3.907  0.0000E+00  0.8000E+01
     -3.838  0.0000E+00  0.8000E+01
     -3.768  0.0000E+00  0.8000E+01
     -3.699  0.0000E+00  0.8000E+01
     -3.630  0.0000E+00  0.8000E+01
     -3.560  0.5173E+00  0.8011E+01
     -3.491  0.1449E+01  0.8086E+01
     -3.422  0.1992E+01  0.8198E+01
     -3.352  0.6376E+01  0.8515E+01
     -3.283  0.9200E+01  0.9031E+01
     -3.214  0.1143E+02  0.9860E+01
     -3.144  0.7910E+01  0.1040E+02
     -3.075  0.7261E+01  0.1096E+02
     -3.006  0.5579E+01  0.1140E+02
     -2.937  0.4646E+01  0.1176E+02
     -2.867  0.3497E+01  0.1204E+02
     -2.798  0.2492E+01  0.1222E+02
     -2.729  0.2429E+01  0.1239E+02
     -2.659  0.2369E+01  0.1256E+02
     -2.590  0.2313E+01  0.1272E+02
     -2.521  0.2261E+01  0.1288E+02
     -2.451  0.2213E+01  0.1303E+02
     -2.382  0.2168E+01  0.1319E+02
     -2.313  0.1756E+01  0.1333E+02
     -2.243  0.1729E+01  0.1345E+02
     -2.174  0.1698E+01  0.1357E+02
     -2.105  0.1655E+01  0.1369E+02
     -2.035  0.1606E+01  0.1380E+02
     -1.966  0.1547E+01  0.1391E+02
     -1.897  0.1483E+01  0.1401E+02
     -1.827  0.1414E+01  0.1411E+02
     -1.758  0.1341E+01  0.1421E+02
     -1.689  0.1263E+01  0.1430E+02
     -1.619  0.1240E+01  0.1439E+02
     -1.550  0.1135E+01  0.1447E+02
     -1.481  0.1046E+01  0.1455E+02
     -1.412  0.9712E+00  0.1462E+02
     -1.342  0.7879E+00  0.1468E+02
     -1.273  0.8386E+00  0.1474E+02
     -1.204  0.8939E+00  0.1480E+02
     -1.134  0.9539E+00  0.1486E+02
     -1.065  0.1018E+01  0.1493E+02
     -0.996  0.1100E+01  0.1500E+02
     -0.926  0.1256E+01  0.1508E+02
     -0.857  0.1459E+01  0.1518E+02
     -0.788  0.1382E+01  0.1528E+02
     -0.718  0.1432E+01  0.1538E+02
     -0.649  0.1613E+01  0.1548E+02
     -0.580  0.1873E+01  0.1560E+02
     -0.510  0.2199E+01  0.1574E+02
     -0.441  0.2489E+01  0.1590E+02
     -0.372  0.4400E+01  0.1619E+02
     -0.302  0.4548E+01  0.1651E+02
     -0.233  0.7471E+01  0.1698E+02
     -0.164  0.6158E+01  0.1746E+02
     -0.094  0.5000E+01  0.1783E+02
     -0.025  0.4665E+01  0.1816E+02
      0.044  0.4334E+01  0.1848E+02
      0.113  0.3852E+01  0.1876E+02
      0.183  0.3715E+01  0.1902E+02
      0.252  0.4042E+01  0.1928E+02
      0.321  0.4992E+01  0.1959E+02
      0.391  0.3579E+01  0.1984E+02
      0.460  0.3711E+01  0.2009E+02
      0.529  0.3971E+01  0.2036E+02
      0.599  0.4308E+01  0.2064E+02
      0.668  0.5725E+01  0.2101E+02
      0.737  0.7275E+01  0.2147E+02
      0.807  0.6553E+01  0.2196E+02
      0.876  0.7093E+01  0.2240E+02
      0.945  0.6785E+01  0.2290E+02
      1.015  0.5998E+01  0.2335E+02
      1.084  0.5118E+01  0.2373E+02
      1.153  0.4174E+01  0.2405E+02
      1.223  0.4149E+01  0.2434E+02
      1.292  0.4037E+01  0.2462E+02
      1.361  0.4149E+01  0.2490E+02
      1.431  0.4755E+01  0.2521E+02
      1.500  0.5208E+01  0.2556E+02
      1.569  0.5545E+01  0.2598E+02
      1.638  0.4885E+01  0.2631E+02
      1.708  0.5128E+01  0.2666E+02
      1.777  0.6235E+01  0.2703E+02
      1.846  0.8308E+01  0.2748E+02
      1.916  0.6517E+01  0.2799E+02
      1.985  0.4659E+01  0.2833E+02
      2.054  0.4090E+01  0.2864E+02
      2.124  0.3534E+01  0.2890E+02
      2.193  0.3026E+01  0.2914E+02
      2.262  0.2224E+01  0.2930E+02
      2.332  0.2157E+01  0.2945E+02
      2.401  0.2780E+01  0.2962E+02
      2.470  0.3436E+01  0.2983E+02
      2.540  0.4691E+01  0.3014E+02
      2.609  0.4690E+01  0.3045E+02
      2.678  0.4640E+01  0.3078E+02
      2.748  0.4428E+01  0.3112E+02
      2.817  0.1636E+01  0.3134E+02
      2.886  0.1450E+01  0.3145E+02
      2.956  0.1269E+01  0.3154E+02
      3.025  0.1092E+01  0.3162E+02
      3.094  0.9209E+00  0.3169E+02
      3.163  0.8313E+00  0.3175E+02
      3.233  0.8914E+00  0.3181E+02
      3.302  0.8504E+00  0.3187E+02
      3.371  0.7084E+00  0.3193E+02
      3.441  0.4653E+00  0.3197E+02
      3.510  0.1365E+00  0.3199E+02
      3.579  0.5505E-01  0.3200E+02
      3.649  0.9949E-02  0.3200E+02
      3.718  0.0000E+00  0.3200E+02
      3.787  0.0000E+00  0.3200E+02
      3.857  0.0000E+00  0.3200E+02
      3.926  0.0000E+00  0.3200E+02
      3.995  0.0000E+00  0.3200E+02
      4.065  0.0000E+00  0.3200E+02
      4.134  0.0000E+00  0.3200E+02
      4.203  0.0000E+00  0.3200E+02
      4.273  0.0000E+00  0.3200E+02
      4.342  0.0000E+00  0.3200E+02
      4.411  0.0000E+00  0.3200E+02
      4.480  0.0000E+00  0.3200E+02
      4.550  0.0000E+00  0.3200E+02
      4.619  0.0000E+00  0.3200E+02
      4.688  0.0000E+00  0.3200E+02
      4.758  0.0000E+00  0.3200E+02
      4.827  0.0000E+00  0.3200E+02
      4.896  0.0000E+00  0.3200E+02
      4.966  0.2134E+00  0.3200E+02
      5.035  0.2688E+00  0.3202E+02
      5.104  0.3397E+00  0.3204E+02
      5.174  0.7668E+00  0.3208E+02
      5.243  0.6663E+00  0.3213E+02
      5.312  0.8221E+00  0.3218E+02
      5.382  0.9818E+00  0.3224E+02
      5.451  0.1098E+01  0.3231E+02
      5.520  0.1243E+01  0.3239E+02
      5.590  0.1442E+01  0.3249E+02
      5.659  0.1771E+01  0.3260E+02
      5.728  0.2534E+01  0.3274E+02
      5.798  0.4355E+01  0.3298E+02
      5.867  0.3306E+01  0.3324E+02
      5.936  0.4920E+01  0.3355E+02
      6.005  0.4784E+01  0.3387E+02
      6.075  0.5422E+01  0.3422E+02
      6.144  0.1013E+02  0.3480E+02
      6.213  0.1134E+02  0.3554E+02
      6.283  0.5052E+01  0.3598E+02
      6.352  0.6649E+01  0.3644E+02
      6.421  0.5268E+01  0.3681E+02
      6.491  0.5059E+01  0.3717E+02
      6.560  0.4374E+01  0.3751E+02
      6.629  0.4252E+01  0.3780E+02
      6.699  0.4172E+01  0.3810E+02
      6.768  0.9379E+01  0.3869E+02
      6.837  0.5765E+01  0.3914E+02
      6.907  0.3814E+01  0.3944E+02
      6.976  0.3656E+01  0.3970E+02
      7.045  0.3554E+01  0.3995E+02
      7.115  0.3468E+01  0.4019E+02
      7.184  0.3387E+01  0.4043E+02
      7.253  0.3311E+01  0.4066E+02
      7.323  0.2944E+01  0.4088E+02
      7.392  0.2573E+01  0.4106E+02
      7.461  0.2499E+01  0.4123E+02
      7.530  0.2519E+01  0.4141E+02
      7.600  0.2729E+01  0.4159E+02
      7.669  0.3006E+01  0.4179E+02
      7.738  0.4317E+01  0.4204E+02
      7.808  0.3925E+01  0.4231E+02
      7.877  0.5785E+01  0.4264E+02
      7.946  0.9059E+01  0.4312E+02
      8.016  0.8183E+01  0.4372E+02
      8.085  0.7046E+01  0.4425E+02
      8.154  0.5524E+01  0.4468E+02
      8.224  0.3987E+01  0.4497E+02
      8.293  0.3225E+01  0.4522E+02
      8.362  0.2862E+01  0.4542E+02
      8.432  0.3270E+01  0.4563E+02
      8.501  0.5320E+01  0.4595E+02
      8.570  0.6425E+01  0.4635E+02
      8.640  0.5571E+01  0.4674E+02
      8.709  0.5139E+01  0.4712E+02
      8.778  0.4370E+01  0.4745E+02
      8.848  0.2957E+01  0.4770E+02
      8.917  0.3062E+01  0.4791E+02
      8.986  0.0000E+00  0.4800E+02
      9.055  0.0000E+00  0.4800E+02
      9.125  0.0000E+00  0.4800E+02
      9.194  0.0000E+00  0.4800E+02
      9.263  0.0000E+00  0.4800E+02
      9.333  0.0000E+00  0.4800E+02
      9.402  0.0000E+00  0.4800E+02
      9.471  0.0000E+00  0.4800E+02
      9.541  0.0000E+00  0.4800E+02
      9.610  0.0000E+00  0.4800E+02
      9.679  0.0000E+00  0.4800E+02
      9.749  0.0000E+00  0.4800E+02
      9.818  0.0000E+00  0.4800E+02
      9.887  0.0000E+00  0.4800E+02
      9.957  0.0000E+00  0.4800E+02
