       N       E                     dE             d eps       ncg     rms          rms(c)
DAV:   1    -0.320212705698E+02   -0.32021E+02   -0.17153E+00   544   0.578E+00    0.201E+00
DAV:   2    -0.319810087451E+02    0.40262E-01   -0.95950E-02   504   0.138E+00    0.120E+00
DAV:   3    -0.319679755072E+02    0.13033E-01   -0.63455E-02   496   0.922E-01    0.147E-01
DAV:   4    -0.319671697055E+02    0.80580E-03   -0.35347E-03   512   0.277E-01    0.860E-02
DAV:   5    -0.319670350783E+02    0.13463E-03   -0.53147E-04   536   0.889E-02    0.371E-02
DAV:   6    -0.319670379002E+02   -0.28219E-05   -0.17514E-05   296   0.200E-02
   1 F= -.31967038E+02 E0= -.31967038E+02  d E =0.000000E+00
 imaginary and real dielectric function
