<?xml version="1.0" encoding="ISO-8859-1"?>
<modeling>
 <generator>
  <i name="program" type="string">vasp </i>
  <i name="version" type="string">6.4.3  </i>
  <i name="subversion" type="string">19Mar24 (build Aug 29 2024 15:27:20) complex                          parallel </i>
  <i name="platform" type="string">LinuxIFC </i>
  <i name="date" type="string">2025 03 19 </i>
  <i name="time" type="string">10:34:14 </i>
 </generator>
 <incar>
  <i type="string" name="SYSTEM">GaAs</i>
  <i type="string" name="PREC">Normal</i>
  <i type="int" name="IBRION">     2</i>
  <i name="ENCUT">    500.00000000</i>
  <i type="int" name="ISMEAR">    -5</i>
  <i name="SIGMA">      0.10000000</i>
  <i type="logical" name="LOPTICS"> T  </i>
 </incar>
 <primitive_cell>
  <structure name="primitive_cell" >
   <crystal>
    <varray name="basis" >
     <v>       2.72693948      -2.72693948       0.00000000 </v>
     <v>       2.72693948       0.00000000       2.72693948 </v>
     <v>       0.00000000      -2.72693948       2.72693948 </v>
    </varray>
    <i name="volume">     40.55612886 </i>
    <varray name="rec_basis" >
     <v>       0.18335574      -0.18335574      -0.18335574 </v>
     <v>       0.18335574       0.18335574       0.18335574 </v>
     <v>      -0.18335574      -0.18335574       0.18335574 </v>
    </varray>
   </crystal>
   <varray name="positions" >
    <v>       0.00000000       0.00000000       0.00000000 </v>
    <v>       0.75000000       0.75000000       0.75000000 </v>
   </varray>
  </structure>
  <varray name="primitive_index" >
   <v type="int" >        1 </v>
   <v type="int" >        5 </v>
  </varray>
 </primitive_cell>
 <kpoints>
  <generation param="Gamma">
   <v type="int" name="divisions">       5        5        5 </v>
   <v name="usershift">      0.00000000       0.00000000       0.00000000 </v>
   <v name="genvec1">      0.20000000       0.00000000       0.00000000 </v>
   <v name="genvec2">      0.00000000       0.20000000       0.00000000 </v>
   <v name="genvec3">      0.00000000       0.00000000       0.20000000 </v>
   <v name="shift">      0.00000000       0.00000000       0.00000000 </v>
  </generation>
  <varray name="kpointlist" >
   <v>       0.00000000       0.00000000       0.00000000 </v>
   <v>       0.20000000       0.00000000       0.00000000 </v>
   <v>       0.40000000       0.00000000       0.00000000 </v>
   <v>       0.20000000       0.20000000       0.00000000 </v>
   <v>       0.40000000       0.20000000       0.00000000 </v>
   <v>       0.40000000       0.40000000       0.00000000 </v>
   <v>       0.20000000       0.20000000       0.20000000 </v>
   <v>       0.40000000       0.20000000       0.20000000 </v>
   <v>       0.40000000       0.40000000       0.20000000 </v>
   <v>       0.40000000       0.40000000       0.40000000 </v>
  </varray>
  <varray name="weights" >
   <v>       0.00800000 </v>
   <v>       0.04800000 </v>
   <v>       0.04800000 </v>
   <v>       0.09600000 </v>
   <v>       0.19200000 </v>
   <v>       0.09600000 </v>
   <v>       0.06400000 </v>
   <v>       0.19200000 </v>
   <v>       0.19200000 </v>
   <v>       0.06400000 </v>
  </varray>
  <varray name="tetrahedronlist"  type="int" >
   <v type="int" >       12        7        8        8        9 </v>
   <v type="int" >       18        8        8        9        9 </v>
   <v type="int" >       24        8        9        9       10 </v>
   <v type="int" >       12        8        9        9        9 </v>
   <v type="int" >       24        9        9        9       10 </v>
   <v type="int" >       18        9        9       10       10 </v>
   <v type="int" >       24        4        5        7        8 </v>
   <v type="int" >       12        5        7        8        8 </v>
   <v type="int" >       24        5        8        8        9 </v>
   <v type="int" >       24        4        5        5        8 </v>
   <v type="int" >       24        5        5        6        8 </v>
   <v type="int" >       12        5        6        8        9 </v>
   <v type="int" >       12        9       10       10       10 </v>
   <v type="int" >       12        8        8        9       10 </v>
   <v type="int" >       12        8        9       10       10 </v>
   <v type="int" >       12        5        5        8        9 </v>
   <v type="int" >       12        5        8        9        9 </v>
   <v type="int" >       12        5        5        6        9 </v>
   <v type="int" >       12        5        6        6        9 </v>
   <v type="int" >       12        5        6        9        9 </v>
   <v type="int" >       12        5        6        8        8 </v>
   <v type="int" >       12        5        6        6        8 </v>
   <v type="int" >       12        6        8        8        9 </v>
   <v type="int" >       12        6        8        9        9 </v>
   <v type="int" >       12        6        6        8        9 </v>
   <v type="int" >       12        7        8        9       10 </v>
   <v type="int" >       12        4        5        8        9 </v>
   <v type="int" >       12        4        7        8        9 </v>
   <v type="int" >       12        4        5        6        9 </v>
   <v type="int" >       12        5        6        7        8 </v>
   <v type="int" >       12        4        5        6        7 </v>
   <v type="int" >       12        6        7        8        9 </v>
   <v type="int" >       12        2        4        7        8 </v>
   <v type="int" >       12        2        4        5        8 </v>
   <v type="int" >       12        2        3        5        8 </v>
   <v type="int" >       12        4        4        5        7 </v>
   <v type="int" >       12        2        4        4        5 </v>
   <v type="int" >       12        2        3        4        5 </v>
   <v type="int" >       12        3        4        5        5 </v>
   <v type="int" >       12        2        3        4        7 </v>
   <v type="int" >       12        3        4        5        7 </v>
   <v type="int" >       12        3        5        7        8 </v>
   <v type="int" >        6       10       10       10       10 </v>
   <v type="int" >       12        6        6        9        9 </v>
   <v type="int" >       12        6        9        9        9 </v>
   <v type="int" >       12        6        6        6        9 </v>
   <v type="int" >       12        3        5        8        8 </v>
   <v type="int" >       12        3        5        5        8 </v>
   <v type="int" >       12        3        3        5        8 </v>
   <v type="int" >       12        5        5        5        8 </v>
   <v type="int" >       12        3        5        5        5 </v>
   <v type="int" >        6        3        3        5        5 </v>
   <v type="int" >        6        5        5        8        8 </v>
   <v type="int" >       12        2        4        4        7 </v>
   <v type="int" >       12        2        2        4        4 </v>
   <v type="int" >       12        1        2        2        4 </v>
   <v type="int" >       12        1        2        4        7 </v>
  </varray>
  <i name="volumeweight">      0.00133333 </i>
 </kpoints>
 <parameters>
  <separator name="general" >
   <i type="string" name="SYSTEM">GaAs</i>
   <i type="logical" name="LCOMPAT"> F  </i>
  </separator>
  <separator name="electronic" >
   <i type="string" name="PREC">normal</i>
   <i name="ENMAX">    500.00000000</i>
   <i name="ENAUG">    462.75800000</i>
   <i name="EDIFF">      0.00010000</i>
   <i type="int" name="IALGO">    38</i>
   <i type="int" name="IWAVPR">    10</i>
   <i type="int" name="NBANDS">    24</i>
   <i type="int" name="NBANDSLOW">    -1</i>
   <i type="int" name="NBANDSHIGH">    -1</i>
   <i name="NELECT">     32.00000000</i>
   <i type="int" name="TURBO">     0</i>
   <i type="int" name="IRESTART">     0</i>
   <i type="int" name="NREBOOT">     0</i>
   <i type="int" name="NMIN">     0</i>
   <i name="EREF">      0.00000000</i>
   <separator name="electronic smearing" >
    <i type="int" name="ISMEAR">    -5</i>
    <i name="SIGMA">      0.10000000</i>
    <i name="KSPACING">      0.50000000</i>
    <i type="logical" name="KGAMMA"> T  </i>
    <i type="logical" name="KBLOWUP"> T  </i>
   </separator>
   <separator name="electronic projectors" >
    <i type="logical" name="LREAL"> F  </i>
    <v name="ROPT">      0.00000000      0.00000000</v>
    <i type="int" name="LMAXPAW">  -100</i>
    <i type="int" name="LMAXMIX">     2</i>
    <i type="logical" name="NLSPLINE"> F  </i>
   </separator>
   <separator name="electronic startup" >
    <i type="int" name="ISTART">     1</i>
    <i type="int" name="ICHARG">     0</i>
    <i type="int" name="INIWAV">     1</i>
   </separator>
   <separator name="electronic spin" >
    <i type="int" name="ISPIN">     1</i>
    <i type="logical" name="LNONCOLLINEAR"> F  </i>
    <v name="MAGMOM">      1.00000000      1.00000000      1.00000000      1.00000000      1.00000000      1.00000000      1.00000000      1.00000000</v>
    <i name="NUPDOWN">     -1.00000000</i>
    <i type="logical" name="LSORBIT"> F  </i>
    <v name="SAXIS">      0.00000000      0.00000000      1.00000000</v>
    <i type="logical" name="LSPIRAL"> F  </i>
    <v name="QSPIRAL">      0.00000000      0.00000000      0.00000000</v>
    <i type="logical" name="LZEROZ"> F  </i>
   </separator>
   <separator name="electronic exchange-correlation" >
    <i type="logical" name="LASPH"> F  </i>
   </separator>
   <separator name="electronic convergence" >
    <i type="int" name="NELM">    60</i>
    <i type="int" name="NELMDL">     0</i>
    <i type="int" name="NELMIN">     2</i>
    <i name="ENINI">    500.00000000</i>
    <separator name="electronic convergence detail" >
     <i type="logical" name="LDIAG"> T  </i>
     <i type="logical" name="LSUBROT"> F  </i>
     <i name="WEIMIN">      0.00000000</i>
     <i name="EBREAK">      0.00000104</i>
     <i name="DEPER">      0.30000000</i>
     <i type="int" name="NRMM">     4</i>
     <i name="TIME">      0.40000000</i>
    </separator>
   </separator>
   <separator name="electronic mixer" >
    <i name="AMIX">      0.40000000</i>
    <i name="BMIX">      1.00000000</i>
    <i name="AMIN">      0.10000000</i>
    <i name="AMIX_MAG">      1.60000000</i>
    <i name="BMIX_MAG">      1.00000000</i>
    <separator name="electronic mixer details" >
     <i type="int" name="IMIX">     4</i>
     <i type="logical" name="MIXFIRST"> F  </i>
     <i type="int" name="MAXMIX">   -45</i>
     <i name="WC">    100.00000000</i>
     <i type="int" name="INIMIX">     1</i>
     <i type="int" name="MIXPRE">     1</i>
     <i type="int" name="MREMOVE">     5</i>
    </separator>
   </separator>
   <separator name="electronic dipolcorrection" >
    <i type="logical" name="LDIPOL"> F  </i>
    <i type="logical" name="LMONO"> F  </i>
    <i type="int" name="IDIPOL">     0</i>
    <i name="EPSILON">      1.00000000</i>
    <v name="DIPOL">   -100.00000000   -100.00000000   -100.00000000</v>
    <i name="EFIELD">      0.00000000</i>
    <i type="logical" name="LVACPOTAV"> F  </i>
   </separator>
  </separator>
  <separator name="grids" >
   <i type="int" name="NGX">    30</i>
   <i type="int" name="NGY">    30</i>
   <i type="int" name="NGZ">    30</i>
   <i type="int" name="NGXF">    60</i>
   <i type="int" name="NGYF">    60</i>
   <i type="int" name="NGZF">    60</i>
   <i type="logical" name="ADDGRID"> F  </i>
  </separator>
  <separator name="ionic" >
   <i type="int" name="NSW">     0</i>
   <i type="int" name="IBRION">    -1</i>
   <i type="int" name="MDALGO">     0</i>
   <i type="int" name="ISIF">     2</i>
   <i name="PSTRESS">      0.00000000</i>
   <i name="EDIFFG">      0.00100000</i>
   <i type="int" name="NFREE">     1</i>
   <i name="POTIM">      0.50000000</i>
   <i name="SMASS">     -3.00000000</i>
   <i name="SCALEE">      1.00000000</i>
  </separator>
  <separator name="ionic md" >
   <i name="TEBEG">      0.00010000</i>
   <i name="TEEND">      0.00010000</i>
   <i type="int" name="NBLOCK">     1</i>
   <i type="int" name="KBLOCK">     1</i>
   <i type="int" name="NPACO">   256</i>
   <i name="APACO">     10.00000000</i>
  </separator>
  <separator name="symmetry" >
   <i type="int" name="ISYM">     2</i>
   <i name="SYMPREC">      0.00001000</i>
  </separator>
  <separator name="dos" >
   <i type="int" name="LORBIT">     0</i>
   <v name="RWIGS">     -1.00000000     -1.00000000</v>
   <i type="int" name="NEDOS">   301</i>
   <i name="EMIN">     10.00000000</i>
   <i name="EMAX">    -10.00000000</i>
   <i name="EFERMI">      0.00000000</i>
  </separator>
  <separator name="writing" >
   <i type="int" name="NWRITE">     2</i>
   <i type="logical" name="LWAVE"> T  </i>
   <i type="logical" name="LDOWNSAMPLE"> F  </i>
   <i type="logical" name="LCHARG"> T  </i>
   <i type="logical" name="LPARD"> F  </i>
   <i type="logical" name="LVTOT"> F  </i>
   <i type="logical" name="LVHAR"> F  </i>
   <i type="logical" name="LELF"> F  </i>
   <i type="logical" name="LOPTICS"> T  </i>
   <v name="STM">      0.00000000      0.00000000      0.00000000      0.00000000      0.00000000      0.00000000      0.00000000</v>
  </separator>
  <separator name="performance" >
   <i type="int" name="NPAR">     8</i>
   <i type="int" name="NSIM">     4</i>
   <i type="int" name="NBLK">    -1</i>
   <i type="logical" name="LPLANE"> T  </i>
   <i type="logical" name="LSCALAPACK"> T  </i>
   <i type="logical" name="LSCAAWARE"> F  </i>
   <i type="logical" name="LSCALU"> F  </i>
   <i type="logical" name="LASYNC"> F  </i>
   <i type="logical" name="LORBITALREAL"> F  </i>
  </separator>
  <separator name="miscellaneous" >
   <i type="int" name="IDIOT">     3</i>
   <i type="int" name="PHON_NSTRUCT">    -1</i>
   <i type="logical" name="LMUSIC"> F  </i>
   <v name="POMASS">     74.92200000     69.72300000</v>
   <v name="DARWINR">      0.00000000      0.00000000</v>
   <v name="DARWINV">      1.00000000      1.00000000</v>
   <i type="logical" name="LCORR"> T  </i>
  </separator>
  <i type="logical" name="GGA_COMPAT"> T  </i>
  <i type="logical" name="LBERRY"> F  </i>
  <i type="int" name="ICORELEVEL">     0</i>
  <i type="logical" name="LDAU"> F  </i>
  <i type="int" name="I_CONSTRAINED_M">     0</i>
  <separator name="electronic exchange-correlation" >
   <i type="string" name="GGA    ">PE</i>
   <i type="string" name="XC_C">1</i>
   <i type="int" name="VOSKOWN">     0</i>
   <i type="logical" name="LHFCALC"> F  </i>
   <i type="string" name="PRECFOCK"></i>
   <i type="logical" name="LSYMGRAD"> F  </i>
   <i type="logical" name="LHFONE"> F  </i>
   <i type="logical" name="LRHFCALC"> F  </i>
   <i type="logical" name="LTHOMAS"> F  </i>
   <i type="logical" name="LMODELHF"> F  </i>
   <i type="logical" name="LFOCKACE"> F  </i>
   <i name="ENCUT4O">     -1.00000000</i>
   <i type="int" name="EXXOEP">     0</i>
   <i type="int" name="FOURORBIT">     0</i>
   <i name="AEXX">      0.00000000</i>
   <i name="HFALPHA">      0.00000000</i>
   <i name="MCALPHA">      0.00000000</i>
   <i name="ALDAX">      1.00000000</i>
   <i name="AGGAX">      1.00000000</i>
   <i name="AMGGAX">      1.00000000</i>
   <i name="ALDAC">      1.00000000</i>
   <i name="AGGAC">      1.00000000</i>
   <i name="AMGGAC">      1.00000000</i>
   <i type="int" name="NKREDX">     1</i>
   <i type="int" name="NKREDY">     1</i>
   <i type="int" name="NKREDZ">     1</i>
   <i type="logical" name="SHIFTRED"> F  </i>
   <i type="logical" name="ODDONLY"> F  </i>
   <i type="logical" name="EVENONLY"> F  </i>
   <i type="int" name="LMAXFOCK">     0</i>
   <i type="int" name="NMAXFOCKAE">     0</i>
   <i type="logical" name="LFOCKAEDFT"> F  </i>
   <i name="HFSCREEN">      0.00000000</i>
   <i name="HFSCREENC">      0.00000000</i>
   <i type="int" name="NBANDSGWLOW">     0</i>
  </separator>
  <separator name="vdW DFT" >
   <i type="logical" name="LUSE_VDW"> F  </i>
   <i type="int" name="IVDW_NL">    -1</i>
   <i type="logical" name="LSPIN_VDW"> F  </i>
   <i name="ZAB_VDW">     -0.84910000</i>
   <i name="GAMMA_VDW">      1.39626340</i>
   <i name="ALPHA_VDW">      0.00000000</i>
   <i name="PARAM1">      0.12340000</i>
   <i name="PARAM2">      1.00000000</i>
   <i name="BPARAM">      6.30000000</i>
   <i name="CPARAM">      0.00930000</i>
  </separator>
  <separator name="model GW" >
   <i type="int" name="MODEL_GW">     0</i>
   <i name="MODEL_EPS0">     12.16683866</i>
   <i name="MODEL_ALPHA">      1.00000000</i>
  </separator>
  <separator name="linear response parameters" >
   <i type="logical" name="LEPSILON"> F  </i>
   <i type="logical" name="LRPA"> F  </i>
   <i type="logical" name="LNABLA"> F  </i>
   <i type="logical" name="LVEL"> F  </i>
   <i name="CSHIFT">      0.10000000</i>
   <i name="OMEGAMAX">     -1.00000000</i>
   <i name="DEG_THRESHOLD">      0.00200000</i>
   <i name="RTIME">     -0.10000000</i>
   <i name="WPLASMAI">      0.00000000</i>
   <v name="DFIELD">      0.00000000      0.00000000      0.00000000</v>
   <v name="WPLASMA">      0.00000000      0.00000000      0.00000000      0.00000000      0.00000000      0.00000000      0.00000000      0.00000000      0.00000000</v>
  </separator>
  <separator name="orbital magnetization" >
   <i type="logical" name="NUCIND"> F  </i>
   <v name="MAGPOS">      0.00000000      0.00000000      0.00000000</v>
   <i type="logical" name="LNICSALL"> T  </i>
   <i type="logical" name="ORBITALMAG"> F  </i>
   <i type="logical" name="LMAGBLOCH"> F  </i>
   <i type="logical" name="LCHIMAG"> F  </i>
   <i type="logical" name="LGAUGE"> T  </i>
   <i type="int" name="MAGATOM">     0</i>
   <v name="MAGDIPOL">      0.00000000      0.00000000      0.00000000</v>
   <v name="AVECCONST">      0.00000000      0.00000000      0.00000000</v>
  </separator>
  <separator name="response functions" >
   <i type="logical" name="LALL_IN_ONE"> F  </i>
   <i type="int" name="IALL_IN_ONE">    -1</i>
   <i type="int" name="NBANDS_WAVE">    -1</i>
   <i type="logical" name="LFINITE_TEMPERATURE"> F  </i>
   <i type="logical" name="LADDER"> F  </i>
   <i type="logical" name="LRPAFORCE"> F  </i>
   <i type="logical" name="LFXC"> F  </i>
   <i type="logical" name="LHARTREE"> T  </i>
   <i type="int" name="IBSE">     0</i>
   <v type="int" name="KPOINT">    -1     0     0     0</v>
   <i type="logical" name="LTCTC"> F  </i>
   <i type="logical" name="LTCTE"> F  </i>
   <i type="logical" name="LTETE"> F  </i>
   <i type="logical" name="LTRIPLET"> F  </i>
   <i type="logical" name="LFXCEPS"> F  </i>
   <i type="logical" name="LFXHEG"> F  </i>
   <i type="int" name="NATURALO">     2</i>
   <i type="logical" name="LHOLEGF"> F  </i>
   <i type="logical" name="L2ORDER"> F  </i>
   <i type="logical" name="LDMP1"> F  </i>
   <i type="logical" name="LMP2LT"> F  </i>
   <i type="logical" name="LSMP2LT"> F  </i>
   <i type="logical" name="LGWLF"> F  </i>
   <i name="ENCUTGW">     -1.60000002</i>
   <i name="ENCUTGWSOFT">     -1.60000002</i>
   <i name="ENCUTLF">     -1.00000000</i>
   <i type="logical" name="ESF_SPLINES"> F  </i>
   <i name="ESF_CONV">      0.01000000</i>
   <i type="int" name="ESF_NINTER">    15</i>
   <i type="int" name="LMAXMP2">    -1</i>
   <i name="SCISSOR">      0.00000000</i>
   <i type="int" name="NOMEGA">     0</i>
   <i type="int" name="NOMEGAR">     0</i>
   <i type="int" name="NBANDSGW">    -1</i>
   <i type="int" name="NBANDSO">    -1</i>
   <i type="int" name="NBANDSV">    -1</i>
   <i type="int" name="NELMGW">     1</i>
   <i type="int" name="NELMHF">     1</i>
   <i type="int" name="DIM">     3</i>
   <i type="int" name="IESPILON">     4</i>
   <i type="int" name="ANTIRES">     0</i>
   <i name="OMEGAMAX">    -30.00000000</i>
   <i name="OMEGAMIN">    -30.00000000</i>
   <i name="OMEGATL">   -200.00000000</i>
   <i type="int" name="OMEGAGRID">     0</i>
   <i name="CSHIFT">     -0.10000000</i>
   <i type="logical" name="LSELFENERGY"> F  </i>
   <i type="logical" name="LSPECTRAL"> F  </i>
   <i type="logical" name="LSPECTRALGW"> F  </i>
   <i type="logical" name="LSINGLES"> F  </i>
   <i type="logical" name="LFERMIGW"> F  </i>
   <i type="logical" name="ODDONLYGW"> F  </i>
   <i type="logical" name="EVENONLYGW"> F  </i>
   <i type="int" name="NKREDLFX">     1</i>
   <i type="int" name="NKREDLFY">     1</i>
   <i type="int" name="NKREDLFZ">     1</i>
   <i type="int" name="MAXMEM">  2800</i>
   <i type="int" name="TELESCOPE">     0</i>
   <i type="int" name="NTAUPAR">    -1</i>
   <i type="int" name="NOMEGAPAR">    -1</i>
   <i name="DAMP_NEWTON">      0.80000001</i>
   <i name="LAMBDA">      1.00000000</i>
  </separator>
  <separator name="External order field" >
   <i name="OFIELD_KAPPA">      0.00000000</i>
   <v name="OFIELD_K">      0.00000000      0.00000000      0.00000000</v>
   <i name="OFIELD_Q6_NEAR">      0.00000000</i>
   <i name="OFIELD_Q6_FAR">      0.00000000</i>
   <i name="OFIELD_A">      0.00000000</i>
  </separator>
  <separator name="optional k-points parameters" >
   <i type="int" name="KPOINTS_OPT_MODE">     1</i>
   <i type="logical" name="LKPOINTS_OPT"> F  </i>
  </separator>
 </parameters>
 <atominfo>
  <atoms>       8 </atoms>
  <types>       2 </types>
  <array name="atoms" >
   <dimension dim="1">ion</dimension>
   <field type="string">element</field>
   <field type="int">atomtype</field>
   <set>
    <rc><c>As</c><c>   1</c></rc>
    <rc><c>As</c><c>   1</c></rc>
    <rc><c>As</c><c>   1</c></rc>
    <rc><c>As</c><c>   1</c></rc>
    <rc><c>Ga</c><c>   2</c></rc>
    <rc><c>Ga</c><c>   2</c></rc>
    <rc><c>Ga</c><c>   2</c></rc>
    <rc><c>Ga</c><c>   2</c></rc>
   </set>
  </array>
  <array name="atomtypes" >
   <dimension dim="1">type</dimension>
   <field type="int">atomspertype</field>
   <field type="string">element</field>
   <field>mass</field>
   <field>valence</field>
   <field type="string">pseudopotential</field>
   <set>
    <rc><c>   4</c><c>As</c><c>     74.92200000</c><c>      5.00000000</c><c>  PAW_PBE As 22Sep2009                  </c></rc>
    <rc><c>   4</c><c>Ga</c><c>     69.72300000</c><c>      3.00000000</c><c>  PAW_PBE Ga 08Apr2002                  </c></rc>
   </set>
  </array>
 </atominfo>
 <structure name="initialpos" >
  <crystal>
   <varray name="basis" >
    <v>       5.45387896       0.00000000       0.00000000 </v>
    <v>       0.00000000       5.45387896       0.00000000 </v>
    <v>       0.00000000       0.00000000       5.45387896 </v>
   </varray>
   <i name="volume">    162.22451542 </i>
   <varray name="rec_basis" >
    <v>       0.18335574       0.00000000       0.00000000 </v>
    <v>       0.00000000       0.18335574       0.00000000 </v>
    <v>       0.00000000       0.00000000       0.18335574 </v>
   </varray>
  </crystal>
  <varray name="positions" >
   <v>       0.00000000       0.00000000       0.00000000 </v>
   <v>       0.50000000       0.50000000       0.00000000 </v>
   <v>       0.50000000       0.00000000       0.50000000 </v>
   <v>       0.00000000       0.50000000       0.50000000 </v>
   <v>       0.25000000       0.25000000       0.25000000 </v>
   <v>       0.75000000       0.25000000       0.75000000 </v>
   <v>       0.75000000       0.75000000       0.25000000 </v>
   <v>       0.25000000       0.75000000       0.75000000 </v>
  </varray>
 </structure>
 <calculation>
  <scstep>
   <time name="dav">    0.26    0.27</time>
   <time name="total">    0.28    0.30</time>
   <energy>
    <i name="alphaZ">     84.35132249 </i>
    <i name="ewald">   -950.20320259 </i>
    <i name="hartreedc">    -80.58828354 </i>
    <i name="XCdc">   -119.82472612 </i>
    <i name="pawpsdc">   2186.08999712 </i>
    <i name="pawaedc">  -2007.81215395 </i>
    <i name="eentropy">      0.00000000 </i>
    <i name="bandstr">    -60.25385437 </i>
    <i name="atom">    916.21963040 </i>
    <i name="e_fr_energy">    -32.02127057 </i>
    <i name="e_wo_entrp">    -32.02127057 </i>
    <i name="e_0_energy">    -32.02127057 </i>
   </energy>
  </scstep>
  <scstep>
   <time name="dav">    0.24    0.25</time>
   <time name="total">    0.26    0.28</time>
   <energy>
    <i name="e_fr_energy">    -31.98100875 </i>
    <i name="e_wo_entrp">    -31.98100875 </i>
    <i name="e_0_energy">    -31.98100875 </i>
   </energy>
  </scstep>
  <scstep>
   <time name="dav">    0.23    0.25</time>
   <time name="total">    0.26    0.28</time>
   <energy>
    <i name="e_fr_energy">    -31.96797551 </i>
    <i name="e_wo_entrp">    -31.96797551 </i>
    <i name="e_0_energy">    -31.96797551 </i>
   </energy>
  </scstep>
  <scstep>
   <time name="dav">    0.24    0.25</time>
   <time name="total">    0.27    0.28</time>
   <energy>
    <i name="e_fr_energy">    -31.96716971 </i>
    <i name="e_wo_entrp">    -31.96716971 </i>
    <i name="e_0_energy">    -31.96716971 </i>
   </energy>
  </scstep>
  <scstep>
   <time name="dav">    0.25    0.26</time>
   <time name="total">    0.28    0.29</time>
   <energy>
    <i name="e_fr_energy">    -31.96703508 </i>
    <i name="e_wo_entrp">    -31.96703508 </i>
    <i name="e_0_energy">    -31.96703508 </i>
   </energy>
  </scstep>
  <scstep>
   <time name="dav">    0.18    0.19</time>
   <time name="total">    0.19    0.20</time>
   <energy>
    <i name="alphaZ">     84.35132249 </i>
    <i name="ewald">   -950.20320259 </i>
    <i name="hartreedc">    -77.07649378 </i>
    <i name="XCdc">   -119.69908861 </i>
    <i name="pawpsdc">   2416.13783034 </i>
    <i name="pawaedc">  -2237.76162122 </i>
    <i name="eentropy">      0.00000000 </i>
    <i name="bandstr">    -63.93541493 </i>
    <i name="atom">    916.21963040 </i>
    <i name="e_fr_energy">    -31.96703790 </i>
    <i name="e_wo_entrp">    -31.96703790 </i>
    <i name="e_0_energy">    -31.96703790 </i>
   </energy>
  </scstep>
  <structure>
   <crystal>
    <varray name="basis" >
     <v>       5.45387896       0.00000000       0.00000000 </v>
     <v>       0.00000000       5.45387896       0.00000000 </v>
     <v>       0.00000000       0.00000000       5.45387896 </v>
    </varray>
    <i name="volume">    162.22451542 </i>
    <varray name="rec_basis" >
     <v>       0.18335574       0.00000000       0.00000000 </v>
     <v>       0.00000000       0.18335574       0.00000000 </v>
     <v>       0.00000000       0.00000000       0.18335574 </v>
    </varray>
   </crystal>
   <varray name="positions" >
    <v>       0.00000000       0.00000000       0.00000000 </v>
    <v>       0.50000000       0.50000000       0.00000000 </v>
    <v>       0.50000000       0.00000000       0.50000000 </v>
    <v>       0.00000000       0.50000000       0.50000000 </v>
    <v>       0.25000000       0.25000000       0.25000000 </v>
    <v>       0.75000000       0.25000000       0.75000000 </v>
    <v>       0.75000000       0.75000000       0.25000000 </v>
    <v>       0.25000000       0.75000000       0.75000000 </v>
   </varray>
  </structure>
  <varray name="forces" >
   <v>      -0.00000000       0.00000000      -0.00000000 </v>
   <v>       0.00000000       0.00000000       0.00000000 </v>
   <v>      -0.00000000      -0.00000000      -0.00000000 </v>
   <v>      -0.00000000       0.00000000       0.00000000 </v>
   <v>       0.00000000      -0.00000000      -0.00000000 </v>
   <v>       0.00000000      -0.00000000      -0.00000000 </v>
   <v>      -0.00000000       0.00000000       0.00000000 </v>
   <v>      -0.00000000       0.00000000      -0.00000000 </v>
  </varray>
  <varray name="stress" >
   <v>     151.07846454       0.00000000      -0.00000000 </v>
   <v>       0.00000000     151.07846454       0.00000000 </v>
   <v>      -0.00000000       0.00000000     151.07846454 </v>
  </varray>
  <energy>
   <i name="e_fr_energy">    -31.96703790 </i>
   <i name="e_wo_entrp">    -31.96703790 </i>
   <i name="e_0_energy">    -31.96703790 </i>
  </energy>
  <time name="totalsc">    2.16    2.28</time>
  <eigenvalues>
   <array>
    <dimension dim="1">band</dimension>
    <dimension dim="2">kpoint</dimension>
    <dimension dim="3">spin</dimension>
    <field>eigene</field>
    <field>occ</field>
    <set>
     <set comment="spin 1">
      <set comment="kpoint 1">
       <r>   -9.8387    1.0000 </r>
       <r>   -7.0249    1.0000 </r>
       <r>   -7.0249    1.0000 </r>
       <r>   -7.0249    1.0000 </r>
       <r>   -3.6220    1.0000 </r>
       <r>   -3.6220    1.0000 </r>
       <r>   -3.6220    1.0000 </r>
       <r>    0.6280    1.0000 </r>
       <r>    0.6280    1.0000 </r>
       <r>    0.6280    1.0000 </r>
       <r>    0.6280    1.0000 </r>
       <r>    0.6280    1.0000 </r>
       <r>    0.6280    1.0000 </r>
       <r>    3.6999    1.0000 </r>
       <r>    3.6999    1.0000 </r>
       <r>    3.6999    1.0000 </r>
       <r>    4.9400    0.0000 </r>
       <r>    4.9400    0.0000 </r>
       <r>    4.9400    0.0000 </r>
       <r>    5.1327    0.0000 </r>
       <r>    5.2969    0.0000 </r>
       <r>    5.2969    0.0000 </r>
       <r>    5.2969    0.0000 </r>
       <r>    7.4871    0.0000 </r>
      </set>
      <set comment="kpoint 2">
       <r>   -9.6745    1.0000 </r>
       <r>   -7.5400    1.0000 </r>
       <r>   -7.0025    1.0000 </r>
       <r>   -7.0025    1.0000 </r>
       <r>   -3.5425    1.0000 </r>
       <r>   -3.5425    1.0000 </r>
       <r>   -2.8867    1.0000 </r>
       <r>    0.2336    1.0000 </r>
       <r>    0.2336    1.0000 </r>
       <r>    0.3057    1.0000 </r>
       <r>    0.3057    1.0000 </r>
       <r>    0.8116    1.0000 </r>
       <r>    0.8116    1.0000 </r>
       <r>    2.3048    1.0000 </r>
       <r>    3.1529    1.0000 </r>
       <r>    3.1529    1.0000 </r>
       <r>    4.9603    0.0000 </r>
       <r>    5.7444    0.0000 </r>
       <r>    5.7691    0.0000 </r>
       <r>    5.7691    0.0000 </r>
       <r>    6.1380    0.0000 </r>
       <r>    6.1380    0.0000 </r>
       <r>    6.4260    0.0000 </r>
       <r>    6.9893    0.0000 </r>
      </set>
      <set comment="kpoint 3">
       <r>   -9.1921    1.0000 </r>
       <r>   -8.4341    1.0000 </r>
       <r>   -6.9653    1.0000 </r>
       <r>   -6.9653    1.0000 </r>
       <r>   -3.3942    1.0000 </r>
       <r>   -3.3942    1.0000 </r>
       <r>   -1.3485    1.0000 </r>
       <r>   -0.3111    1.0000 </r>
       <r>   -0.3111    1.0000 </r>
       <r>   -0.1096    1.0000 </r>
       <r>   -0.1096    1.0000 </r>
       <r>    0.4423    1.0000 </r>
       <r>    1.3482    1.0000 </r>
       <r>    1.3482    1.0000 </r>
       <r>    2.1833    1.0000 </r>
       <r>    2.1833    1.0000 </r>
       <r>    5.3014    0.0000 </r>
       <r>    5.9982    0.0000 </r>
       <r>    6.7237    0.0000 </r>
       <r>    7.5148    0.0000 </r>
       <r>    7.6719    0.0000 </r>
       <r>    7.6719    0.0000 </r>
       <r>    8.0507    0.0000 </r>
       <r>    8.0507    0.0000 </r>
      </set>
      <set comment="kpoint 4">
       <r>   -9.5137    1.0000 </r>
       <r>   -7.4691    1.0000 </r>
       <r>   -7.4691    1.0000 </r>
       <r>   -7.0263    1.0000 </r>
       <r>   -3.4663    1.0000 </r>
       <r>   -2.9306    1.0000 </r>
       <r>   -2.9306    1.0000 </r>
       <r>   -0.5187    1.0000 </r>
       <r>    0.3244    1.0000 </r>
       <r>    0.3244    1.0000 </r>
       <r>    0.6701    1.0000 </r>
       <r>    0.6701    1.0000 </r>
       <r>    0.9356    1.0000 </r>
       <r>    1.2082    1.0000 </r>
       <r>    2.5820    1.0000 </r>
       <r>    3.5064    1.0000 </r>
       <r>    5.4121    0.0000 </r>
       <r>    5.8451    0.0000 </r>
       <r>    5.8451    0.0000 </r>
       <r>    6.3858    0.0000 </r>
       <r>    6.4918    0.0000 </r>
       <r>    6.4918    0.0000 </r>
       <r>    7.5949    0.0000 </r>
       <r>    7.7552    0.0000 </r>
      </set>
      <set comment="kpoint 5">
       <r>   -9.0434    1.0000 </r>
       <r>   -8.3120    1.0000 </r>
       <r>   -7.2963    1.0000 </r>
       <r>   -7.1219    1.0000 </r>
       <r>   -3.2824    1.0000 </r>
       <r>   -3.0758    1.0000 </r>
       <r>   -1.6707    1.0000 </r>
       <r>   -0.8005    1.0000 </r>
       <r>   -0.4363    1.0000 </r>
       <r>   -0.2531    1.0000 </r>
       <r>    0.6151    1.0000 </r>
       <r>    0.7948    1.0000 </r>
       <r>    0.8651    1.0000 </r>
       <r>    1.5202    1.0000 </r>
       <r>    1.6027    1.0000 </r>
       <r>    2.6712    1.0000 </r>
       <r>    6.2176    0.0000 </r>
       <r>    6.5350    0.0000 </r>
       <r>    6.8525    0.0000 </r>
       <r>    7.2864    0.0000 </r>
       <r>    7.3788    0.0000 </r>
       <r>    7.7541    0.0000 </r>
       <r>    8.2403    0.0000 </r>
       <r>    8.9566    0.0000 </r>
      </set>
      <set comment="kpoint 6">
       <r>   -8.6152    1.0000 </r>
       <r>   -7.9746    1.0000 </r>
       <r>   -7.9746    1.0000 </r>
       <r>   -7.5195    1.0000 </r>
       <r>   -2.9228    1.0000 </r>
       <r>   -2.3280    1.0000 </r>
       <r>   -2.3280    1.0000 </r>
       <r>   -1.3473    1.0000 </r>
       <r>   -0.7227    1.0000 </r>
       <r>   -0.1063    1.0000 </r>
       <r>   -0.1063    1.0000 </r>
       <r>    0.6378    1.0000 </r>
       <r>    1.7680    1.0000 </r>
       <r>    1.8356    1.0000 </r>
       <r>    1.8356    1.0000 </r>
       <r>    2.8007    1.0000 </r>
       <r>    6.2464    0.0000 </r>
       <r>    6.8710    0.0000 </r>
       <r>    7.3621    0.0000 </r>
       <r>    7.3621    0.0000 </r>
       <r>    8.3156    0.0000 </r>
       <r>    8.3156    0.0000 </r>
       <r>    8.8370    0.0000 </r>
       <r>    8.9291    0.0000 </r>
      </set>
      <set comment="kpoint 7">
       <r>   -9.3573    1.0000 </r>
       <r>   -7.4309    1.0000 </r>
       <r>   -7.4309    1.0000 </r>
       <r>   -7.4309    1.0000 </r>
       <r>   -3.0337    1.0000 </r>
       <r>   -3.0337    1.0000 </r>
       <r>   -3.0337    1.0000 </r>
       <r>   -0.1286    1.0000 </r>
       <r>   -0.1286    1.0000 </r>
       <r>   -0.1286    1.0000 </r>
       <r>    0.2603    1.0000 </r>
       <r>    1.1043    1.0000 </r>
       <r>    1.1043    1.0000 </r>
       <r>    1.1043    1.0000 </r>
       <r>    3.1126    1.0000 </r>
       <r>    3.1126    1.0000 </r>
       <r>    5.6171    0.0000 </r>
       <r>    5.6171    0.0000 </r>
       <r>    5.6171    0.0000 </r>
       <r>    5.7444    0.0000 </r>
       <r>    7.7945    0.0000 </r>
       <r>    7.7945    0.0000 </r>
       <r>    7.7945    0.0000 </r>
       <r>    8.2691    0.0000 </r>
      </set>
      <set comment="kpoint 8">
       <r>   -8.9025    1.0000 </r>
       <r>   -8.2057    1.0000 </r>
       <r>   -7.3656    1.0000 </r>
       <r>   -7.3656    1.0000 </r>
       <r>   -3.2193    1.0000 </r>
       <r>   -3.2193    1.0000 </r>
       <r>   -2.1230    1.0000 </r>
       <r>   -1.0112    1.0000 </r>
       <r>   -0.3168    1.0000 </r>
       <r>   -0.3168    1.0000 </r>
       <r>    0.9388    1.0000 </r>
       <r>    1.1248    1.0000 </r>
       <r>    1.1248    1.0000 </r>
       <r>    1.5911    1.0000 </r>
       <r>    2.3239    1.0000 </r>
       <r>    2.3253    1.0000 </r>
       <r>    6.1479    0.0000 </r>
       <r>    6.2929    0.0000 </r>
       <r>    6.6988    0.0000 </r>
       <r>    6.6988    0.0000 </r>
       <r>    7.8421    0.0000 </r>
       <r>    8.1866    0.0000 </r>
       <r>    8.7781    0.0000 </r>
       <r>    8.7781    0.0000 </r>
      </set>
      <set comment="kpoint 9">
       <r>   -8.5020    1.0000 </r>
       <r>   -7.9258    1.0000 </r>
       <r>   -7.9258    1.0000 </r>
       <r>   -7.5935    1.0000 </r>
       <r>   -3.2518    1.0000 </r>
       <r>   -2.8408    1.0000 </r>
       <r>   -2.8408    1.0000 </r>
       <r>   -2.0652    1.0000 </r>
       <r>    0.0772    1.0000 </r>
       <r>    0.6231    1.0000 </r>
       <r>    0.6231    1.0000 </r>
       <r>    1.5366    1.0000 </r>
       <r>    1.8725    1.0000 </r>
       <r>    1.9161    1.0000 </r>
       <r>    1.9161    1.0000 </r>
       <r>    2.7193    1.0000 </r>
       <r>    6.0898    0.0000 </r>
       <r>    6.3192    0.0000 </r>
       <r>    6.7662    0.0000 </r>
       <r>    6.7662    0.0000 </r>
       <r>    7.9344    0.0000 </r>
       <r>    7.9344    0.0000 </r>
       <r>    8.5334    0.0000 </r>
       <r>    8.5704    0.0000 </r>
      </set>
      <set comment="kpoint 10">
       <r>   -8.2016    1.0000 </r>
       <r>   -7.8408    1.0000 </r>
       <r>   -7.8408    1.0000 </r>
       <r>   -7.8408    1.0000 </r>
       <r>   -3.4095    1.0000 </r>
       <r>   -3.4095    1.0000 </r>
       <r>   -3.4095    1.0000 </r>
       <r>   -2.9663    1.0000 </r>
       <r>    1.5579    1.0000 </r>
       <r>    1.5579    1.0000 </r>
       <r>    1.5579    1.0000 </r>
       <r>    2.1473    1.0000 </r>
       <r>    2.1473    1.0000 </r>
       <r>    2.1473    1.0000 </r>
       <r>    2.4777    1.0000 </r>
       <r>    2.4777    1.0000 </r>
       <r>    5.1518    0.0000 </r>
       <r>    5.8875    0.0000 </r>
       <r>    5.8875    0.0000 </r>
       <r>    5.8875    0.0000 </r>
       <r>    8.0908    0.0000 </r>
       <r>    8.0908    0.0000 </r>
       <r>    8.0908    0.0000 </r>
       <r>    8.4415    0.0000 </r>
      </set>
     </set>
    </set>
   </array>
  </eigenvalues>
  <separator name="orbital magnetization" >
   <v name="MAGDIPOLOUT">      0.00000000      0.00000000      0.00000000</v>
  </separator>
  <dielectricfunction comment="density-density">
   <imag>
    <array>
     <dimension dim="1">gridpoints</dimension>
     <field>energy</field>
     <field>xx</field>
     <field>yy</field>
     <field>zz</field>
     <field>xy</field>
     <field>yz</field>
     <field>zx</field>
     <set>
      <r>     0.0000     0.0000     0.0000     0.0000     0.0000     0.0000     0.0000 </r>
      <r>     0.0226     0.0029     0.0029     0.0029    -0.0000     0.0000    -0.0000 </r>
      <r>     0.0452     0.0057     0.0057     0.0057    -0.0000     0.0000    -0.0000 </r>
      <r>     0.0677     0.0086     0.0086     0.0086    -0.0000     0.0000    -0.0000 </r>
      <r>     0.0903     0.0114     0.0114     0.0114    -0.0000     0.0000    -0.0000 </r>
      <r>     0.1129     0.0143     0.0143     0.0143    -0.0000     0.0000    -0.0000 </r>
      <r>     0.1355     0.0172     0.0172     0.0172    -0.0000     0.0000    -0.0000 </r>
      <r>     0.1580     0.0201     0.0201     0.0201    -0.0000     0.0000    -0.0000 </r>
      <r>     0.1806     0.0230     0.0230     0.0230    -0.0000     0.0000    -0.0000 </r>
      <r>     0.2032     0.0259     0.0259     0.0259    -0.0000     0.0000    -0.0000 </r>
      <r>     0.2258     0.0288     0.0288     0.0288    -0.0000     0.0000    -0.0000 </r>
      <r>     0.2483     0.0318     0.0318     0.0318    -0.0000     0.0000    -0.0000 </r>
      <r>     0.2709     0.0347     0.0347     0.0347    -0.0000     0.0000    -0.0000 </r>
      <r>     0.2935     0.0377     0.0377     0.0377    -0.0000     0.0000    -0.0000 </r>
      <r>     0.3161     0.0407     0.0407     0.0407    -0.0000     0.0000    -0.0000 </r>
      <r>     0.3387     0.0437     0.0437     0.0437    -0.0000     0.0000    -0.0000 </r>
      <r>     0.3612     0.0468     0.0468     0.0468    -0.0000     0.0000    -0.0000 </r>
      <r>     0.3838     0.0499     0.0499     0.0499    -0.0000     0.0000    -0.0000 </r>
      <r>     0.4064     0.0530     0.0530     0.0530    -0.0000     0.0000    -0.0000 </r>
      <r>     0.4290     0.0561     0.0561     0.0561    -0.0000     0.0000    -0.0000 </r>
      <r>     0.4515     0.0593     0.0593     0.0593    -0.0000     0.0000    -0.0000 </r>
      <r>     0.4741     0.0625     0.0625     0.0625     0.0000     0.0000    -0.0000 </r>
      <r>     0.4967     0.0657     0.0657     0.0657     0.0000     0.0000    -0.0000 </r>
      <r>     0.5193     0.0690     0.0690     0.0690     0.0000     0.0000    -0.0000 </r>
      <r>     0.5418     0.0723     0.0723     0.0723     0.0000     0.0000    -0.0000 </r>
      <r>     0.5644     0.0757     0.0757     0.0757     0.0000     0.0000    -0.0000 </r>
      <r>     0.5870     0.0791     0.0791     0.0791     0.0000     0.0000    -0.0000 </r>
      <r>     0.6096     0.0826     0.0826     0.0826     0.0000     0.0000    -0.0000 </r>
      <r>     0.6322     0.0861     0.0861     0.0861     0.0000     0.0000    -0.0000 </r>
      <r>     0.6547     0.0897     0.0897     0.0897     0.0000     0.0000    -0.0000 </r>
      <r>     0.6773     0.0933     0.0933     0.0933     0.0000     0.0000    -0.0000 </r>
      <r>     0.6999     0.0970     0.0970     0.0970     0.0000     0.0000    -0.0000 </r>
      <r>     0.7225     0.1008     0.1008     0.1008     0.0000     0.0000    -0.0000 </r>
      <r>     0.7450     0.1046     0.1046     0.1046     0.0000     0.0000    -0.0000 </r>
      <r>     0.7676     0.1086     0.1086     0.1086     0.0000     0.0000    -0.0000 </r>
      <r>     0.7902     0.1126     0.1126     0.1126     0.0000     0.0000    -0.0000 </r>
      <r>     0.8128     0.1166     0.1166     0.1166     0.0000     0.0000    -0.0000 </r>
      <r>     0.8353     0.1208     0.1208     0.1208     0.0000     0.0000    -0.0000 </r>
      <r>     0.8579     0.1251     0.1251     0.1251     0.0000     0.0000    -0.0000 </r>
      <r>     0.8805     0.1294     0.1294     0.1294     0.0000     0.0000    -0.0000 </r>
      <r>     0.9031     0.1339     0.1339     0.1339     0.0000     0.0000    -0.0000 </r>
      <r>     0.9257     0.1385     0.1385     0.1385     0.0000     0.0000    -0.0000 </r>
      <r>     0.9482     0.1432     0.1432     0.1432     0.0000     0.0000    -0.0000 </r>
      <r>     0.9708     0.1480     0.1480     0.1480     0.0000     0.0000    -0.0000 </r>
      <r>     0.9934     0.1529     0.1529     0.1529     0.0000     0.0000    -0.0000 </r>
      <r>     1.0160     0.1580     0.1580     0.1580     0.0000     0.0000    -0.0000 </r>
      <r>     1.0385     0.1633     0.1633     0.1633     0.0000     0.0000    -0.0000 </r>
      <r>     1.0611     0.1687     0.1687     0.1687     0.0000     0.0000    -0.0000 </r>
      <r>     1.0837     0.1743     0.1743     0.1743     0.0000     0.0000    -0.0000 </r>
      <r>     1.1063     0.1801     0.1801     0.1801     0.0000     0.0000    -0.0000 </r>
      <r>     1.1288     0.1861     0.1861     0.1861     0.0000     0.0000    -0.0000 </r>
      <r>     1.1514     0.1923     0.1923     0.1923     0.0000     0.0000    -0.0000 </r>
      <r>     1.1740     0.1988     0.1988     0.1988     0.0000     0.0000    -0.0000 </r>
      <r>     1.1966     0.2055     0.2055     0.2055     0.0000     0.0000    -0.0000 </r>
      <r>     1.2192     0.2125     0.2125     0.2125     0.0000     0.0000    -0.0000 </r>
      <r>     1.2417     0.2198     0.2198     0.2198     0.0000     0.0000    -0.0000 </r>
      <r>     1.2643     0.2275     0.2275     0.2275     0.0000     0.0000    -0.0000 </r>
      <r>     1.2869     0.2356     0.2356     0.2356     0.0000     0.0000    -0.0000 </r>
      <r>     1.3095     0.2442     0.2442     0.2442     0.0000     0.0000    -0.0000 </r>
      <r>     1.3320     0.2532     0.2532     0.2532     0.0000     0.0000    -0.0000 </r>
      <r>     1.3546     0.2629     0.2629     0.2629     0.0000     0.0000    -0.0000 </r>
      <r>     1.3772     0.2732     0.2732     0.2732     0.0000     0.0000    -0.0000 </r>
      <r>     1.3998     0.2843     0.2843     0.2843     0.0000     0.0000    -0.0000 </r>
      <r>     1.4223     0.2964     0.2964     0.2964     0.0000     0.0000    -0.0000 </r>
      <r>     1.4449     0.3096     0.3096     0.3096     0.0000     0.0000    -0.0000 </r>
      <r>     1.4675     0.3240     0.3240     0.3240     0.0000     0.0000    -0.0000 </r>
      <r>     1.4901     0.3399     0.3399     0.3399     0.0000     0.0000    -0.0000 </r>
      <r>     1.5127     0.3574     0.3574     0.3574     0.0000     0.0000    -0.0000 </r>
      <r>     1.5352     0.3765     0.3765     0.3765     0.0000     0.0000    -0.0000 </r>
      <r>     1.5578     0.3975     0.3975     0.3975     0.0000     0.0000    -0.0000 </r>
      <r>     1.5804     0.4203     0.4203     0.4203     0.0000     0.0000    -0.0000 </r>
      <r>     1.6030     0.4451     0.4451     0.4451     0.0000     0.0000    -0.0000 </r>
      <r>     1.6255     0.4719     0.4719     0.4719     0.0000     0.0000    -0.0000 </r>
      <r>     1.6481     0.5007     0.5007     0.5007     0.0000     0.0000    -0.0000 </r>
      <r>     1.6707     0.5316     0.5316     0.5316     0.0000     0.0000    -0.0000 </r>
      <r>     1.6933     0.5647     0.5647     0.5647     0.0000     0.0000    -0.0000 </r>
      <r>     1.7158     0.6001     0.6001     0.6001     0.0000     0.0000    -0.0000 </r>
      <r>     1.7384     0.6376     0.6376     0.6376     0.0000     0.0000    -0.0000 </r>
      <r>     1.7610     0.6774     0.6774     0.6774     0.0000     0.0000    -0.0000 </r>
      <r>     1.7836     0.7195     0.7195     0.7195     0.0000     0.0000    -0.0000 </r>
      <r>     1.8062     0.7640     0.7640     0.7640    -0.0000     0.0000    -0.0000 </r>
      <r>     1.8287     0.8109     0.8109     0.8109    -0.0000     0.0000    -0.0000 </r>
      <r>     1.8513     0.8602     0.8602     0.8602    -0.0000     0.0000    -0.0000 </r>
      <r>     1.8739     0.9120     0.9120     0.9120    -0.0000     0.0000    -0.0000 </r>
      <r>     1.8965     0.9663     0.9663     0.9663    -0.0000     0.0000    -0.0000 </r>
      <r>     1.9190     1.0233     1.0233     1.0233    -0.0000     0.0000    -0.0000 </r>
      <r>     1.9416     1.0830     1.0830     1.0830    -0.0000     0.0000    -0.0000 </r>
      <r>     1.9642     1.1454     1.1454     1.1454    -0.0000     0.0000    -0.0000 </r>
      <r>     1.9868     1.2106     1.2106     1.2106    -0.0000     0.0000    -0.0000 </r>
      <r>     2.0094     1.2787     1.2787     1.2787    -0.0000     0.0000    -0.0000 </r>
      <r>     2.0319     1.3499     1.3499     1.3499    -0.0000     0.0000    -0.0000 </r>
      <r>     2.0545     1.4241     1.4241     1.4241    -0.0000     0.0000    -0.0000 </r>
      <r>     2.0771     1.5015     1.5015     1.5015    -0.0000     0.0000    -0.0000 </r>
      <r>     2.0997     1.5823     1.5823     1.5823     0.0000     0.0000    -0.0000 </r>
      <r>     2.1222     1.6666     1.6666     1.6666     0.0000     0.0000    -0.0000 </r>
      <r>     2.1448     1.7546     1.7546     1.7546     0.0000     0.0000    -0.0000 </r>
      <r>     2.1674     1.8465     1.8465     1.8465     0.0000     0.0000    -0.0000 </r>
      <r>     2.1900     1.9426     1.9426     1.9426     0.0000     0.0000    -0.0000 </r>
      <r>     2.2125     2.0431     2.0431     2.0431     0.0000     0.0000    -0.0000 </r>
      <r>     2.2351     2.1486     2.1486     2.1486     0.0000     0.0000    -0.0000 </r>
      <r>     2.2577     2.2594     2.2594     2.2594     0.0000     0.0000    -0.0000 </r>
      <r>     2.2803     2.3763     2.3763     2.3763     0.0000     0.0000    -0.0000 </r>
      <r>     2.3029     2.5000     2.5000     2.5000     0.0000     0.0000    -0.0000 </r>
      <r>     2.3254     2.6315     2.6315     2.6315     0.0000     0.0000    -0.0000 </r>
      <r>     2.3480     2.7716     2.7716     2.7716     0.0000     0.0000    -0.0000 </r>
      <r>     2.3706     2.9218     2.9218     2.9218     0.0000     0.0000    -0.0000 </r>
      <r>     2.3932     3.0832     3.0832     3.0832     0.0000     0.0000    -0.0000 </r>
      <r>     2.4157     3.2577     3.2577     3.2577    -0.0000     0.0000    -0.0000 </r>
      <r>     2.4383     3.4474     3.4474     3.4474    -0.0000     0.0000    -0.0000 </r>
      <r>     2.4609     3.6555     3.6555     3.6555    -0.0000     0.0000    -0.0000 </r>
      <r>     2.4835     3.8861     3.8861     3.8861    -0.0000     0.0000    -0.0000 </r>
      <r>     2.5060     4.1450     4.1450     4.1450     0.0000     0.0000    -0.0000 </r>
      <r>     2.5286     4.4401     4.4401     4.4401     0.0000     0.0000    -0.0000 </r>
      <r>     2.5512     4.7814     4.7814     4.7814     0.0000     0.0000    -0.0000 </r>
      <r>     2.5738     5.1814     5.1814     5.1814     0.0000     0.0000    -0.0000 </r>
      <r>     2.5964     5.6513     5.6513     5.6513     0.0000     0.0000    -0.0000 </r>
      <r>     2.6189     6.1943     6.1943     6.1943     0.0000     0.0000    -0.0000 </r>
      <r>     2.6415     6.7893     6.7893     6.7893     0.0000     0.0000    -0.0000 </r>
      <r>     2.6641     7.3746     7.3746     7.3746     0.0000     0.0000    -0.0000 </r>
      <r>     2.6867     7.8587     7.8587     7.8587     0.0000     0.0000    -0.0000 </r>
      <r>     2.7092     8.1785     8.1785     8.1785     0.0000     0.0000    -0.0000 </r>
      <r>     2.7318     8.3460     8.3460     8.3460     0.0000     0.0000    -0.0000 </r>
      <r>     2.7544     8.4177     8.4177     8.4177     0.0000     0.0000    -0.0000 </r>
      <r>     2.7770     8.4421     8.4421     8.4421     0.0000     0.0000    -0.0000 </r>
      <r>     2.7995     8.4447     8.4447     8.4447     0.0000     0.0000    -0.0000 </r>
      <r>     2.8221     8.4384     8.4384     8.4384     0.0000     0.0000    -0.0000 </r>
      <r>     2.8447     8.4331     8.4331     8.4331     0.0000     0.0000    -0.0000 </r>
      <r>     2.8673     8.4396     8.4396     8.4396     0.0000     0.0000    -0.0000 </r>
      <r>     2.8899     8.4678     8.4678     8.4678    -0.0000     0.0000    -0.0000 </r>
      <r>     2.9124     8.5239     8.5239     8.5239    -0.0000     0.0000    -0.0000 </r>
      <r>     2.9350     8.6090     8.6090     8.6090    -0.0000     0.0000    -0.0000 </r>
      <r>     2.9576     8.7203     8.7203     8.7203    -0.0000     0.0000    -0.0000 </r>
      <r>     2.9802     8.8537     8.8537     8.8537    -0.0000     0.0000    -0.0000 </r>
      <r>     3.0027     9.0047     9.0047     9.0047    -0.0000     0.0000    -0.0000 </r>
      <r>     3.0253     9.1699     9.1699     9.1699    -0.0000    -0.0000     0.0000 </r>
      <r>     3.0479     9.3464     9.3464     9.3464    -0.0000    -0.0000     0.0000 </r>
      <r>     3.0705     9.5325     9.5325     9.5325    -0.0000    -0.0000     0.0000 </r>
      <r>     3.0930     9.7273     9.7273     9.7273    -0.0000    -0.0000     0.0000 </r>
      <r>     3.1156     9.9305     9.9305     9.9305    -0.0000    -0.0000     0.0000 </r>
      <r>     3.1382    10.1425    10.1425    10.1425    -0.0000    -0.0000     0.0000 </r>
      <r>     3.1608    10.3643    10.3643    10.3643    -0.0000     0.0000     0.0000 </r>
      <r>     3.1834    10.5975    10.5975    10.5975    -0.0000     0.0000     0.0000 </r>
      <r>     3.2059    10.8446    10.8446    10.8446    -0.0000     0.0000     0.0000 </r>
      <r>     3.2285    11.1095    11.1095    11.1095    -0.0000     0.0000     0.0000 </r>
      <r>     3.2511    11.3973    11.3973    11.3973    -0.0000     0.0000     0.0000 </r>
      <r>     3.2737    11.7146    11.7146    11.7146    -0.0000    -0.0000     0.0000 </r>
      <r>     3.2962    12.0688    12.0688    12.0688    -0.0000    -0.0000     0.0000 </r>
      <r>     3.3188    12.4650    12.4650    12.4650    -0.0000     0.0000     0.0000 </r>
      <r>     3.3414    12.8989    12.8989    12.8989    -0.0000     0.0000     0.0000 </r>
      <r>     3.3640    13.3446    13.3446    13.3446    -0.0000     0.0000     0.0000 </r>
      <r>     3.3865    13.7492    13.7492    13.7492    -0.0000     0.0000     0.0000 </r>
      <r>     3.4091    14.0512    14.0512    14.0512     0.0000     0.0000     0.0000 </r>
      <r>     3.4317    14.2149    14.2149    14.2149     0.0000     0.0000     0.0000 </r>
      <r>     3.4543    14.2491    14.2491    14.2491     0.0000     0.0000     0.0000 </r>
      <r>     3.4769    14.1937    14.1937    14.1937     0.0000     0.0000     0.0000 </r>
      <r>     3.4994    14.0951    14.0951    14.0951     0.0000     0.0000     0.0000 </r>
      <r>     3.5220    13.9909    13.9909    13.9909     0.0000     0.0000     0.0000 </r>
      <r>     3.5446    13.9077    13.9077    13.9077     0.0000     0.0000     0.0000 </r>
      <r>     3.5672    13.8643    13.8643    13.8643     0.0000     0.0000     0.0000 </r>
      <r>     3.5897    13.8732    13.8732    13.8732    -0.0000     0.0000    -0.0000 </r>
      <r>     3.6123    13.9427    13.9427    13.9427    -0.0000     0.0000    -0.0000 </r>
      <r>     3.6349    14.0796    14.0796    14.0796    -0.0000     0.0000    -0.0000 </r>
      <r>     3.6575    14.2909    14.2909    14.2909    -0.0000     0.0000    -0.0000 </r>
      <r>     3.6800    14.5811    14.5811    14.5811    -0.0000     0.0000    -0.0000 </r>
      <r>     3.7026    14.9415    14.9415    14.9415    -0.0000     0.0000    -0.0000 </r>
      <r>     3.7252    15.3377    15.3377    15.3377    -0.0000     0.0000    -0.0000 </r>
      <r>     3.7478    15.7149    15.7149    15.7149    -0.0000     0.0000    -0.0000 </r>
      <r>     3.7704    16.0408    16.0408    16.0408    -0.0000     0.0000    -0.0000 </r>
      <r>     3.7929    16.3351    16.3351    16.3351    -0.0000     0.0000    -0.0000 </r>
      <r>     3.8155    16.6355    16.6355    16.6355    -0.0000     0.0000    -0.0000 </r>
      <r>     3.8381    16.9489    16.9489    16.9489    -0.0000    -0.0000    -0.0000 </r>
      <r>     3.8607    17.2493    17.2493    17.2493    -0.0000    -0.0000    -0.0000 </r>
      <r>     3.8832    17.5070    17.5070    17.5070    -0.0000    -0.0000    -0.0000 </r>
      <r>     3.9058    17.7078    17.7078    17.7078    -0.0000    -0.0000    -0.0000 </r>
      <r>     3.9284    17.8505    17.8505    17.8505    -0.0000    -0.0000    -0.0000 </r>
      <r>     3.9510    17.9386    17.9386    17.9386    -0.0000    -0.0000    -0.0000 </r>
      <r>     3.9735    17.9791    17.9791    17.9791    -0.0000    -0.0000    -0.0000 </r>
      <r>     3.9961    17.9853    17.9853    17.9853    -0.0000    -0.0000    -0.0000 </r>
      <r>     4.0187    17.9784    17.9784    17.9784    -0.0000    -0.0000    -0.0000 </r>
      <r>     4.0413    17.9876    17.9876    17.9876    -0.0000    -0.0000    -0.0000 </r>
      <r>     4.0639    18.0466    18.0466    18.0466    -0.0000    -0.0000    -0.0000 </r>
      <r>     4.0864    18.1883    18.1883    18.1883    -0.0000    -0.0000    -0.0000 </r>
      <r>     4.1090    18.4384    18.4384    18.4384    -0.0000    -0.0000    -0.0000 </r>
      <r>     4.1316    18.8096    18.8096    18.8096    -0.0000    -0.0000    -0.0000 </r>
      <r>     4.1542    19.3000    19.3000    19.3000    -0.0000    -0.0000    -0.0000 </r>
      <r>     4.1767    19.8935    19.8935    19.8935     0.0000    -0.0000    -0.0000 </r>
      <r>     4.1993    20.5608    20.5608    20.5608     0.0000    -0.0000    -0.0000 </r>
      <r>     4.2219    21.2657    21.2657    21.2657     0.0000    -0.0000    -0.0000 </r>
      <r>     4.2445    21.9751    21.9751    21.9751     0.0000    -0.0000    -0.0000 </r>
      <r>     4.2670    22.6645    22.6645    22.6645     0.0000    -0.0000    -0.0000 </r>
      <r>     4.2896    23.3174    23.3174    23.3174     0.0000     0.0000    -0.0000 </r>
      <r>     4.3122    23.9199    23.9199    23.9199     0.0000     0.0000    -0.0000 </r>
      <r>     4.3348    24.4588    24.4588    24.4588     0.0000     0.0000    -0.0000 </r>
      <r>     4.3574    24.9248    24.9248    24.9248     0.0000     0.0000    -0.0000 </r>
      <r>     4.3799    25.3148    25.3148    25.3148     0.0000     0.0000    -0.0000 </r>
      <r>     4.4025    25.6290    25.6290    25.6290     0.0000     0.0000    -0.0000 </r>
      <r>     4.4251    25.8656    25.8656    25.8656     0.0000     0.0000    -0.0000 </r>
      <r>     4.4477    26.0207    26.0207    26.0207     0.0000     0.0000    -0.0000 </r>
      <r>     4.4702    26.0920    26.0920    26.0920     0.0000     0.0000    -0.0000 </r>
      <r>     4.4928    26.0816    26.0816    26.0816     0.0000     0.0000    -0.0000 </r>
      <r>     4.5154    25.9929    25.9929    25.9929     0.0000     0.0000    -0.0000 </r>
      <r>     4.5380    25.8245    25.8245    25.8245     0.0000     0.0000    -0.0000 </r>
      <r>     4.5605    25.5708    25.5708    25.5708     0.0000     0.0000    -0.0000 </r>
      <r>     4.5831    25.2316    25.2316    25.2316     0.0000     0.0000    -0.0000 </r>
      <r>     4.6057    24.8195    24.8195    24.8195     0.0000     0.0000    -0.0000 </r>
      <r>     4.6283    24.3578    24.3578    24.3578     0.0000     0.0000    -0.0000 </r>
      <r>     4.6509    23.8736    23.8736    23.8736     0.0000     0.0000    -0.0000 </r>
      <r>     4.6734    23.3935    23.3935    23.3935    -0.0000     0.0000    -0.0000 </r>
      <r>     4.6960    22.9431    22.9431    22.9431    -0.0000     0.0000    -0.0000 </r>
      <r>     4.7186    22.5454    22.5454    22.5454    -0.0000     0.0000    -0.0000 </r>
      <r>     4.7412    22.2163    22.2163    22.2163    -0.0000     0.0000    -0.0000 </r>
      <r>     4.7637    21.9601    21.9601    21.9601    -0.0000     0.0000    -0.0000 </r>
      <r>     4.7863    21.7705    21.7705    21.7705    -0.0000     0.0000    -0.0000 </r>
      <r>     4.8089    21.6353    21.6353    21.6353    -0.0000     0.0000    -0.0000 </r>
      <r>     4.8315    21.5398    21.5398    21.5398    -0.0000     0.0000    -0.0000 </r>
      <r>     4.8540    21.4679    21.4679    21.4679    -0.0000     0.0000    -0.0000 </r>
      <r>     4.8766    21.4017    21.4017    21.4017    -0.0000     0.0000    -0.0000 </r>
      <r>     4.8992    21.3219    21.3219    21.3219     0.0000     0.0000    -0.0000 </r>
      <r>     4.9218    21.2113    21.2113    21.2113     0.0000     0.0000    -0.0000 </r>
      <r>     4.9444    21.0625    21.0625    21.0625     0.0000     0.0000     0.0000 </r>
      <r>     4.9669    20.8816    20.8816    20.8816     0.0000     0.0000     0.0000 </r>
      <r>     4.9895    20.6793    20.6793    20.6793     0.0000     0.0000     0.0000 </r>
      <r>     5.0121    20.4625    20.4625    20.4625     0.0000     0.0000     0.0000 </r>
      <r>     5.0347    20.2324    20.2324    20.2324    -0.0000     0.0000     0.0000 </r>
      <r>     5.0572    19.9884    19.9884    19.9884    -0.0000     0.0000     0.0000 </r>
      <r>     5.0798    19.7301    19.7301    19.7301    -0.0000    -0.0000     0.0000 </r>
      <r>     5.1024    19.4595    19.4595    19.4595    -0.0000    -0.0000     0.0000 </r>
      <r>     5.1250    19.1814    19.1814    19.1814    -0.0000    -0.0000     0.0000 </r>
      <r>     5.1475    18.9026    18.9026    18.9026    -0.0000    -0.0000     0.0000 </r>
      <r>     5.1701    18.6292    18.6292    18.6292    -0.0000    -0.0000     0.0000 </r>
      <r>     5.1927    18.3635    18.3635    18.3635     0.0000    -0.0000     0.0000 </r>
      <r>     5.2153    18.1028    18.1028    18.1028     0.0000    -0.0000     0.0000 </r>
      <r>     5.2379    17.8401    17.8401    17.8401     0.0000    -0.0000     0.0000 </r>
      <r>     5.2604    17.5673    17.5673    17.5673     0.0000    -0.0000     0.0000 </r>
      <r>     5.2830    17.2777    17.2777    17.2777     0.0000    -0.0000     0.0000 </r>
      <r>     5.3056    16.9659    16.9659    16.9659     0.0000    -0.0000     0.0000 </r>
      <r>     5.3282    16.6276    16.6276    16.6276     0.0000    -0.0000     0.0000 </r>
      <r>     5.3507    16.2607    16.2607    16.2607     0.0000    -0.0000     0.0000 </r>
      <r>     5.3733    15.8677    15.8677    15.8677     0.0000    -0.0000     0.0000 </r>
      <r>     5.3959    15.4559    15.4559    15.4559     0.0000     0.0000     0.0000 </r>
      <r>     5.4185    15.0342    15.0342    15.0342     0.0000     0.0000     0.0000 </r>
      <r>     5.4411    14.6099    14.6099    14.6099     0.0000     0.0000     0.0000 </r>
      <r>     5.4636    14.1867    14.1867    14.1867     0.0000     0.0000     0.0000 </r>
      <r>     5.4862    13.7648    13.7648    13.7648     0.0000     0.0000     0.0000 </r>
      <r>     5.5088    13.3430    13.3430    13.3430     0.0000     0.0000     0.0000 </r>
      <r>     5.5314    12.9235    12.9235    12.9235     0.0000     0.0000     0.0000 </r>
      <r>     5.5539    12.5166    12.5166    12.5166     0.0000     0.0000    -0.0000 </r>
      <r>     5.5765    12.1380    12.1380    12.1380     0.0000     0.0000    -0.0000 </r>
      <r>     5.5991    11.8010    11.8010    11.8010    -0.0000     0.0000    -0.0000 </r>
      <r>     5.6217    11.5115    11.5115    11.5115    -0.0000     0.0000    -0.0000 </r>
      <r>     5.6442    11.2702    11.2702    11.2702    -0.0000    -0.0000    -0.0000 </r>
      <r>     5.6668    11.0766    11.0766    11.0766    -0.0000    -0.0000    -0.0000 </r>
      <r>     5.6894    10.9333    10.9333    10.9333    -0.0000    -0.0000    -0.0000 </r>
      <r>     5.7120    10.8444    10.8444    10.8444    -0.0000    -0.0000    -0.0000 </r>
      <r>     5.7346    10.8140    10.8140    10.8140    -0.0000     0.0000    -0.0000 </r>
      <r>     5.7571    10.8431    10.8431    10.8431    -0.0000     0.0000    -0.0000 </r>
      <r>     5.7797    10.9281    10.9281    10.9281    -0.0000     0.0000    -0.0000 </r>
      <r>     5.8023    11.0571    11.0571    11.0571    -0.0000     0.0000    -0.0000 </r>
      <r>     5.8249    11.2110    11.2110    11.2110    -0.0000     0.0000    -0.0000 </r>
      <r>     5.8474    11.3727    11.3727    11.3727    -0.0000     0.0000    -0.0000 </r>
      <r>     5.8700    11.5332    11.5332    11.5332    -0.0000     0.0000    -0.0000 </r>
      <r>     5.8926    11.6836    11.6836    11.6836    -0.0000     0.0000    -0.0000 </r>
      <r>     5.9152    11.8089    11.8089    11.8089    -0.0000     0.0000    -0.0000 </r>
      <r>     5.9377    11.8847    11.8847    11.8847    -0.0000     0.0000    -0.0000 </r>
      <r>     5.9603    11.8760    11.8760    11.8760    -0.0000     0.0000    -0.0000 </r>
      <r>     5.9829    11.7510    11.7510    11.7510    -0.0000     0.0000    -0.0000 </r>
      <r>     6.0055    11.5035    11.5035    11.5035    -0.0000     0.0000    -0.0000 </r>
      <r>     6.0281    11.1602    11.1602    11.1602    -0.0000     0.0000    -0.0000 </r>
      <r>     6.0506    10.7642    10.7642    10.7642    -0.0000     0.0000    -0.0000 </r>
      <r>     6.0732    10.3529    10.3529    10.3529     0.0000     0.0000    -0.0000 </r>
      <r>     6.0958     9.9487     9.9487     9.9487     0.0000     0.0000    -0.0000 </r>
      <r>     6.1184     9.5604     9.5604     9.5604     0.0000     0.0000     0.0000 </r>
      <r>     6.1409     9.1900     9.1900     9.1900     0.0000     0.0000     0.0000 </r>
      <r>     6.1635     8.8374     8.8374     8.8374     0.0000     0.0000    -0.0000 </r>
      <r>     6.1861     8.5024     8.5024     8.5024     0.0000     0.0000    -0.0000 </r>
      <r>     6.2087     8.1841     8.1841     8.1841     0.0000     0.0000    -0.0000 </r>
      <r>     6.2312     7.8816     7.8816     7.8816     0.0000     0.0000    -0.0000 </r>
      <r>     6.2538     7.5936     7.5936     7.5936     0.0000     0.0000    -0.0000 </r>
      <r>     6.2764     7.3188     7.3188     7.3188     0.0000     0.0000    -0.0000 </r>
      <r>     6.2990     7.0558     7.0558     7.0558     0.0000     0.0000    -0.0000 </r>
      <r>     6.3216     6.8034     6.8034     6.8034     0.0000     0.0000    -0.0000 </r>
      <r>     6.3441     6.5606     6.5606     6.5606     0.0000     0.0000    -0.0000 </r>
      <r>     6.3667     6.3268     6.3268     6.3268     0.0000     0.0000    -0.0000 </r>
      <r>     6.3893     6.1025     6.1025     6.1025     0.0000     0.0000    -0.0000 </r>
      <r>     6.4119     5.8893     5.8893     5.8893     0.0000     0.0000    -0.0000 </r>
      <r>     6.4344     5.6891     5.6891     5.6891     0.0000     0.0000    -0.0000 </r>
      <r>     6.4570     5.5042     5.5042     5.5042     0.0000     0.0000    -0.0000 </r>
      <r>     6.4796     5.3359     5.3359     5.3359     0.0000     0.0000    -0.0000 </r>
      <r>     6.5022     5.1831     5.1831     5.1831     0.0000     0.0000    -0.0000 </r>
      <r>     6.5247     5.0397     5.0397     5.0397     0.0000     0.0000    -0.0000 </r>
      <r>     6.5473     4.8955     4.8955     4.8955     0.0000     0.0000    -0.0000 </r>
      <r>     6.5699     4.7436     4.7436     4.7436     0.0000     0.0000    -0.0000 </r>
      <r>     6.5925     4.5873     4.5873     4.5873     0.0000     0.0000    -0.0000 </r>
      <r>     6.6151     4.4361     4.4361     4.4361     0.0000     0.0000    -0.0000 </r>
      <r>     6.6376     4.2975     4.2975     4.2975     0.0000     0.0000    -0.0000 </r>
      <r>     6.6602     4.1752     4.1752     4.1752     0.0000     0.0000    -0.0000 </r>
      <r>     6.6828     4.0703     4.0703     4.0703     0.0000     0.0000    -0.0000 </r>
      <r>     6.7054     3.9823     3.9823     3.9823     0.0000     0.0000    -0.0000 </r>
      <r>     6.7279     3.9097     3.9097     3.9097     0.0000     0.0000    -0.0000 </r>
      <r>     6.7505     3.8506     3.8506     3.8506     0.0000     0.0000    -0.0000 </r>
      <r>     6.7731     3.8029     3.8029     3.8029     0.0000     0.0000    -0.0000 </r>
      <r>     6.7957     3.7650     3.7650     3.7650     0.0000     0.0000    -0.0000 </r>
      <r>     6.8182     3.7353     3.7353     3.7353     0.0000     0.0000    -0.0000 </r>
      <r>     6.8408     3.7126     3.7126     3.7126     0.0000     0.0000    -0.0000 </r>
      <r>     6.8634     3.6959     3.6959     3.6959     0.0000     0.0000    -0.0000 </r>
      <r>     6.8860     3.6843     3.6843     3.6843     0.0000     0.0000    -0.0000 </r>
      <r>     6.9086     3.6772     3.6772     3.6772     0.0000     0.0000    -0.0000 </r>
      <r>     6.9311     3.6743     3.6743     3.6743     0.0000     0.0000    -0.0000 </r>
      <r>     6.9537     3.6754     3.6754     3.6754     0.0000     0.0000    -0.0000 </r>
      <r>     6.9763     3.6806     3.6806     3.6806     0.0000     0.0000    -0.0000 </r>
      <r>     6.9989     3.6899     3.6899     3.6899     0.0000     0.0000    -0.0000 </r>
      <r>     7.0214     3.7035     3.7035     3.7035     0.0000     0.0000    -0.0000 </r>
      <r>     7.0440     3.7215     3.7215     3.7215     0.0000     0.0000    -0.0000 </r>
      <r>     7.0666     3.7446     3.7446     3.7446     0.0000     0.0000    -0.0000 </r>
      <r>     7.0892     3.7738     3.7738     3.7738     0.0000     0.0000    -0.0000 </r>
      <r>     7.1117     3.8098     3.8098     3.8098     0.0000     0.0000    -0.0000 </r>
      <r>     7.1343     3.8522     3.8522     3.8522     0.0000     0.0000    -0.0000 </r>
      <r>     7.1569     3.8974     3.8974     3.8974     0.0000     0.0000    -0.0000 </r>
      <r>     7.1795     3.9393     3.9393     3.9393     0.0000     0.0000    -0.0000 </r>
      <r>     7.2021     3.9706     3.9706     3.9706     0.0000     0.0000    -0.0000 </r>
      <r>     7.2246     3.9845     3.9845     3.9845    -0.0000     0.0000    -0.0000 </r>
      <r>     7.2472     3.9747     3.9747     3.9747    -0.0000     0.0000    -0.0000 </r>
      <r>     7.2698     3.9371     3.9371     3.9371    -0.0000     0.0000    -0.0000 </r>
      <r>     7.2924     3.8728     3.8728     3.8728    -0.0000     0.0000    -0.0000 </r>
      <r>     7.3149     3.7891     3.7891     3.7891    -0.0000     0.0000    -0.0000 </r>
      <r>     7.3375     3.6974     3.6974     3.6974    -0.0000     0.0000     0.0000 </r>
      <r>     7.3601     3.6075     3.6075     3.6075    -0.0000     0.0000     0.0000 </r>
      <r>     7.3827     3.5244     3.5244     3.5244    -0.0000     0.0000     0.0000 </r>
      <r>     7.4052     3.4493     3.4493     3.4493    -0.0000     0.0000     0.0000 </r>
      <r>     7.4278     3.3813     3.3813     3.3813    -0.0000     0.0000     0.0000 </r>
      <r>     7.4504     3.3193     3.3193     3.3193    -0.0000     0.0000     0.0000 </r>
      <r>     7.4730     3.2618     3.2618     3.2618    -0.0000     0.0000     0.0000 </r>
      <r>     7.4956     3.2082     3.2082     3.2082    -0.0000     0.0000     0.0000 </r>
      <r>     7.5181     3.1580     3.1580     3.1580    -0.0000     0.0000     0.0000 </r>
      <r>     7.5407     3.1111     3.1111     3.1111    -0.0000     0.0000     0.0000 </r>
      <r>     7.5633     3.0674     3.0674     3.0674    -0.0000     0.0000     0.0000 </r>
      <r>     7.5859     3.0270     3.0270     3.0270    -0.0000     0.0000     0.0000 </r>
      <r>     7.6084     2.9890     2.9890     2.9890    -0.0000     0.0000    -0.0000 </r>
      <r>     7.6310     2.9523     2.9523     2.9523    -0.0000     0.0000    -0.0000 </r>
      <r>     7.6536     2.9152     2.9152     2.9152    -0.0000     0.0000    -0.0000 </r>
      <r>     7.6762     2.8769     2.8769     2.8769    -0.0000     0.0000    -0.0000 </r>
      <r>     7.6987     2.8369     2.8369     2.8369    -0.0000     0.0000    -0.0000 </r>
      <r>     7.7213     2.7953     2.7953     2.7953    -0.0000     0.0000    -0.0000 </r>
      <r>     7.7439     2.7526     2.7526     2.7526    -0.0000     0.0000    -0.0000 </r>
      <r>     7.7665     2.7089     2.7089     2.7089    -0.0000    -0.0000    -0.0000 </r>
      <r>     7.7891     2.6645     2.6645     2.6645    -0.0000    -0.0000    -0.0000 </r>
      <r>     7.8116     2.6191     2.6191     2.6191    -0.0000    -0.0000    -0.0000 </r>
      <r>     7.8342     2.5726     2.5726     2.5726    -0.0000     0.0000    -0.0000 </r>
      <r>     7.8568     2.5252     2.5252     2.5252    -0.0000     0.0000    -0.0000 </r>
      <r>     7.8794     2.4771     2.4771     2.4771    -0.0000     0.0000    -0.0000 </r>
      <r>     7.9019     2.4293     2.4293     2.4293     0.0000     0.0000    -0.0000 </r>
      <r>     7.9245     2.3824     2.3824     2.3824     0.0000     0.0000    -0.0000 </r>
      <r>     7.9471     2.3372     2.3372     2.3372     0.0000     0.0000     0.0000 </r>
      <r>     7.9697     2.2937     2.2937     2.2937     0.0000     0.0000     0.0000 </r>
      <r>     7.9922     2.2519     2.2519     2.2519     0.0000    -0.0000     0.0000 </r>
      <r>     8.0148     2.2119     2.2119     2.2119     0.0000    -0.0000     0.0000 </r>
      <r>     8.0374     2.1733     2.1733     2.1733     0.0000     0.0000     0.0000 </r>
      <r>     8.0600     2.1360     2.1360     2.1360     0.0000     0.0000     0.0000 </r>
      <r>     8.0826     2.0991     2.0991     2.0991     0.0000     0.0000     0.0000 </r>
      <r>     8.1051     2.0614     2.0614     2.0614     0.0000     0.0000     0.0000 </r>
      <r>     8.1277     2.0206     2.0206     2.0206    -0.0000     0.0000     0.0000 </r>
      <r>     8.1503     1.9749     1.9749     1.9749    -0.0000     0.0000     0.0000 </r>
      <r>     8.1729     1.9241     1.9241     1.9241    -0.0000     0.0000     0.0000 </r>
      <r>     8.1954     1.8698     1.8698     1.8698    -0.0000     0.0000     0.0000 </r>
      <r>     8.2180     1.8140     1.8140     1.8140    -0.0000     0.0000     0.0000 </r>
      <r>     8.2406     1.7580     1.7580     1.7580    -0.0000     0.0000     0.0000 </r>
      <r>     8.2632     1.7018     1.7018     1.7018    -0.0000     0.0000     0.0000 </r>
      <r>     8.2857     1.6453     1.6453     1.6453    -0.0000     0.0000     0.0000 </r>
      <r>     8.3083     1.5880     1.5880     1.5880     0.0000     0.0000     0.0000 </r>
      <r>     8.3309     1.5304     1.5304     1.5304     0.0000     0.0000     0.0000 </r>
      <r>     8.3535     1.4740     1.4740     1.4740     0.0000     0.0000     0.0000 </r>
      <r>     8.3761     1.4207     1.4207     1.4207     0.0000     0.0000     0.0000 </r>
      <r>     8.3986     1.3723     1.3723     1.3723     0.0000     0.0000     0.0000 </r>
      <r>     8.4212     1.3293     1.3293     1.3293     0.0000     0.0000     0.0000 </r>
      <r>     8.4438     1.2918     1.2918     1.2918     0.0000     0.0000     0.0000 </r>
      <r>     8.4664     1.2598     1.2598     1.2598     0.0000     0.0000     0.0000 </r>
      <r>     8.4889     1.2330     1.2330     1.2330     0.0000     0.0000     0.0000 </r>
      <r>     8.5115     1.2109     1.2109     1.2109     0.0000     0.0000     0.0000 </r>
      <r>     8.5341     1.1931     1.1931     1.1931     0.0000     0.0000     0.0000 </r>
      <r>     8.5567     1.1790     1.1790     1.1790     0.0000     0.0000     0.0000 </r>
      <r>     8.5792     1.1680     1.1680     1.1680     0.0000     0.0000    -0.0000 </r>
      <r>     8.6018     1.1587     1.1587     1.1587     0.0000     0.0000    -0.0000 </r>
      <r>     8.6244     1.1496     1.1496     1.1496     0.0000     0.0000    -0.0000 </r>
      <r>     8.6470     1.1390     1.1390     1.1390     0.0000     0.0000    -0.0000 </r>
      <r>     8.6696     1.1252     1.1252     1.1252     0.0000     0.0000    -0.0000 </r>
      <r>     8.6921     1.1077     1.1077     1.1077     0.0000     0.0000    -0.0000 </r>
      <r>     8.7147     1.0868     1.0868     1.0868     0.0000     0.0000    -0.0000 </r>
      <r>     8.7373     1.0638     1.0638     1.0638    -0.0000     0.0000    -0.0000 </r>
      <r>     8.7599     1.0404     1.0404     1.0404    -0.0000     0.0000    -0.0000 </r>
      <r>     8.7824     1.0183     1.0183     1.0183    -0.0000     0.0000    -0.0000 </r>
      <r>     8.8050     0.9986     0.9986     0.9986    -0.0000     0.0000    -0.0000 </r>
      <r>     8.8276     0.9817     0.9817     0.9817    -0.0000     0.0000    -0.0000 </r>
      <r>     8.8502     0.9668     0.9668     0.9668     0.0000     0.0000    -0.0000 </r>
      <r>     8.8727     0.9527     0.9527     0.9527     0.0000     0.0000    -0.0000 </r>
      <r>     8.8953     0.9381     0.9381     0.9381     0.0000     0.0000    -0.0000 </r>
      <r>     8.9179     0.9218     0.9218     0.9218     0.0000     0.0000     0.0000 </r>
      <r>     8.9405     0.9032     0.9032     0.9032     0.0000     0.0000     0.0000 </r>
      <r>     8.9631     0.8827     0.8827     0.8827     0.0000     0.0000     0.0000 </r>
      <r>     8.9856     0.8613     0.8613     0.8613     0.0000     0.0000     0.0000 </r>
      <r>     9.0082     0.8400     0.8400     0.8400     0.0000     0.0000     0.0000 </r>
      <r>     9.0308     0.8196     0.8196     0.8196     0.0000     0.0000     0.0000 </r>
      <r>     9.0534     0.8002     0.8002     0.8002     0.0000     0.0000     0.0000 </r>
      <r>     9.0759     0.7816     0.7816     0.7816     0.0000     0.0000     0.0000 </r>
      <r>     9.0985     0.7637     0.7637     0.7637    -0.0000     0.0000     0.0000 </r>
      <r>     9.1211     0.7463     0.7463     0.7463    -0.0000     0.0000     0.0000 </r>
      <r>     9.1437     0.7292     0.7292     0.7292    -0.0000     0.0000     0.0000 </r>
      <r>     9.1663     0.7126     0.7126     0.7126    -0.0000     0.0000     0.0000 </r>
      <r>     9.1888     0.6967     0.6967     0.6967    -0.0000     0.0000     0.0000 </r>
      <r>     9.2114     0.6817     0.6817     0.6817    -0.0000     0.0000     0.0000 </r>
      <r>     9.2340     0.6679     0.6679     0.6679    -0.0000     0.0000     0.0000 </r>
      <r>     9.2566     0.6552     0.6552     0.6552    -0.0000     0.0000     0.0000 </r>
      <r>     9.2791     0.6431     0.6431     0.6431    -0.0000     0.0000     0.0000 </r>
      <r>     9.3017     0.6307     0.6307     0.6307    -0.0000     0.0000     0.0000 </r>
      <r>     9.3243     0.6170     0.6170     0.6170    -0.0000     0.0000     0.0000 </r>
      <r>     9.3469     0.6018     0.6018     0.6018    -0.0000     0.0000     0.0000 </r>
      <r>     9.3694     0.5857     0.5857     0.5857    -0.0000     0.0000     0.0000 </r>
      <r>     9.3920     0.5693     0.5693     0.5693     0.0000     0.0000     0.0000 </r>
      <r>     9.4146     0.5535     0.5535     0.5535     0.0000     0.0000     0.0000 </r>
      <r>     9.4372     0.5388     0.5388     0.5388     0.0000     0.0000     0.0000 </r>
      <r>     9.4598     0.5253     0.5253     0.5253    -0.0000     0.0000     0.0000 </r>
      <r>     9.4823     0.5133     0.5133     0.5133    -0.0000     0.0000     0.0000 </r>
      <r>     9.5049     0.5023     0.5023     0.5023    -0.0000     0.0000     0.0000 </r>
      <r>     9.5275     0.4920     0.4920     0.4920    -0.0000     0.0000     0.0000 </r>
      <r>     9.5501     0.4821     0.4821     0.4821     0.0000     0.0000     0.0000 </r>
      <r>     9.5726     0.4724     0.4724     0.4724     0.0000     0.0000    -0.0000 </r>
      <r>     9.5952     0.4625     0.4625     0.4625     0.0000     0.0000    -0.0000 </r>
      <r>     9.6178     0.4524     0.4524     0.4524     0.0000     0.0000    -0.0000 </r>
      <r>     9.6404     0.4419     0.4419     0.4419     0.0000     0.0000    -0.0000 </r>
      <r>     9.6629     0.4307     0.4307     0.4307     0.0000     0.0000    -0.0000 </r>
      <r>     9.6855     0.4188     0.4188     0.4188    -0.0000     0.0000    -0.0000 </r>
      <r>     9.7081     0.4065     0.4065     0.4065    -0.0000     0.0000    -0.0000 </r>
      <r>     9.7307     0.3941     0.3941     0.3941    -0.0000     0.0000    -0.0000 </r>
      <r>     9.7533     0.3816     0.3816     0.3816    -0.0000     0.0000    -0.0000 </r>
      <r>     9.7758     0.3692     0.3692     0.3692    -0.0000    -0.0000    -0.0000 </r>
      <r>     9.7984     0.3569     0.3569     0.3569    -0.0000    -0.0000    -0.0000 </r>
      <r>     9.8210     0.3450     0.3450     0.3450    -0.0000    -0.0000    -0.0000 </r>
      <r>     9.8436     0.3338     0.3338     0.3338    -0.0000    -0.0000    -0.0000 </r>
      <r>     9.8661     0.3235     0.3235     0.3235    -0.0000    -0.0000    -0.0000 </r>
      <r>     9.8887     0.3140     0.3140     0.3140    -0.0000    -0.0000    -0.0000 </r>
      <r>     9.9113     0.3052     0.3052     0.3052    -0.0000    -0.0000    -0.0000 </r>
      <r>     9.9339     0.2969     0.2969     0.2969    -0.0000     0.0000    -0.0000 </r>
      <r>     9.9564     0.2890     0.2890     0.2890    -0.0000     0.0000     0.0000 </r>
      <r>     9.9790     0.2814     0.2814     0.2814    -0.0000     0.0000     0.0000 </r>
      <r>    10.0016     0.2740     0.2740     0.2740    -0.0000     0.0000    -0.0000 </r>
      <r>    10.0242     0.2671     0.2671     0.2671    -0.0000     0.0000    -0.0000 </r>
      <r>    10.0468     0.2607     0.2607     0.2607    -0.0000     0.0000    -0.0000 </r>
      <r>    10.0693     0.2548     0.2548     0.2548    -0.0000     0.0000    -0.0000 </r>
      <r>    10.0919     0.2495     0.2495     0.2495    -0.0000     0.0000    -0.0000 </r>
      <r>    10.1145     0.2448     0.2448     0.2448    -0.0000     0.0000    -0.0000 </r>
      <r>    10.1371     0.2406     0.2406     0.2406    -0.0000     0.0000    -0.0000 </r>
      <r>    10.1596     0.2370     0.2370     0.2370    -0.0000     0.0000    -0.0000 </r>
      <r>    10.1822     0.2339     0.2339     0.2339    -0.0000     0.0000    -0.0000 </r>
      <r>    10.2048     0.2312     0.2312     0.2312     0.0000     0.0000    -0.0000 </r>
      <r>    10.2274     0.2289     0.2289     0.2289     0.0000     0.0000    -0.0000 </r>
      <r>    10.2499     0.2269     0.2269     0.2269     0.0000     0.0000    -0.0000 </r>
      <r>    10.2725     0.2252     0.2252     0.2252     0.0000     0.0000    -0.0000 </r>
      <r>    10.2951     0.2237     0.2237     0.2237     0.0000     0.0000    -0.0000 </r>
      <r>    10.3177     0.2223     0.2223     0.2223     0.0000    -0.0000     0.0000 </r>
      <r>    10.3403     0.2209     0.2209     0.2209     0.0000    -0.0000     0.0000 </r>
[...]
     <r>     8.3298     0.1077     0.1077     0.1077     0.0000     0.0000    -0.0000 </r>
     <r>     8.3398     0.1089     0.1089     0.1089     0.0000     0.0000     0.0000 </r>
     <r>     8.3498     0.1101     0.1101     0.1101    -0.0000     0.0000     0.0000 </r>
     <r>     8.3598     0.1113     0.1113     0.1113    -0.0000     0.0000     0.0000 </r>
     <r>     8.3698     0.1125     0.1125     0.1125    -0.0000    -0.0000    -0.0000 </r>
     <r>     8.3798     0.1137     0.1137     0.1137    -0.0000    -0.0000    -0.0000 </r>
     <r>     8.3898     0.1150     0.1150     0.1150    -0.0000    -0.0000     0.0000 </r>
     <r>     8.3998     0.1162     0.1162     0.1162    -0.0000    -0.0000     0.0000 </r>
     <r>     8.4099     0.1175     0.1175     0.1175    -0.0000     0.0000    -0.0000 </r>
     <r>     8.4199     0.1187     0.1187     0.1187    -0.0000    -0.0000     0.0000 </r>
     <r>     8.4299     0.1200     0.1200     0.1200     0.0000    -0.0000     0.0000 </r>
     <r>     8.4399     0.1213     0.1213     0.1213    -0.0000     0.0000     0.0000 </r>
     <r>     8.4499     0.1264     0.1264     0.1264    -0.0000    -0.0000     0.0000 </r>
     <r>     8.4599     0.1276     0.1276     0.1276     0.0000     0.0000    -0.0000 </r>
     <r>     8.4699     0.1301     0.1301     0.1301     0.0000    -0.0000     0.0000 </r>
     <r>     8.4799     0.1328     0.1328     0.1328    -0.0000     0.0000     0.0000 </r>
     <r>     8.4899     0.1355     0.1355     0.1355     0.0000     0.0000    -0.0000 </r>
     <r>     8.4999     0.1383     0.1383     0.1383    -0.0000    -0.0000    -0.0000 </r>
     <r>     8.5100     0.1412     0.1412     0.1412    -0.0000    -0.0000    -0.0000 </r>
     <r>     8.5200     0.1441     0.1441     0.1441     0.0000     0.0000    -0.0000 </r>
     <r>     8.5300     0.1471     0.1471     0.1471     0.0000     0.0000     0.0000 </r>
     <r>     8.5400     0.1582     0.1582     0.1582    -0.0000    -0.0000    -0.0000 </r>
     <r>     8.5500     0.1611     0.1611     0.1611    -0.0000     0.0000    -0.0000 </r>
     <r>     8.5600     0.1638     0.1638     0.1638     0.0000     0.0000     0.0000 </r>
     <r>     8.5700     0.1664     0.1664     0.1664     0.0000     0.0000    -0.0000 </r>
     <r>     8.5800     0.1750     0.1750     0.1750    -0.0000    -0.0000    -0.0000 </r>
     <r>     8.5900     0.1772     0.1772     0.1772     0.0000    -0.0000     0.0000 </r>
     <r>     8.6000     0.1790     0.1790     0.1790     0.0000     0.0000     0.0000 </r>
     <r>     8.6101     0.1805     0.1805     0.1805    -0.0000    -0.0000    -0.0000 </r>
     <r>     8.6201     0.1817     0.1817     0.1817     0.0000    -0.0000     0.0000 </r>
     <r>     8.6301     0.1826     0.1826     0.1826     0.0000     0.0000     0.0000 </r>
     <r>     8.6401     0.1831     0.1831     0.1831     0.0000    -0.0000     0.0000 </r>
     <r>     8.6501     0.1833     0.1833     0.1833     0.0000     0.0000     0.0000 </r>
     <r>     8.6601     0.1832     0.1832     0.1832    -0.0000     0.0000    -0.0000 </r>
     <r>     8.6701     0.1828     0.1828     0.1828    -0.0000    -0.0000     0.0000 </r>
     <r>     8.6801     0.1821     0.1821     0.1821    -0.0000    -0.0000     0.0000 </r>
     <r>     8.6901     0.1810     0.1810     0.1810     0.0000    -0.0000     0.0000 </r>
     <r>     8.7001     0.1796     0.1796     0.1796    -0.0000    -0.0000     0.0000 </r>
     <r>     8.7102     0.1779     0.1779     0.1779    -0.0000    -0.0000    -0.0000 </r>
     <r>     8.7202     0.1758     0.1758     0.1758     0.0000    -0.0000    -0.0000 </r>
    </set>
   </array>
  </conductivity>
  <dos>
   <i name="efermi">      3.72016994 </i>
   <total>
    <array>
     <dimension dim="1">gridpoints</dimension>
     <dimension dim="2">spin</dimension>
     <field>energy</field>
     <field>total</field>
     <field>integrated</field>
     <set>
      <set comment="spin 1">
       <r>   -10.8387     0.0000     0.0000 </r>
       <r>   -10.7694     0.0000     0.0000 </r>
       <r>   -10.7001     0.0000     0.0000 </r>
       <r>   -10.6308     0.0000     0.0000 </r>
       <r>   -10.5615     0.0000     0.0000 </r>
       <r>   -10.4921     0.0000     0.0000 </r>
       <r>   -10.4228     0.0000     0.0000 </r>
       <r>   -10.3535     0.0000     0.0000 </r>
       <r>   -10.2842     0.0000     0.0000 </r>
       <r>   -10.2149     0.0000     0.0000 </r>
       <r>   -10.1455     0.0000     0.0000 </r>
       <r>   -10.0762     0.0000     0.0000 </r>
       <r>   -10.0069     0.0000     0.0000 </r>
       <r>    -9.9376     0.0000     0.0000 </r>
       <r>    -9.8683     0.0000     0.0000 </r>
       <r>    -9.7990     0.0232     0.0003 </r>
       <r>    -9.7296     0.1747     0.0064 </r>
       <r>    -9.6603     0.4635     0.0278 </r>
       <r>    -9.5910     0.7075     0.0692 </r>
       <r>    -9.5217     0.8077     0.1225 </r>
       <r>    -9.4524     0.8339     0.1792 </r>
       <r>    -9.3831     0.9139     0.2394 </r>
       <r>    -9.3137     1.0407     0.3070 </r>
       <r>    -9.2444     1.1787     0.3839 </r>
       <r>    -9.1751     1.4687     0.4719 </r>
       <r>    -9.1058     2.0965     0.5965 </r>
       <r>    -9.0365     2.5043     0.7585 </r>
       <r>    -8.9671     2.1204     0.9183 </r>
       <r>    -8.8978     1.8267     1.0541 </r>
       <r>    -8.8285     1.8167     1.1805 </r>
       <r>    -8.7592     1.7866     1.3055 </r>
       <r>    -8.6899     1.7365     1.4277 </r>
       <r>    -8.6206     1.6664     1.5458 </r>
       <r>    -8.5512     1.9333     1.6964 </r>
       <r>    -8.4819     1.0235     1.8028 </r>
       <r>    -8.4126     1.1153     1.8698 </r>
       <r>    -8.3433     1.9779     1.9760 </r>
       <r>    -8.2740     2.6831     2.1442 </r>
       <r>    -8.2047     2.8339     2.3361 </r>
       <r>    -8.1353     3.1145     2.5404 </r>
       <r>    -8.0660     3.1977     2.7515 </r>
       <r>    -7.9967     3.4504     2.9823 </r>
       <r>    -7.9274     6.9659     3.3995 </r>
       <r>    -7.8581     5.3809     3.8420 </r>
       <r>    -7.7887     3.8485     4.1390 </r>
       <r>    -7.7194     3.3878     4.3655 </r>
       <r>    -7.6501     3.6648     4.6097 </r>
       <r>    -7.5808     5.0923     4.8876 </r>
       <r>    -7.5115     6.0306     5.2936 </r>
       <r>    -7.4422     6.1302     5.7208 </r>
       <r>    -7.3728     7.1226     6.1841 </r>
       <r>    -7.3035     6.2872     6.6556 </r>
       <r>    -7.2342     4.7238     7.0044 </r>
       <r>    -7.1649     4.3591     7.3191 </r>
       <r>    -7.0956     4.0489     7.6125 </r>
       <r>    -7.0262     3.4092     7.8694 </r>
       <r>    -6.9569     0.0000     8.0000 </r>
       <r>    -6.8876     0.0000     8.0000 </r>
       <r>    -6.8183     0.0000     8.0000 </r>
       <r>    -6.7490     0.0000     8.0000 </r>
       <r>    -6.6797     0.0000     8.0000 </r>
       <r>    -6.6103     0.0000     8.0000 </r>
       <r>    -6.5410     0.0000     8.0000 </r>
       <r>    -6.4717     0.0000     8.0000 </r>
       <r>    -6.4024     0.0000     8.0000 </r>
       <r>    -6.3331     0.0000     8.0000 </r>
       <r>    -6.2638     0.0000     8.0000 </r>
       <r>    -6.1944     0.0000     8.0000 </r>
       <r>    -6.1251     0.0000     8.0000 </r>
       <r>    -6.0558     0.0000     8.0000 </r>
       <r>    -5.9865     0.0000     8.0000 </r>
       <r>    -5.9172     0.0000     8.0000 </r>
       <r>    -5.8478     0.0000     8.0000 </r>
       <r>    -5.7785     0.0000     8.0000 </r>
       <r>    -5.7092     0.0000     8.0000 </r>
       <r>    -5.6399     0.0000     8.0000 </r>
       <r>    -5.5706     0.0000     8.0000 </r>
       <r>    -5.5013     0.0000     8.0000 </r>
       <r>    -5.4319     0.0000     8.0000 </r>
       <r>    -5.3626     0.0000     8.0000 </r>
       <r>    -5.2933     0.0000     8.0000 </r>
       <r>    -5.2240     0.0000     8.0000 </r>
       <r>    -5.1547     0.0000     8.0000 </r>
       <r>    -5.0854     0.0000     8.0000 </r>
       <r>    -5.0160     0.0000     8.0000 </r>
       <r>    -4.9467     0.0000     8.0000 </r>
       <r>    -4.8774     0.0000     8.0000 </r>
       <r>    -4.8081     0.0000     8.0000 </r>
       <r>    -4.7388     0.0000     8.0000 </r>
       <r>    -4.6694     0.0000     8.0000 </r>
       <r>    -4.6001     0.0000     8.0000 </r>
       <r>    -4.5308     0.0000     8.0000 </r>
       <r>    -4.4615     0.0000     8.0000 </r>
       <r>    -4.3922     0.0000     8.0000 </r>
       <r>    -4.3229     0.0000     8.0000 </r>
       <r>    -4.2535     0.0000     8.0000 </r>
       <r>    -4.1842     0.0000     8.0000 </r>
       <r>    -4.1149     0.0000     8.0000 </r>
       <r>    -4.0456     0.0000     8.0000 </r>
       <r>    -3.9763     0.0000     8.0000 </r>
       <r>    -3.9069     0.0000     8.0000 </r>
       <r>    -3.8376     0.0000     8.0000 </r>
       <r>    -3.7683     0.0000     8.0000 </r>
       <r>    -3.6990     0.0000     8.0000 </r>
       <r>    -3.6297     0.0000     8.0000 </r>
       <r>    -3.5604     0.5173     8.0106 </r>
       <r>    -3.4910     1.4485     8.0858 </r>
       <r>    -3.4217     1.9923     8.1977 </r>
       <r>    -3.3524     6.3755     8.5150 </r>
       <r>    -3.2831     9.2005     9.0310 </r>
       <r>    -3.2138    11.4319     9.8600 </r>
       <r>    -3.1445     7.9102    10.4014 </r>
       <r>    -3.0751     7.2615    10.9600 </r>
       <r>    -3.0058     5.5790    11.4033 </r>
       <r>    -2.9365     4.6460    11.7625 </r>
       <r>    -2.8672     3.4972    12.0352 </r>
       <r>    -2.7979     2.4924    12.2221 </r>
       <r>    -2.7285     2.4289    12.3927 </r>
       <r>    -2.6592     2.3692    12.5589 </r>
       <r>    -2.5899     2.3132    12.7212 </r>
       <r>    -2.5206     2.2611    12.8797 </r>
       <r>    -2.4513     2.2127    13.0347 </r>
       <r>    -2.3820     2.1680    13.1866 </r>
       <r>    -2.3126     1.7562    13.3297 </r>
       <r>    -2.2433     1.7294    13.4505 </r>
       <r>    -2.1740     1.6977    13.5693 </r>
       <r>    -2.1047     1.6549    13.6857 </r>
       <r>    -2.0354     1.6059    13.7986 </r>
       <r>    -1.9661     1.5469    13.9079 </r>
       <r>    -1.8967     1.4831    14.0129 </r>
       <r>    -1.8274     1.4145    14.1134 </r>
       <r>    -1.7581     1.3411    14.2089 </r>
       <r>    -1.6888     1.2629    14.2992 </r>
       <r>    -1.6195     1.2400    14.3876 </r>
       <r>    -1.5501     1.1351    14.4698 </r>
       <r>    -1.4808     1.0455    14.5453 </r>
       <r>    -1.4115     0.9712    14.6151 </r>
       <r>    -1.3422     0.7879    14.6797 </r>
       <r>    -1.2729     0.8386    14.7360 </r>
       <r>    -1.2036     0.8939    14.7960 </r>
       <r>    -1.1342     0.9539    14.8600 </r>
       <r>    -1.0649     1.0184    14.9284 </r>
       <r>    -0.9956     1.1003    15.0014 </r>
       <r>    -0.9263     1.2562    15.0828 </r>
       <r>    -0.8570     1.4589    15.1767 </r>
       <r>    -0.7877     1.3822    15.2824 </r>
       <r>    -0.7183     1.4319    15.3758 </r>
       <r>    -0.6490     1.6129    15.4809 </r>
       <r>    -0.5797     1.8734    15.6012 </r>
       <r>    -0.5104     2.1994    15.7424 </r>
       <r>    -0.4411     2.4886    15.9045 </r>
       <r>    -0.3717     4.3997    16.1877 </r>
       <r>    -0.3024     4.5483    16.5073 </r>
       <r>    -0.2331     7.4713    16.9810 </r>
       <r>    -0.1638     6.1583    17.4566 </r>
       <r>    -0.0945     5.0005    17.8294 </r>
       <r>    -0.0252     4.6647    18.1644 </r>
       <r>     0.0442     4.3340    18.4762 </r>
       <r>     0.1135     3.8516    18.7582 </r>
       <r>     0.1828     3.7152    19.0201 </r>
       <r>     0.2521     4.0422    19.2786 </r>
       <r>     0.3214     4.9917    19.5918 </r>
       <r>     0.3908     3.5791    19.8378 </r>
       <r>     0.4601     3.7110    20.0899 </r>
       <r>     0.5294     3.9706    20.3557 </r>
       <r>     0.5987     4.3082    20.6421 </r>
       <r>     0.6680     5.7246    21.0065 </r>
       <r>     0.7373     7.2749    21.4667 </r>
       <r>     0.8067     6.5535    21.9627 </r>
       <r>     0.8760     7.0927    22.4035 </r>
       <r>     0.9453     6.7849    22.9034 </r>
       <r>     1.0146     5.9979    23.3470 </r>
       <r>     1.0839     5.1180    23.7328 </r>
       <r>     1.1532     4.1739    24.0500 </r>
       <r>     1.2226     4.1493    24.3375 </r>
       <r>     1.2919     4.0374    24.6206 </r>
       <r>     1.3612     4.1490    24.9003 </r>
       <r>     1.4305     4.7551    25.2098 </r>
       <r>     1.4998     5.2084    25.5560 </r>
       <r>     1.5692     5.5452    25.9819 </r>
       <r>     1.6385     4.8850    26.3086 </r>
       <r>     1.7078     5.1285    26.6558 </r>
       <r>     1.7771     6.2346    27.0275 </r>
       <r>     1.8464     8.3082    27.4816 </r>
       <r>     1.9157     6.5170    27.9910 </r>
       <r>     1.9851     4.6592    28.3344 </r>
       <r>     2.0544     4.0903    28.6376 </r>
       <r>     2.1237     3.5342    28.9018 </r>
       <r>     2.1930     3.0258    29.1396 </r>
       <r>     2.2623     2.2240    29.2978 </r>
       <r>     2.3316     2.1566    29.4475 </r>
       <r>     2.4010     2.7799    29.6184 </r>
       <r>     2.4703     3.4362    29.8336 </r>
       <r>     2.5396     4.6908    30.1383 </r>
       <r>     2.6089     4.6896    30.4478 </r>
       <r>     2.6782     4.6398    30.7831 </r>
       <r>     2.7476     4.4280    31.1213 </r>
       <r>     2.8169     1.6358    31.3416 </r>
       <r>     2.8862     1.4498    31.4485 </r>
       <r>     2.9555     1.2687    31.5427 </r>
       <r>     3.0248     1.0924    31.6245 </r>
       <r>     3.0941     0.9209    31.6942 </r>
       <r>     3.1635     0.8313    31.7533 </r>
       <r>     3.2328     0.8914    31.8136 </r>
       <r>     3.3021     0.8504    31.8745 </r>
       <r>     3.3714     0.7084    31.9292 </r>
       <r>     3.4407     0.4653    31.9704 </r>
       <r>     3.5101     0.1365    31.9914 </r>
       <r>     3.5794     0.0551    31.9978 </r>
       <r>     3.6487     0.0099    31.9998 </r>
       <r>     3.7180     0.0000    32.0000 </r>
       <r>     3.7873     0.0000    32.0000 </r>
       <r>     3.8566     0.0000    32.0000 </r>
       <r>     3.9260     0.0000    32.0000 </r>
       <r>     3.9953     0.0000    32.0000 </r>
       <r>     4.0646     0.0000    32.0000 </r>
       <r>     4.1339     0.0000    32.0000 </r>
       <r>     4.2032     0.0000    32.0000 </r>
       <r>     4.2725     0.0000    32.0000 </r>
       <r>     4.3419     0.0000    32.0000 </r>
       <r>     4.4112     0.0000    32.0000 </r>
       <r>     4.4805     0.0000    32.0000 </r>
       <r>     4.5498     0.0000    32.0000 </r>
       <r>     4.6191     0.0000    32.0000 </r>
       <r>     4.6885     0.0000    32.0000 </r>
       <r>     4.7578     0.0000    32.0000 </r>
       <r>     4.8271     0.0000    32.0000 </r>
       <r>     4.8964     0.0000    32.0000 </r>
       <r>     4.9657     0.2134    32.0026 </r>
       <r>     5.0350     0.2688    32.0192 </r>
       <r>     5.1044     0.3397    32.0402 </r>
       <r>     5.1737     0.7668    32.0850 </r>
       <r>     5.2430     0.6663    32.1265 </r>
       <r>     5.3123     0.8221    32.1779 </r>
       <r>     5.3816     0.9818    32.2406 </r>
       <r>     5.4509     1.0976    32.3129 </r>
       <r>     5.5203     1.2430    32.3937 </r>
       <r>     5.5896     1.4422    32.4865 </r>
       <r>     5.6589     1.7705    32.5959 </r>
       <r>     5.7282     2.5336    32.7424 </r>
       <r>     5.7975     4.3552    32.9768 </r>
       <r>     5.8669     3.3058    33.2403 </r>
       <r>     5.9362     4.9204    33.5542 </r>
       <r>     6.0055     4.7844    33.8662 </r>
       <r>     6.0748     5.4220    34.2201 </r>
       <r>     6.1441    10.1279    34.8041 </r>
       <r>     6.2134    11.3388    35.5384 </r>
       <r>     6.2828     5.0515    35.9810 </r>
       <r>     6.3521     6.6491    36.4420 </r>
       <r>     6.4214     5.2678    36.8148 </r>
       <r>     6.4907     5.0591    37.1727 </r>
       <r>     6.5600     4.3741    37.5055 </r>
       <r>     6.6293     4.2516    37.8042 </r>
       <r>     6.6987     4.1716    38.0959 </r>
       <r>     6.7680     9.3791    38.6948 </r>
       <r>     6.8373     5.7652    39.1371 </r>
       <r>     6.9066     3.8137    39.4366 </r>
       <r>     6.9759     3.6561    39.6955 </r>
       <r>     7.0453     3.5538    39.9450 </r>
       <r>     7.1146     3.4678    40.1883 </r>
       <r>     7.1839     3.3868    40.4259 </r>
       <r>     7.2532     3.3109    40.6580 </r>
       <r>     7.3225     2.9437    40.8840 </r>
       <r>     7.3918     2.5727    41.0578 </r>
       <r>     7.4612     2.4991    41.2333 </r>
       <r>     7.5305     2.5186    41.4057 </r>
       <r>     7.5998     2.7293    41.5874 </r>
       <r>     7.6691     3.0063    41.7860 </r>
       <r>     7.7384     4.3168    42.0389 </r>
       <r>     7.8078     3.9249    42.3117 </r>
       <r>     7.8771     5.7855    42.6410 </r>
       <r>     7.9464     9.0590    43.1176 </r>
       <r>     8.0157     8.1829    43.7176 </r>
       <r>     8.0850     7.0456    44.2452 </r>
       <r>     8.1543     5.5241    44.6760 </r>
       <r>     8.2237     3.9869    44.9749 </r>
       <r>     8.2930     3.2248    45.2185 </r>
       <r>     8.3623     2.8621    45.4179 </r>
       <r>     8.4316     3.2699    45.6302 </r>
       <r>     8.5009     5.3201    45.9509 </r>
       <r>     8.5702     6.4245    46.3535 </r>
       <r>     8.6396     5.5709    46.7450 </r>
       <r>     8.7089     5.1391    47.1181 </r>
       <r>     8.7782     4.3698    47.4496 </r>
       <r>     8.8475     2.9569    47.7041 </r>
       <r>     8.9168     3.0625    47.9121 </r>
       <r>     8.9862     0.0000    48.0000 </r>
       <r>     9.0555     0.0000    48.0000 </r>
       <r>     9.1248     0.0000    48.0000 </r>
       <r>     9.1941     0.0000    48.0000 </r>
       <r>     9.2634     0.0000    48.0000 </r>
       <r>     9.3327     0.0000    48.0000 </r>
       <r>     9.4021     0.0000    48.0000 </r>
       <r>     9.4714     0.0000    48.0000 </r>
       <r>     9.5407     0.0000    48.0000 </r>
       <r>     9.6100     0.0000    48.0000 </r>
       <r>     9.6793     0.0000    48.0000 </r>
       <r>     9.7486     0.0000    48.0000 </r>
       <r>     9.8180     0.0000    48.0000 </r>
       <r>     9.8873     0.0000    48.0000 </r>
       <r>     9.9566     0.0000    48.0000 </r>
      </set>
     </set>
    </array>
   </total>
  </dos>
 </calculation>
 <structure name="finalpos" >
  <crystal>
   <varray name="basis" >
    <v>       5.45387896       0.00000000       0.00000000 </v>
    <v>       0.00000000       5.45387896       0.00000000 </v>
    <v>       0.00000000       0.00000000       5.45387896 </v>
   </varray>
   <i name="volume">    162.22451542 </i>
   <varray name="rec_basis" >
    <v>       0.18335574       0.00000000       0.00000000 </v>
    <v>       0.00000000       0.18335574       0.00000000 </v>
    <v>       0.00000000       0.00000000       0.18335574 </v>
   </varray>
  </crystal>
  <varray name="positions" >
   <v>       0.00000000       0.00000000       0.00000000 </v>
   <v>       0.50000000       0.50000000       0.00000000 </v>
   <v>       0.50000000       0.00000000       0.50000000 </v>
   <v>       0.00000000       0.50000000       0.50000000 </v>
   <v>       0.25000000       0.25000000       0.25000000 </v>
   <v>       0.75000000       0.25000000       0.75000000 </v>
   <v>       0.75000000       0.75000000       0.25000000 </v>
   <v>       0.25000000       0.75000000       0.75000000 </v>
  </varray>
 </structure>
</modeling>
