GaAs                                    
   4.50000000000000     
     1.184565    0.000000   -0.000000
    -0.000000    1.184565   -0.000000
     0.000000   -0.000000    1.184565
   As   Ga
     4     4
Direct
  0.000000  0.000000  1.000000
  0.500000  0.500000  1.000000
  0.500000  0.000000  0.500000
  1.000000  0.500000  0.500000
  0.250000  0.250000  0.250000
  0.750000  0.250000  0.750000
  0.750000  0.750000  0.250000
  0.250000  0.750000  0.750000
 
   56   56   56
 -.60562321137E+02 -.52731401741E+02 -.31112829561E+02 -.70529415183E+00 0.31962779443E+02
 0.60721566880E+02 0.81227875865E+02 0.91609105420E+02 0.92309558028E+02 0.85450777531E+02
 0.74046658943E+02 0.61277252114E+02 0.49685321514E+02 0.39875905336E+02 0.31744523329E+02
 0.25145671634E+02 0.19901197586E+02 0.15803346408E+02 0.12633437479E+02 0.10190108841E+02
 0.83095632315E+01 0.68686378535E+01 0.57759718583E+01 0.49613006364E+01 0.43681608821E+01
 0.39507187996E+01 0.36740224578E+01 0.35153772715E+01 0.34635293319E+01 0.35153772715E+01
 0.36740224578E+01 0.39507187996E+01 0.43681608821E+01 0.49613006364E+01 0.57759718583E+01
 0.68686378535E+01 0.83095632315E+01 0.10190108841E+02 0.12633437479E+02 0.15803346408E+02
 0.19901197586E+02 0.25145671634E+02 0.31744523329E+02 0.39875905336E+02 0.49685321514E+02
 0.61277252114E+02 0.74046658943E+02 0.85450777531E+02 0.92309558028E+02 0.91609105420E+02
 0.81227875865E+02 0.60721566880E+02 0.31962779443E+02 -.70529415183E+00 -.31112829561E+02
 -.52731401741E+02 -.52731401741E+02 -.45210635625E+02 -.24459181458E+02 0.46937885245E+01
 0.35942835833E+02 0.63331980254E+02 0.82674767866E+02 0.92179334312E+02 0.92303136136E+02
 0.85135591569E+02 0.73635156729E+02 0.60917873874E+02 0.49431656704E+02 0.39706376473E+02
 0.31640242267E+02 0.25091171246E+02 0.19883550841E+02 0.15811777715E+02 0.12659394298E+02
 0.10227289267E+02 0.83536443422E+01 0.69168138537E+01 0.58264782043E+01 0.50130144896E+01
 0.44203428540E+01 0.40029204426E+01 0.37260648624E+01 0.35672762796E+01 0.35153772715E+01
 0.35672762796E+01 0.37260648624E+01 0.40029204426E+01 0.44203428540E+01 0.50130144896E+01
 0.58264782043E+01 0.69168138537E+01 0.83536443422E+01 0.10227289267E+02 0.12659394298E+02
 0.15811777715E+02 0.19883550841E+02 0.25091171246E+02 0.31640242267E+02 0.39706376473E+02
 0.49431656704E+02 0.60917873874E+02 0.73635156729E+02 0.85135591569E+02 0.92303136136E+02
 0.92179334312E+02 0.82674767866E+02 0.63331980254E+02 0.35942835833E+02 0.46937885245E+01
 -.24459181458E+02 -.45210635625E+02 -.31112829561E+02 -.24459181458E+02 -.61315068606E+01
 0.19516045491E+02 0.46802597534E+02 0.70371075668E+02 0.86474555292E+02 0.93548678449E+02
 0.92089291255E+02 0.84096233192E+02 0.72370868906E+02 0.59845827057E+02 0.48675431310E+02
 0.39200260453E+02 0.31328677313E+02 0.24928390086E+02 0.19831093882E+02 0.15837526608E+02
 0.12737876205E+02 0.10339760550E+02 0.84872480760E+01 0.70631695999E+01 0.59802506763E+01
 0.51707428612E+01 0.45797083544E+01 0.41624940351E+01 0.38852454540E+01 0.37260648624E+01
 0.36740224578E+01 0.37260648624E+01 0.38852454540E+01 0.41624940351E+01 0.45797083544E+01
 0.51707428612E+01 0.59802506763E+01 0.70631695999E+01 0.84872480760E+01 0.10339760550E+02
 0.12737876205E+02 0.15837526608E+02 0.19831093882E+02 0.24928390086E+02 0.31328677313E+02
 0.39200260453E+02 0.48675431310E+02 0.59845827057E+02 0.72370868906E+02 0.84096233192E+02
 0.92089291255E+02 0.93548678449E+02 0.86474555292E+02 0.70371075668E+02 0.46802597534E+02
 0.19516045491E+02 -.61315068606E+01 -.24459181458E+02 -.70529415183E+00 0.46937885245E+01
 0.19516045491E+02 0.40097889850E+02 0.61665886482E+02 0.79733501929E+02 0.91194715534E+02
 0.94820216124E+02 0.91165928402E+02 0.82101703150E+02 0.70193809907E+02 0.58089392222E+02
 0.47433521648E+02 0.38367058317E+02 0.30815248050E+02 0.24660601653E+02 0.19746045213E+02
 0.15882543183E+02 0.12871256062E+02 0.10530892774E+02 0.87151243130E+01 0.73139747990E+01
 0.62449861636E+01 0.54433720711E+01 0.48560629991E+01 0.44399188995E+01 0.41624940351E+01
 0.40029204426E+01 0.39507187996E+01 0.40029204426E+01 0.41624940351E+01 0.44399188995E+01
 0.48560629991E+01 0.54433720711E+01 0.62449861636E+01 0.73139747990E+01 0.87151243130E+01
 0.10530892774E+02 0.12871256062E+02 0.15882543183E+02 0.19746045213E+02 0.24660601653E+02
 0.30815248050E+02 0.38367058317E+02 0.47433521648E+02 0.58089392222E+02 0.70193809907E+02
 0.82101703150E+02 0.91165928402E+02 0.94820216124E+02 0.91194715534E+02 0.79733501929E+02
 0.61665886482E+02 0.40097889850E+02 0.19516045491E+02 0.46937885245E+01 0.31962779443E+02
 0.35942835833E+02 0.46802597534E+02 0.61665886482E+02 0.76794084582E+02 0.88695256622E+02
 0.94999949394E+02 0.94869487483E+02 0.88934494090E+02 0.78913446753E+02 0.67087944295E+02
 0.55704466180E+02 0.45740706652E+02 0.37228172733E+02 0.30113304086E+02 0.24296388058E+02
 0.19634371641E+02 0.15951909139E+02 0.13065222912E+02 0.10808140642E+02 0.90472136700E+01
 0.76819151449E+01 0.66359873540E+01 0.58484696631E+01 0.52688277196E+01 0.48560629991E+01
 0.45797083544E+01 0.44203428540E+01 0.43681608821E+01 0.44203428540E+01 0.45797083544E+01
 0.48560629991E+01 0.52688277196E+01 0.58484696631E+01 0.66359873540E+01 0.76819151449E+01
 0.90472136700E+01 0.10808140642E+02 0.13065222912E+02 0.15951909139E+02 0.19634371641E+02
 0.24296388058E+02 0.30113304086E+02 0.37228172733E+02 0.45740706652E+02 0.55704466180E+02
 0.67087944295E+02 0.78913446753E+02 0.88934494090E+02 0.94869487483E+02 0.94999949394E+02
 0.88695256622E+02 0.76794084582E+02 0.61665886482E+02 0.46802597534E+02 0.35942835833E+02
 0.60721566880E+02 0.63331980254E+02 0.70371075668E+02 0.79733501929E+02 0.88695256622E+02
 0.94743670036E+02 0.96240883054E+02 0.92742300627E+02 0.84955903729E+02 0.74439853440E+02
 0.63164941353E+02 0.52778103829E+02 0.43654469716E+02 0.35821411517E+02 0.29247890708E+02
 0.23852630005E+02 0.19508255390E+02 0.16056079951E+02 0.13330991916E+02 0.11185276873E+02
 0.95008577322E+01 0.81881913247E+01 0.71780745024E+01 0.64139647014E+01 0.58484696631E+01
 0.54433720711E+01 0.51707428612E+01 0.50130144896E+01 0.49613006364E+01 0.50130144896E+01
 0.51707428612E+01 0.54433720711E+01 0.58484696631E+01 0.64139647014E+01 0.71780745024E+01
 0.81881913247E+01 0.95008577322E+01 0.11185276873E+02 0.13330991916E+02 0.16056079951E+02
 0.19508255390E+02 0.23852630005E+02 0.29247890708E+02 0.35821411517E+02 0.43654469716E+02
 0.52778103829E+02 0.63164941353E+02 0.74439853440E+02 0.84955903729E+02 0.92742300627E+02
 0.96240883054E+02 0.94743670036E+02 0.88695256622E+02 0.79733501929E+02 0.70371075668E+02
 0.63331980254E+02 0.81227875865E+02 0.82674767866E+02 0.86474555292E+02 0.91194715534E+02
 0.94999949394E+02 0.96240883054E+02 0.93930906600E+02 0.87979008147E+02 0.79156174919E+02
 0.68852974790E+02 0.58671214088E+02 0.49427152385E+02 0.41255423676E+02 0.34202407018E+02
 0.28257435522E+02 0.23356274090E+02 0.19387971798E+02 0.16212869273E+02 0.13687285721E+02
 0.11684191861E+02 0.10102236135E+02 0.88634699061E+01 0.79060108115E+01 0.71780745024E+01
 0.66359873540E+01 0.62449861636E+01 0.59802506763E+01 0.58264782043E+01 0.57759718583E+01
 0.58264782043E+01 0.59802506763E+01 0.62449861636E+01 0.66359873540E+01 0.71780745024E+01
 0.79060108115E+01 0.88634699061E+01 0.10102236135E+02 0.11684191861E+02 0.13687285721E+02
 0.16212869273E+02 0.19387971798E+02 0.23356274090E+02 0.28257435522E+02 0.34202407018E+02
 0.41255423676E+02 0.49427152385E+02 0.58671214088E+02 0.68852974790E+02 0.79156174919E+02
 0.87979008147E+02 0.93930906600E+02 0.96240883054E+02 0.94999949394E+02 0.91194715534E+02
 0.86474555292E+02 0.82674767866E+02 0.91609105420E+02 0.92179334312E+02 0.93548678449E+02
 0.94820216124E+02 0.94869487483E+02 0.92742300627E+02 0.87979008147E+02 0.80769541716E+02
 0.71914010281E+02 0.62615959138E+02 0.53821843563E+02 0.45789838925E+02 0.38642803662E+02
 0.32442140383E+02 0.27192504825E+02 0.22844010103E+02 0.19302237999E+02 0.16448130589E+02
 0.14160970349E+02 0.12335173782E+02 0.10886133938E+02 0.97471640620E+01 0.88634699061E+01
 0.81881913247E+01 0.76819151449E+01 0.73139747990E+01 0.70631695999E+01 0.69168138537E+01
 0.68686378535E+01 0.69168138537E+01 0.70631695999E+01 0.73139747990E+01 0.76819151449E+01
 0.81881913247E+01 0.88634699061E+01 0.97471640620E+01 0.10886133938E+02 0.12335173782E+02
 0.14160970349E+02 0.16448130589E+02 0.19302237999E+02 0.22844010103E+02 0.27192504825E+02
 0.32442140383E+02 0.38642803662E+02 0.45789838925E+02 0.53821843563E+02 0.62615959138E+02
 0.71914010281E+02 0.80769541716E+02 0.87979008147E+02 0.92742300627E+02 0.94869487483E+02
 0.94820216124E+02 0.93548678449E+02 0.92179334312E+02 0.92309558028E+02 0.92303136136E+02
 0.92089291255E+02 0.91165928402E+02 0.88934494090E+02 0.84955903729E+02 0.79156174919E+02
 0.71914010281E+02 0.64006526848E+02 0.56206038664E+02 0.48815136815E+02 0.42014264264E+02
 0.35926745209E+02 0.30621464448E+02 0.26112001331E+02 0.22359787102E+02 0.19286610055E+02
 0.16794548183E+02 0.14785850292E+02 0.13175534380E+02 0.11894473079E+02 0.10886133938E+02
 0.10102236135E+02 0.95008577322E+01 0.90472136700E+01 0.87151243130E+01 0.84872480760E+01
 0.83536443422E+01 0.83095632315E+01 0.83536443422E+01 0.84872480760E+01 0.87151243130E+01
 0.90472136700E+01 0.95008577322E+01 0.10102236135E+02 0.10886133938E+02 0.11894473079E+02
 0.13175534380E+02 0.14785850292E+02 0.16794548183E+02 0.19286610055E+02 0.22359787102E+02
 0.26112001331E+02 0.30621464448E+02 0.35926745209E+02 0.42014264264E+02 0.48815136815E+02
 0.56206038664E+02 0.64006526848E+02 0.71914010281E+02 0.79156174919E+02 0.84955903729E+02
 0.88934494090E+02 0.91165928402E+02 0.92089291255E+02 0.92303136136E+02 0.85450777531E+02
 0.85135591569E+02 0.84096233192E+02 0.82101703150E+02 0.78913446753E+02 0.74439853440E+02
 0.68852974790E+02 0.62615959138E+02 0.56206038664E+02 0.49879510282E+02 0.43839424715E+02
 0.38247110642E+02 0.33219352891E+02 0.28824035247E+02 0.25077778729E+02 0.21950781973E+02
 0.19380350450E+02 0.17289029034E+02 0.15600453884E+02 0.14247939138E+02 0.13175534380E+02
 0.12335173782E+02 0.11684191861E+02 0.11185276873E+02 0.10808140642E+02 0.10530892774E+02
 0.10339760550E+02 0.10227289267E+02 0.10190108841E+02 0.10227289267E+02 0.10339760550E+02
 0.10530892774E+02 0.10808140642E+02 0.11185276873E+02 0.11684191861E+02 0.12335173782E+02
 0.13175534380E+02 0.14247939138E+02 0.15600453884E+02 0.17289029034E+02 0.19380350450E+02
 0.21950781973E+02 0.25077778729E+02 0.28824035247E+02 0.33219352891E+02 0.38247110642E+02
 0.43839424715E+02 0.49879510282E+02 0.56206038664E+02 0.62615959138E+02 0.68852974790E+02
 0.74439853440E+02 0.78913446753E+02 0.82101703150E+02 0.84096233192E+02 0.85135591569E+02
 0.74046658943E+02 0.73635156729E+02 0.72370868906E+02 0.70193809907E+02 0.67087944295E+02
 0.63164941353E+02 0.58671214088E+02 0.53821843563E+02 0.48815136815E+02 0.43839424715E+02
 0.39062486118E+02 0.34623557732E+02 0.30625597117E+02 0.27128764378E+02 0.24148765755E+02
 0.21662918407E+02 0.19623002854E+02 0.17970204179E+02 0.16646623561E+02 0.15600453884E+02
 0.14785850292E+02 0.14160970349E+02 0.13687285721E+02 0.13330991916E+02 0.13065222912E+02
 0.12871256062E+02 0.12737876205E+02 0.12659394298E+02 0.12633437479E+02 0.12659394298E+02
 0.12737876205E+02 0.12871256062E+02 0.13065222912E+02 0.13330991916E+02 0.13687285721E+02
 0.14160970349E+02 0.14785850292E+02 0.15600453884E+02 0.16646623561E+02 0.17970204179E+02
 0.19623002854E+02 0.21662918407E+02 0.24148765755E+02 0.27128764378E+02 0.30625597117E+02
 0.34623557732E+02 0.39062486118E+02 0.43839424715E+02 0.48815136815E+02 0.53821843563E+02
 0.58671214088E+02 0.63164941353E+02 0.67087944295E+02 0.70193809907E+02 0.72370868906E+02
 0.73635156729E+02 0.61277252114E+02 0.60917873874E+02 0.59845827057E+02 0.58089392222E+02
 0.55704466180E+02 0.52778103829E+02 0.49427152385E+02 0.45789838925E+02 0.42014264264E+02
 0.38247110642E+02 0.34623557732E+02 0.31257831161E+02 0.28234525252E+02 0.25602733754E+02
 0.23375728892E+02 0.21537220314E+02 0.20052117205E+02 0.18877536770E+02 0.17970204179E+02
 0.17289029034E+02 0.16794548183E+02 0.16448130589E+02 0.16212869273E+02 0.16056079951E+02
 0.15951909139E+02 0.15882543183E+02 0.15837526608E+02 0.15811777715E+02 0.15803346408E+02
 0.15811777715E+02 0.15837526608E+02 0.15882543183E+02 0.15951909139E+02 0.16056079951E+02
 0.16212869273E+02 0.16448130589E+02 0.16794548183E+02 0.17289029034E+02 0.17970204179E+02
 0.18877536770E+02 0.20052117205E+02 0.21537220314E+02 0.23375728892E+02 0.25602733754E+02
 0.28234525252E+02 0.31257831161E+02 0.34623557732E+02 0.38247110642E+02 0.42014264264E+02
 0.45789838925E+02 0.49427152385E+02 0.52778103829E+02 0.55704466180E+02 0.58089392222E+02
 0.59845827057E+02 0.60917873874E+02 0.49685321514E+02 0.49431656704E+02 0.48675431310E+02
 0.47433521648E+02 0.45740706652E+02 0.43654469716E+02 0.41255423676E+02 0.38642803662E+02
 0.35926745209E+02 0.33219352891E+02 0.30625597117E+02 0.28234525252E+02 0.26111846868E+02
 0.24295782763E+02 0.22797781316E+02 0.21607934171E+02 0.20702761977E+02 0.20052117205E+02
 0.19623002854E+02 0.19380350450E+02 0.19286610055E+02 0.19302237999E+02 0.19387971798E+02
 0.19508255390E+02 0.19634371641E+02 0.19746045213E+02 0.19831093882E+02 0.19883550841E+02
 0.19901197586E+02 0.19883550841E+02 0.19831093882E+02 0.19746045213E+02 0.19634371641E+02
 0.19508255390E+02 0.19387971798E+02 0.19302237999E+02 0.19286610055E+02 0.19380350450E+02
 0.19623002854E+02 0.20052117205E+02 0.20702761977E+02 0.21607934171E+02 0.22797781316E+02
 0.24295782763E+02 0.26111846868E+02 0.28234525252E+02 0.30625597117E+02 0.33219352891E+02
 0.35926745209E+02 0.38642803662E+02 0.41255423676E+02 0.43654469716E+02 0.45740706652E+02
 0.47433521648E+02 0.48675431310E+02 0.49431656704E+02 0.39875905336E+02 0.39706376473E+02
 0.39200260453E+02 0.38367058317E+02 0.37228172733E+02 0.35821411517E+02 0.34202407018E+02
 0.32442140383E+02 0.30621464448E+02 0.28824035247E+02 0.27128764378E+02 0.25602733754E+02
 0.24295782763E+02 0.23238087308E+02 0.22441303327E+02 0.21902377227E+02 0.21607934171E+02
 0.21537220314E+02 0.21662918407E+02 0.21950781973E+02 0.22359787102E+02 0.22844010103E+02
 0.23356274090E+02 0.23852630005E+02 0.24296388058E+02 0.24660601653E+02 0.24928390086E+02
 0.25091171246E+02 0.25145671634E+02 0.25091171246E+02 0.24928390086E+02 0.24660601653E+02
 0.24296388058E+02 0.23852630005E+02 0.23356274090E+02 0.22844010103E+02 0.22359787102E+02
 0.21950781973E+02 0.21662918407E+02 0.21537220314E+02 0.21607934171E+02 0.21902377227E+02
 0.22441303327E+02 0.23238087308E+02 0.24295782763E+02 0.25602733754E+02 0.27128764378E+02
 0.28824035247E+02 0.30621464448E+02 0.32442140383E+02 0.34202407018E+02 0.35821411517E+02
 0.37228172733E+02 0.38367058317E+02 0.39200260453E+02 0.39706376473E+02 0.31744523329E+02
 0.31640242267E+02 0.31328677313E+02 0.30815248050E+02 0.30113304086E+02 0.29247890708E+02
 0.28257435522E+02 0.27192504825E+02 0.26112001331E+02 0.25077778729E+02 0.24148765755E+02
 0.23375728892E+02 0.22797781316E+02 0.22441303327E+02 0.22320939619E+02 0.22441303327E+02
 0.22797781316E+02 0.23375728892E+02 0.24148765755E+02 0.25077778729E+02 0.26112001331E+02
 0.27192504825E+02 0.28257435522E+02 0.29247890708E+02 0.30113304086E+02 0.30815248050E+02
 0.31328677313E+02 0.31640242267E+02 0.31744523329E+02 0.31640242267E+02 0.31328677313E+02
 0.30815248050E+02 0.30113304086E+02 0.29247890708E+02 0.28257435522E+02 0.27192504825E+02
 0.26112001331E+02 0.25077778729E+02 0.24148765755E+02 0.23375728892E+02 0.22797781316E+02
 0.22441303327E+02 0.22320939619E+02 0.22441303327E+02 0.22797781316E+02 0.23375728892E+02
 0.24148765755E+02 0.25077778729E+02 0.26112001331E+02 0.27192504825E+02 0.28257435522E+02
 0.29247890708E+02 0.30113304086E+02 0.30815248050E+02 0.31328677313E+02 0.31640242267E+02
 0.25145671634E+02 0.25091171246E+02 0.24928390086E+02 0.24660601653E+02 0.24296388058E+02
 0.23852630005E+02 0.23356274090E+02 0.22844010103E+02 0.22359787102E+02 0.21950781973E+02
 0.21662918407E+02 0.21537220314E+02 0.21607934171E+02 0.21902377227E+02 0.22441303327E+02
 0.23238087308E+02 0.24295782763E+02 0.25602733754E+02 0.27128764378E+02 0.28824035247E+02
 0.30621464448E+02 0.32442140383E+02 0.34202407018E+02 0.35821411517E+02 0.37228172733E+02
 0.38367058317E+02 0.39200260453E+02 0.39706376473E+02 0.39875905336E+02 0.39706376473E+02
 0.39200260453E+02 0.38367058317E+02 0.37228172733E+02 0.35821411517E+02 0.34202407018E+02
 0.32442140383E+02 0.30621464448E+02 0.28824035247E+02 0.27128764378E+02 0.25602733754E+02
 0.24295782763E+02 0.23238087308E+02 0.22441303327E+02 0.21902377227E+02 0.21607934171E+02
 0.21537220314E+02 0.21662918407E+02 0.21950781973E+02 0.22359787102E+02 0.22844010103E+02
 0.23356274090E+02 0.23852630005E+02 0.24296388058E+02 0.24660601653E+02 0.24928390086E+02
 0.25091171246E+02 0.19901197586E+02 0.19883550841E+02 0.19831093882E+02 0.19746045213E+02
 0.19634371641E+02 0.19508255390E+02 0.19387971798E+02 0.19302237999E+02 0.19286610055E+02
 0.19380350450E+02 0.19623002854E+02 0.20052117205E+02 0.20702761977E+02 0.21607934171E+02
 0.22797781316E+02 0.24295782763E+02 0.26111846868E+02 0.28234525252E+02 0.30625597117E+02
 0.33219352891E+02 0.35926745209E+02 0.38642803662E+02 0.41255423676E+02 0.43654469716E+02
 0.45740706652E+02 0.47433521648E+02 0.48675431310E+02 0.49431656704E+02 0.49685321514E+02
 0.49431656704E+02 0.48675431310E+02 0.47433521648E+02 0.45740706652E+02 0.43654469716E+02
 0.41255423676E+02 0.38642803662E+02 0.35926745209E+02 0.33219352891E+02 0.30625597117E+02
 0.28234525252E+02 0.26111846868E+02 0.24295782763E+02 0.22797781316E+02 0.21607934171E+02
 0.20702761977E+02 0.20052117205E+02 0.19623002854E+02 0.19380350450E+02 0.19286610055E+02
 0.19302237999E+02 0.19387971798E+02 0.19508255390E+02 0.19634371641E+02 0.19746045213E+02
 0.19831093882E+02 0.19883550841E+02 0.15803346408E+02 0.15811777715E+02 0.15837526608E+02
 0.15882543183E+02 0.15951909139E+02 0.16056079951E+02 0.16212869273E+02 0.16448130589E+02
 0.16794548183E+02 0.17289029034E+02 0.17970204179E+02 0.18877536770E+02 0.20052117205E+02
 0.21537220314E+02 0.23375728892E+02 0.25602733754E+02 0.28234525252E+02 0.31257831161E+02
 0.34623557732E+02 0.38247110642E+02 0.42014264264E+02 0.45789838925E+02 0.49427152385E+02
 0.52778103829E+02 0.55704466180E+02 0.58089392222E+02 0.59845827057E+02 0.60917873874E+02
 0.61277252114E+02 0.60917873874E+02 0.59845827057E+02 0.58089392222E+02 0.55704466180E+02
 0.52778103829E+02 0.49427152385E+02 0.45789838925E+02 0.42014264264E+02 0.38247110642E+02
 0.34623557732E+02 0.31257831161E+02 0.28234525252E+02 0.25602733754E+02 0.23375728892E+02
 0.21537220314E+02 0.20052117205E+02 0.18877536770E+02 0.17970204179E+02 0.17289029034E+02
 0.16794548183E+02 0.16448130589E+02 0.16212869273E+02 0.16056079951E+02 0.15951909139E+02
 0.15882543183E+02 0.15837526608E+02 0.15811777715E+02 0.12633437479E+02 0.12659394298E+02
 0.12737876205E+02 0.12871256062E+02 0.13065222912E+02 0.13330991916E+02 0.13687285721E+02
 0.14160970349E+02 0.14785850292E+02 0.15600453884E+02 0.16646623561E+02 0.17970204179E+02
 0.19623002854E+02 0.21662918407E+02 0.24148765755E+02 0.27128764378E+02 0.30625597117E+02
 0.34623557732E+02 0.39062486118E+02 0.43839424715E+02 0.48815136815E+02 0.53821843563E+02
 0.58671214088E+02 0.63164941353E+02 0.67087944295E+02 0.70193809907E+02 0.72370868906E+02
 0.73635156729E+02 0.74046658943E+02 0.73635156729E+02 0.72370868906E+02 0.70193809907E+02
 0.67087944295E+02 0.63164941353E+02 0.58671214088E+02 0.53821843563E+02 0.48815136815E+02
 0.43839424715E+02 0.39062486118E+02 0.34623557732E+02 0.30625597117E+02 0.27128764378E+02
 0.24148765755E+02 0.21662918407E+02 0.19623002854E+02 0.17970204179E+02 0.16646623561E+02
 0.15600453884E+02 0.14785850292E+02 0.14160970349E+02 0.13687285721E+02 0.13330991916E+02
 0.13065222912E+02 0.12871256062E+02 0.12737876205E+02 0.12659394298E+02 0.10190108841E+02
 0.10227289267E+02 0.10339760550E+02 0.10530892774E+02 0.10808140642E+02 0.11185276873E+02
 0.11684191861E+02 0.12335173782E+02 0.13175534380E+02 0.14247939138E+02 0.15600453884E+02
 0.17289029034E+02 0.19380350450E+02 0.21950781973E+02 0.25077778729E+02 0.28824035247E+02
 0.33219352891E+02 0.38247110642E+02 0.43839424715E+02 0.49879510282E+02 0.56206038664E+02
 0.62615959138E+02 0.68852974790E+02 0.74439853440E+02 0.78913446753E+02 0.82101703150E+02
 0.84096233192E+02 0.85135591569E+02 0.85450777531E+02 0.85135591569E+02 0.84096233192E+02
 0.82101703150E+02 0.78913446753E+02 0.74439853440E+02 0.68852974790E+02 0.62615959138E+02
 0.56206038664E+02 0.49879510282E+02 0.43839424715E+02 0.38247110642E+02 0.33219352891E+02
 0.28824035247E+02 0.25077778729E+02 0.21950781973E+02 0.19380350450E+02 0.17289029034E+02
 0.15600453884E+02 0.14247939138E+02 0.13175534380E+02 0.12335173782E+02 0.11684191861E+02
 0.11185276873E+02 0.10808140642E+02 0.10530892774E+02 0.10339760550E+02 0.10227289267E+02
 0.83095632315E+01 0.83536443422E+01 0.84872480760E+01 0.87151243130E+01 0.90472136700E+01
 0.95008577322E+01 0.10102236135E+02 0.10886133938E+02 0.11894473079E+02 0.13175534380E+02
 0.14785850292E+02 0.16794548183E+02 0.19286610055E+02 0.22359787102E+02 0.26112001331E+02
 0.30621464448E+02 0.35926745209E+02 0.42014264264E+02 0.48815136815E+02 0.56206038664E+02
 0.64006526848E+02 0.71914010281E+02 0.79156174919E+02 0.84955903729E+02 0.88934494090E+02
 0.91165928402E+02 0.92089291255E+02 0.92303136136E+02 0.92309558028E+02 0.92303136136E+02
 0.92089291255E+02 0.91165928402E+02 0.88934494090E+02 0.84955903729E+02 0.79156174919E+02
 0.71914010281E+02 0.64006526848E+02 0.56206038664E+02 0.48815136815E+02 0.42014264264E+02
 0.35926745209E+02 0.30621464448E+02 0.26112001331E+02 0.22359787102E+02 0.19286610055E+02
 0.16794548183E+02 0.14785850292E+02 0.13175534380E+02 0.11894473079E+02 0.10886133938E+02
 0.10102236135E+02 0.95008577322E+01 0.90472136700E+01 0.87151243130E+01 0.84872480760E+01
 0.83536443422E+01 0.68686378535E+01 0.69168138537E+01 0.70631695999E+01 0.73139747990E+01
 0.76819151449E+01 0.81881913247E+01 0.88634699061E+01 0.97471640620E+01 0.10886133938E+02
 0.12335173782E+02 0.14160970349E+02 0.16448130589E+02 0.19302237999E+02 0.22844010103E+02
 0.27192504825E+02 0.32442140383E+02 0.38642803662E+02 0.45789838925E+02 0.53821843563E+02
 0.62615959138E+02 0.71914010281E+02 0.80769541716E+02 0.87979008147E+02 0.92742300627E+02
 0.94869487483E+02 0.94820216124E+02 0.93548678449E+02 0.92179334312E+02 0.91609105420E+02
 0.92179334312E+02 0.93548678449E+02 0.94820216124E+02 0.94869487483E+02 0.92742300627E+02
 0.87979008147E+02 0.80769541716E+02 0.71914010281E+02 0.62615959138E+02 0.53821843563E+02
 0.45789838925E+02 0.38642803662E+02 0.32442140383E+02 0.27192504825E+02 0.22844010103E+02
 0.19302237999E+02 0.16448130589E+02 0.14160970349E+02 0.12335173782E+02 0.10886133938E+02
 0.97471640620E+01 0.88634699061E+01 0.81881913247E+01 0.76819151449E+01 0.73139747990E+01
 0.70631695999E+01 0.69168138537E+01 0.57759718583E+01 0.58264782043E+01 0.59802506763E+01
 0.62449861636E+01 0.66359873540E+01 0.71780745024E+01 0.79060108115E+01 0.88634699061E+01
 0.10102236135E+02 0.11684191861E+02 0.13687285721E+02 0.16212869273E+02 0.19387971798E+02
 0.23356274090E+02 0.28257435522E+02 0.34202407018E+02 0.41255423676E+02 0.49427152385E+02
 0.58671214088E+02 0.68852974790E+02 0.79156174919E+02 0.87979008147E+02 0.93930906600E+02
 0.96240883054E+02 0.94999949394E+02 0.91194715534E+02 0.86474555292E+02 0.82674767866E+02
 0.81227875865E+02 0.82674767866E+02 0.86474555292E+02 0.91194715534E+02 0.94999949394E+02
 0.96240883054E+02 0.93930906600E+02 0.87979008147E+02 0.79156174919E+02 0.68852974790E+02
 0.58671214088E+02 0.49427152385E+02 0.41255423676E+02 0.34202407018E+02 0.28257435522E+02
 0.23356274090E+02 0.19387971798E+02 0.16212869273E+02 0.13687285721E+02 0.11684191861E+02
 0.10102236135E+02 0.88634699061E+01 0.79060108115E+01 0.71780745024E+01 0.66359873540E+01
 0.62449861636E+01 0.59802506763E+01 0.58264782043E+01 0.49613006364E+01 0.50130144896E+01
 0.51707428612E+01 0.54433720711E+01 0.58484696631E+01 0.64139647014E+01 0.71780745024E+01
 0.81881913247E+01 0.95008577322E+01 0.11185276873E+02 0.13330991916E+02 0.16056079951E+02
 0.19508255390E+02 0.23852630005E+02 0.29247890708E+02 0.35821411517E+02 0.43654469716E+02
 0.52778103829E+02 0.63164941353E+02 0.74439853440E+02 0.84955903729E+02 0.92742300627E+02
 0.96240883054E+02 0.94743670036E+02 0.88695256622E+02 0.79733501929E+02 0.70371075668E+02
 0.63331980254E+02 0.60721566880E+02 0.63331980254E+02 0.70371075668E+02 0.79733501929E+02
 0.88695256622E+02 0.94743670036E+02 0.96240883054E+02 0.92742300627E+02 0.84955903729E+02
 0.74439853440E+02 0.63164941353E+02 0.52778103829E+02 0.43654469716E+02 0.35821411517E+02
 0.29247890708E+02 0.23852630005E+02 0.19508255390E+02 0.16056079951E+02 0.13330991916E+02
 0.11185276873E+02 0.95008577322E+01 0.81881913247E+01 0.71780745024E+01 0.64139647014E+01
 0.58484696631E+01 0.54433720711E+01 0.51707428612E+01 0.50130144896E+01 0.43681608821E+01
 0.44203428540E+01 0.45797083544E+01 0.48560629991E+01 0.52688277196E+01 0.58484696631E+01
 0.66359873540E+01 0.76819151449E+01 0.90472136700E+01 0.10808140642E+02 0.13065222912E+02
 0.15951909139E+02 0.19634371641E+02 0.24296388058E+02 0.30113304086E+02 0.37228172733E+02
 0.45740706652E+02 0.55704466180E+02 0.67087944295E+02 0.78913446753E+02 0.88934494090E+02
 0.94869487483E+02 0.94999949394E+02 0.88695256622E+02 0.76794084582E+02 0.61665886482E+02
 0.46802597534E+02 0.35942835833E+02 0.31962779443E+02 0.35942835833E+02 0.46802597534E+02
 0.61665886482E+02 0.76794084582E+02 0.88695256622E+02 0.94999949394E+02 0.94869487483E+02
 0.88934494090E+02 0.78913446753E+02 0.67087944295E+02 0.55704466180E+02 0.45740706652E+02
 0.37228172733E+02 0.30113304086E+02 0.24296388058E+02 0.19634371641E+02 0.15951909139E+02
 0.13065222912E+02 0.10808140642E+02 0.90472136700E+01 0.76819151449E+01 0.66359873540E+01
 0.58484696631E+01 0.52688277196E+01 0.48560629991E+01 0.45797083544E+01 0.44203428540E+01
 0.39507187996E+01 0.40029204426E+01 0.41624940351E+01 0.44399188995E+01 0.48560629991E+01
 0.54433720711E+01 0.62449861636E+01 0.73139747990E+01 0.87151243130E+01 0.10530892774E+02
 0.12871256062E+02 0.15882543183E+02 0.19746045213E+02 0.24660601653E+02 0.30815248050E+02
 0.38367058317E+02 0.47433521648E+02 0.58089392222E+02 0.70193809907E+02 0.82101703150E+02
 0.91165928402E+02 0.94820216124E+02 0.91194715534E+02 0.79733501929E+02 0.61665886482E+02
 0.40097889850E+02 0.19516045491E+02 0.46937885245E+01 -.70529415183E+00 0.46937885245E+01
 0.19516045491E+02 0.40097889850E+02 0.61665886482E+02 0.79733501929E+02 0.91194715534E+02
 0.94820216124E+02 0.91165928402E+02 0.82101703150E+02 0.70193809907E+02 0.58089392222E+02
 0.47433521648E+02 0.38367058317E+02 0.30815248050E+02 0.24660601653E+02 0.19746045213E+02
 0.15882543183E+02 0.12871256062E+02 0.10530892774E+02 0.87151243130E+01 0.73139747990E+01
 0.62449861636E+01 0.54433720711E+01 0.48560629991E+01 0.44399188995E+01 0.41624940351E+01
 0.40029204426E+01 0.36740224578E+01 0.37260648624E+01 0.38852454540E+01 0.41624940351E+01
 0.45797083544E+01 0.51707428612E+01 0.59802506763E+01 0.70631695999E+01 0.84872480760E+01
 0.10339760550E+02 0.12737876205E+02 0.15837526608E+02 0.19831093882E+02 0.24928390086E+02
 0.31328677313E+02 0.39200260453E+02 0.48675431310E+02 0.59845827057E+02 0.72370868906E+02
 0.84096233192E+02 0.92089291255E+02 0.93548678449E+02 0.86474555292E+02 0.70371075668E+02
 0.46802597534E+02 0.19516045491E+02 -.61315068606E+01 -.24459181458E+02 -.31112829561E+02
 -.24459181458E+02 -.61315068606E+01 0.19516045491E+02 0.46802597534E+02 0.70371075668E+02
 0.86474555292E+02 0.93548678449E+02 0.92089291255E+02 0.84096233192E+02 0.72370868906E+02
 0.59845827057E+02 0.48675431310E+02 0.39200260453E+02 0.31328677313E+02 0.24928390086E+02
 0.19831093882E+02 0.15837526608E+02 0.12737876205E+02 0.10339760550E+02 0.84872480760E+01
 0.70631695999E+01 0.59802506763E+01 0.51707428612E+01 0.45797083544E+01 0.41624940351E+01
 0.38852454540E+01 0.37260648624E+01 0.35153772715E+01 0.35672762796E+01 0.37260648624E+01
 0.40029204426E+01 0.44203428540E+01 0.50130144896E+01 0.58264782043E+01 0.69168138537E+01
 0.83536443422E+01 0.10227289267E+02 0.12659394298E+02 0.15811777715E+02 0.19883550841E+02
 0.25091171246E+02 0.31640242267E+02 0.39706376473E+02 0.49431656704E+02 0.60917873874E+02
 0.73635156729E+02 0.85135591569E+02 0.92303136136E+02 0.92179334312E+02 0.82674767866E+02
 0.63331980254E+02 0.35942835833E+02 0.46937885245E+01 -.24459181458E+02 -.45210635625E+02
 -.52731401741E+02 -.45210635625E+02 -.24459181458E+02 0.46937885245E+01 0.35942835833E+02
 0.63331980254E+02 0.82674767866E+02 0.92179334312E+02 0.92303136136E+02 0.85135591569E+02
 0.73635156729E+02 0.60917873874E+02 0.49431656704E+02 0.39706376473E+02 0.31640242267E+02
 0.25091171246E+02 0.19883550841E+02 0.15811777715E+02 0.12659394298E+02 0.10227289267E+02
 0.83536443422E+01 0.69168138537E+01 0.58264782043E+01 0.50130144896E+01 0.44203428540E+01
 0.40029204426E+01 0.37260648624E+01 0.35672762796E+01 0.34635293319E+01 0.35153772715E+01
 0.36740224578E+01 0.39507187996E+01 0.43681608821E+01 0.49613006364E+01 0.57759718583E+01
 0.68686378535E+01 0.83095632315E+01 0.10190108841E+02 0.12633437479E+02 0.15803346408E+02
 0.19901197586E+02 0.25145671634E+02 0.31744523329E+02 0.39875905336E+02 0.49685321514E+02
 0.61277252114E+02 0.74046658943E+02 0.85450777531E+02 0.92309558028E+02 0.91609105420E+02
 0.81227875865E+02 0.60721566880E+02 0.31962779443E+02 -.70529415183E+00 -.31112829561E+02
 -.52731401741E+02 -.60562321137E+02 -.52731401741E+02 -.31112829561E+02 -.70529415183E+00
 0.31962779443E+02 0.60721566880E+02 0.81227875865E+02 0.91609105420E+02 0.92309558028E+02
 0.85450777531E+02 0.74046658943E+02 0.61277252114E+02 0.49685321514E+02 0.39875905336E+02
 0.31744523329E+02 0.25145671634E+02 0.19901197586E+02 0.15803346408E+02 0.12633437479E+02
 0.10190108841E+02 0.83095632315E+01 0.68686378535E+01 0.57759718583E+01 0.49613006364E+01