   8   8   0   0
  0.2082684E+02  0.5502640E-09  0.5502640E-09  0.5502640E-09  0.1000000E-15
  1.000000000000000E-004
  CAR 
 GaAs                                    
     10.76659583    -10.76428170  301      4.38134496      1.00000000
    -10.764  0.0000E+00  0.0000E+00
    -10.693  0.0000E+00  0.0000E+00
    -10.621  0.0000E+00  0.0000E+00
    -10.549  0.0000E+00  0.0000E+00
    -10.477  0.0000E+00  0.0000E+00
    -10.405  0.0000E+00  0.0000E+00
    -10.334  0.0000E+00  0.0000E+00
    -10.262  0.0000E+00  0.0000E+00
    -10.190  0.0000E+00  0.0000E+00
    -10.118  0.0000E+00  0.0000E+00
    -10.047  0.0000E+00  0.0000E+00
     -9.975  0.0000E+00  0.0000E+00
     -9.903  0.0000E+00  0.0000E+00
     -9.831  0.0000E+00  0.0000E+00
     -9.760  0.2644E-05  0.4208E-08
     -9.688  0.6796E-03  0.1734E-04
     -9.616  0.2552E-02  0.1261E-03
     -9.544  0.5245E-02  0.4072E-03
     -9.472  0.6957E-02  0.8524E-03
     -9.401  0.7465E-02  0.1377E-02
     -9.329  0.7790E-02  0.1921E-02
     -9.257  0.8582E-02  0.2506E-02
     -9.185  0.9713E-02  0.3162E-02
     -9.114  0.1092E-01  0.3902E-02
     -9.042  0.1372E-01  0.4748E-02
     -8.970  0.1911E-01  0.5935E-02
     -8.898  0.2309E-01  0.7457E-02
     -8.827  0.1970E-01  0.8989E-02
     -8.755  0.1690E-01  0.1030E-01
     -8.683  0.1652E-01  0.1149E-01
     -8.611  0.1629E-01  0.1267E-01
     -8.539  0.1590E-01  0.1382E-01
     -8.468  0.1536E-01  0.1495E-01
     -8.396  0.1998E-01  0.1624E-01
     -8.324  0.1506E-01  0.1750E-01
     -8.252  0.8437E-02  0.1826E-01
     -8.181  0.1295E-01  0.1897E-01
     -8.109  0.2054E-01  0.2017E-01
     -8.037  0.2436E-01  0.2183E-01
     -7.965  0.2556E-01  0.2362E-01
     -7.893  0.2783E-01  0.2553E-01
     -7.822  0.2806E-01  0.2746E-01
     -7.750  0.3007E-01  0.2954E-01
     -7.678  0.5977E-01  0.3296E-01
     -7.606  0.5140E-01  0.3705E-01
     -7.535  0.3376E-01  0.4053E-01
     -7.463  0.2880E-01  0.4253E-01
     -7.391  0.3089E-01  0.4467E-01
     -7.319  0.3333E-01  0.4697E-01
     -7.248  0.4872E-01  0.4978E-01
     -7.176  0.5507E-01  0.5380E-01
     -7.104  0.5552E-01  0.5768E-01
     -7.032  0.6156E-01  0.6192E-01
     -6.960  0.5599E-01  0.6619E-01
     -6.889  0.4144E-01  0.6941E-01
     -6.817  0.3860E-01  0.7228E-01
     -6.745  0.3588E-01  0.7495E-01
     -6.673  0.3221E-01  0.7745E-01
     -6.602  0.1701E-01  0.7987E-01
     -6.530  0.0000E+00  0.8000E-01
     -6.458  0.0000E+00  0.8000E-01
     -6.386  0.0000E+00  0.8000E-01
     -6.315  0.0000E+00  0.8000E-01
     -6.243  0.0000E+00  0.8000E-01
     -6.171  0.0000E+00  0.8000E-01
     -6.099  0.0000E+00  0.8000E-01
     -6.027  0.0000E+00  0.8000E-01
     -5.956  0.0000E+00  0.8000E-01
     -5.884  0.0000E+00  0.8000E-01
     -5.812  0.0000E+00  0.8000E-01
     -5.740  0.0000E+00  0.8000E-01
     -5.669  0.0000E+00  0.8000E-01
     -5.597  0.0000E+00  0.8000E-01
     -5.525  0.0000E+00  0.8000E-01
     -5.453  0.0000E+00  0.8000E-01
     -5.382  0.0000E+00  0.8000E-01
     -5.310  0.0000E+00  0.8000E-01
     -5.238  0.0000E+00  0.8000E-01
     -5.166  0.0000E+00  0.8000E-01
     -5.094  0.0000E+00  0.8000E-01
     -5.023  0.0000E+00  0.8000E-01
     -4.951  0.0000E+00  0.8000E-01
     -4.879  0.0000E+00  0.8000E-01
     -4.807  0.0000E+00  0.8000E-01
     -4.736  0.0000E+00  0.8000E-01
     -4.664  0.0000E+00  0.8000E-01
     -4.592  0.0000E+00  0.8000E-01
     -4.520  0.0000E+00  0.8000E-01
     -4.449  0.0000E+00  0.8000E-01
     -4.377  0.0000E+00  0.8000E-01
     -4.305  0.0000E+00  0.8000E-01
     -4.233  0.0000E+00  0.8000E-01
     -4.161  0.0000E+00  0.8000E-01
     -4.090  0.0000E+00  0.8000E-01
     -4.018  0.0000E+00  0.8000E-01
     -3.946  0.0000E+00  0.8000E-01
     -3.874  0.0000E+00  0.8000E-01
     -3.803  0.0000E+00  0.8000E-01
     -3.731  0.0000E+00  0.8000E-01
     -3.659  0.0000E+00  0.8000E-01
     -3.587  0.0000E+00  0.8000E-01
     -3.516  0.0000E+00  0.8000E-01
     -3.444  0.0000E+00  0.8000E-01
     -3.372  0.0000E+00  0.8000E-01
     -3.300  0.1120E-02  0.8001E-01
     -3.228  0.9802E-02  0.8037E-01
     -3.157  0.2942E-01  0.8194E-01
     -3.085  0.3783E-01  0.8409E-01
     -3.013  0.6817E-01  0.8781E-01
     -2.941  0.1301E+00  0.9502E-01
     -2.870  0.6778E-01  0.1008E+00
     -2.798  0.6829E-01  0.1057E+00
     -2.726  0.6942E-01  0.1106E+00
     -2.654  0.5343E-01  0.1149E+00
     -2.583  0.4000E-01  0.1182E+00
     -2.511  0.3097E-01  0.1208E+00
     -2.439  0.2253E-01  0.1225E+00
     -2.367  0.2196E-01  0.1241E+00
     -2.295  0.2141E-01  0.1257E+00
     -2.224  0.2090E-01  0.1272E+00
     -2.152  0.2042E-01  0.1287E+00
     -2.080  0.1996E-01  0.1301E+00
     -2.008  0.1954E-01  0.1315E+00
     -1.937  0.1916E-01  0.1329E+00
     -1.865  0.1578E-01  0.1341E+00
     -1.793  0.1556E-01  0.1352E+00
     -1.721  0.1531E-01  0.1364E+00
     -1.650  0.1499E-01  0.1374E+00
     -1.578  0.1460E-01  0.1385E+00
     -1.506  0.1419E-01  0.1395E+00
     -1.434  0.1375E-01  0.1405E+00
     -1.362  0.1329E-01  0.1415E+00
     -1.291  0.1280E-01  0.1424E+00
     -1.219  0.1229E-01  0.1433E+00
     -1.147  0.1244E-01  0.1442E+00
     -1.075  0.1171E-01  0.1451E+00
     -1.004  0.1110E-01  0.1459E+00
     -0.932  0.1061E-01  0.1467E+00
     -0.860  0.9127E-02  0.1474E+00
     -0.788  0.9718E-02  0.1481E+00
     -0.717  0.1122E-01  0.1489E+00
     -0.645  0.1300E-01  0.1497E+00
     -0.573  0.1507E-01  0.1507E+00
     -0.501  0.2247E-01  0.1524E+00
     -0.429  0.1651E-01  0.1535E+00
     -0.358  0.1771E-01  0.1547E+00
     -0.286  0.1963E-01  0.1561E+00
     -0.214  0.2162E-01  0.1576E+00
     -0.142  0.3672E-01  0.1594E+00
     -0.071  0.3925E-01  0.1621E+00
      0.001  0.3183E-01  0.1649E+00
      0.073  0.3897E-01  0.1674E+00
      0.145  0.4988E-01  0.1706E+00
      0.216  0.6127E-01  0.1746E+00
      0.288  0.5979E-01  0.1789E+00
      0.360  0.4604E-01  0.1826E+00
      0.432  0.4226E-01  0.1858E+00
      0.504  0.3744E-01  0.1886E+00
      0.575  0.3548E-01  0.1912E+00
      0.647  0.4435E-01  0.1940E+00
      0.719  0.3077E-01  0.1967E+00
      0.791  0.3210E-01  0.1989E+00
      0.862  0.3407E-01  0.2013E+00
      0.934  0.3596E-01  0.2038E+00
      1.006  0.3966E-01  0.2065E+00
      1.078  0.5345E-01  0.2096E+00
      1.149  0.7838E-01  0.2144E+00
      1.221  0.6301E-01  0.2196E+00
      1.293  0.7371E-01  0.2245E+00
      1.365  0.6433E-01  0.2295E+00
      1.437  0.5521E-01  0.2338E+00
      1.508  0.4639E-01  0.2374E+00
      1.580  0.3674E-01  0.2403E+00
      1.652  0.3323E-01  0.2428E+00
      1.724  0.3215E-01  0.2452E+00
      1.795  0.3422E-01  0.2475E+00
      1.867  0.4296E-01  0.2503E+00
      1.939  0.5050E-01  0.2536E+00
      2.011  0.5266E-01  0.2576E+00
      2.082  0.5223E-01  0.2614E+00
      2.154  0.4743E-01  0.2648E+00
      2.226  0.4917E-01  0.2683E+00
      2.298  0.5737E-01  0.2722E+00
      2.370  0.6632E-01  0.2771E+00
      2.441  0.4622E-01  0.2811E+00
      2.513  0.4128E-01  0.2843E+00
      2.585  0.3641E-01  0.2871E+00
      2.657  0.3161E-01  0.2895E+00
      2.728  0.2808E-01  0.2917E+00
      2.800  0.1982E-01  0.2931E+00
      2.872  0.1843E-01  0.2945E+00
      2.944  0.2307E-01  0.2959E+00
      3.015  0.3013E-01  0.2978E+00
      3.087  0.4259E-01  0.3007E+00
      3.159  0.4287E-01  0.3036E+00
      3.231  0.4665E-01  0.3068E+00
      3.303  0.4791E-01  0.3101E+00
      3.374  0.2877E-01  0.3129E+00
      3.446  0.1405E-01  0.3141E+00
      3.518  0.1240E-01  0.3150E+00
      3.590  0.1081E-01  0.3158E+00
      3.661  0.9279E-02  0.3166E+00
      3.733  0.7837E-02  0.3172E+00
      3.805  0.8033E-02  0.3177E+00
      3.877  0.8092E-02  0.3183E+00
      3.948  0.7429E-02  0.3189E+00
      4.020  0.6046E-02  0.3194E+00
      4.092  0.3941E-02  0.3197E+00
      4.164  0.1197E-02  0.3199E+00
      4.236  0.5135E-03  0.3200E+00
      4.307  0.1150E-03  0.3200E+00
      4.379  0.0000E+00  0.3200E+00
      4.451  0.0000E+00  0.3200E+00
      4.523  0.0000E+00  0.3200E+00
      4.594  0.0000E+00  0.3200E+00
      4.666  0.0000E+00  0.3200E+00
      4.738  0.0000E+00  0.3200E+00
      4.810  0.0000E+00  0.3200E+00
      4.881  0.0000E+00  0.3200E+00
      4.953  0.0000E+00  0.3200E+00
      5.025  0.0000E+00  0.3200E+00
      5.097  0.0000E+00  0.3200E+00
      5.169  0.0000E+00  0.3200E+00
      5.240  0.0000E+00  0.3200E+00
      5.312  0.0000E+00  0.3200E+00
      5.384  0.0000E+00  0.3200E+00
      5.456  0.1909E-03  0.3200E+00
      5.527  0.2176E-02  0.3201E+00
      5.599  0.2738E-02  0.3203E+00
      5.671  0.3427E-02  0.3205E+00
      5.743  0.4241E-02  0.3208E+00
      5.814  0.5182E-02  0.3211E+00
      5.886  0.6290E-02  0.3215E+00
      5.958  0.7271E-02  0.3220E+00
      6.030  0.7871E-02  0.3226E+00
      6.102  0.1227E-01  0.3234E+00
      6.173  0.1177E-01  0.3242E+00
      6.245  0.1483E-01  0.3251E+00
      6.317  0.2193E-01  0.3264E+00
      6.389  0.3621E-01  0.3286E+00
      6.460  0.2620E-01  0.3307E+00
      6.532  0.2842E-01  0.3327E+00
      6.604  0.3085E-01  0.3348E+00
      6.676  0.3397E-01  0.3371E+00
      6.747  0.3715E-01  0.3397E+00
      6.819  0.7777E-01  0.3435E+00
      6.891  0.8314E-01  0.3499E+00
      6.963  0.7419E-01  0.3558E+00
      7.035  0.4903E-01  0.3600E+00
      7.106  0.5837E-01  0.3639E+00
      7.178  0.7007E-01  0.3683E+00
      7.250  0.4017E-01  0.3717E+00
      7.322  0.4033E-01  0.3746E+00
      7.393  0.5244E-01  0.3775E+00
      7.465  0.6171E-01  0.3817E+00
      7.537  0.6653E-01  0.3863E+00
      7.609  0.5240E-01  0.3906E+00
      7.681  0.3885E-01  0.3938E+00
      7.752  0.3672E-01  0.3965E+00
      7.824  0.3462E-01  0.3990E+00
      7.896  0.3405E-01  0.4015E+00
      7.968  0.3346E-01  0.4039E+00
      8.039  0.3397E-01  0.4063E+00
      8.111  0.2826E-01  0.4085E+00
      8.183  0.2356E-01  0.4104E+00
      8.255  0.1905E-01  0.4118E+00
      8.326  0.1913E-01  0.4132E+00
      8.398  0.3908E-01  0.4156E+00
      8.470  0.4712E-01  0.4186E+00
      8.542  0.4788E-01  0.4218E+00
      8.614  0.1045E+00  0.4276E+00
      8.685  0.7556E-01  0.4336E+00
      8.757  0.5862E-01  0.4388E+00
      8.829  0.4742E-01  0.4424E+00
      8.901  0.4402E-01  0.4457E+00
      8.972  0.4100E-01  0.4487E+00
      9.044  0.3749E-01  0.4515E+00
      9.116  0.2747E-01  0.4536E+00
      9.188  0.4669E-01  0.4566E+00
      9.259  0.5469E-01  0.4602E+00
      9.331  0.4869E-01  0.4638E+00
      9.403  0.4762E-01  0.4673E+00
      9.475  0.4525E-01  0.4706E+00
      9.547  0.4158E-01  0.4737E+00
      9.618  0.2618E-01  0.4763E+00
      9.690  0.3335E-01  0.4784E+00
      9.762  0.3686E-02  0.4800E+00
      9.834  0.0000E+00  0.4800E+00
      9.905  0.0000E+00  0.4800E+00
      9.977  0.0000E+00  0.4800E+00
     10.049  0.0000E+00  0.4800E+00
     10.121  0.0000E+00  0.4800E+00
     10.192  0.0000E+00  0.4800E+00
     10.264  0.0000E+00  0.4800E+00
     10.336  0.0000E+00  0.4800E+00
     10.408  0.0000E+00  0.4800E+00
     10.480  0.0000E+00  0.4800E+00
     10.551  0.0000E+00  0.4800E+00
     10.623  0.0000E+00  0.4800E+00
     10.695  0.0000E+00  0.4800E+00
     10.767  0.0000E+00  0.4800E+00
