 running    8 mpi-ranks, on    1 nodes
 distrk:  each k-point on    8 cores,    1 groups
 distr:  one band on    1 cores,    8 groups
 vasp.6.4.3 19Mar24 (build Aug 29 2024 15:27:20) complex                        
  
 POSCAR found type information on POSCAR AsGa
 POSCAR found :  2 types and       8 ions
 scaLAPACK will be used
 -----------------------------------------------------------------------------
|                                                                             |
|           W    W    AA    RRRRR   N    N  II  N    N   GGGG   !!!           |
|           W    W   A  A   R    R  NN   N  II  NN   N  G    G  !!!           |
|           W    W  A    A  R    R  N N  N  II  N N  N  G       !!!           |
|           W WW W  AAAAAA  RRRRR   N  N N  II  N  N N  G  GGG   !            |
|           WW  WW  A    A  R   R   N   NN  II  N   NN  G    G                |
|           W    W  A    A  R    R  N    N  II  N    N   GGGG   !!!           |
|                                                                             |
|     For optimal performance we recommend to set                             |
|       NCORE = 2 up to number-of-cores-per-socket                            |
|     NCORE specifies how many cores store one orbital (NPAR=cpu/NCORE).      |
|     This setting can greatly improve the performance of VASP for DFT.       |
|     The default, NCORE=1 might be grossly inefficient on modern             |
|     multi-core architectures or massively parallel machines. Do your        |
|     own testing! More info at https://www.vasp.at/wiki/index.php/NCORE      |
|     Unfortunately you need to use the default for GW and RPA                |
|     calculations (for HF NCORE is supported but not extensively tested      |
|     yet).                                                                   |
|                                                                             |
 -----------------------------------------------------------------------------

 LDA part: xc-table for (Slater+PW92), standard interpolation
 found WAVECAR, reading the header
 POSCAR, INCAR and KPOINTS ok, starting setup
 FFT: planning ... GRIDC
 FFT: planning ... GRID_SOFT
 FFT: planning ... GRID
 reading WAVECAR
 the WAVECAR file was read successfully
 initial charge from wavefunction
 entering main loop
       N       E                     dE             d eps       ncg     rms          rms(c)
DAV:   1    -0.323434142773E+02   -0.32343E+02   -0.26077E-01   544   0.224E+00    0.825E-01
DAV:   2    -0.323374574206E+02    0.59569E-02   -0.14003E-02   504   0.524E-01    0.492E-01
DAV:   3    -0.323355068144E+02    0.19506E-02   -0.94626E-03   512   0.355E-01    0.556E-02
DAV:   4    -0.323353783172E+02    0.12850E-03   -0.56449E-04   504   0.109E-01    0.315E-02
DAV:   5    -0.323353632584E+02    0.15059E-04   -0.70178E-05   240   0.338E-02
   1 F= -.63371954E+01 E0= -.63371954E+01  d E =-.633720E+01
 curvature:   0.00 expect dE= 0.000E+00 dE for cont linesearch  0.000E+00
 trial: gam= 0.00000 g(F)=  0.501E-60 g(S)=  0.671E+00 ort = 0.000E+00 (trialstep = 0.100E+01)
 search vector abs. value=  0.671E+00
 bond charge predicted
       N       E                     dE             d eps       ncg     rms          rms(c)
DAV:   1    -0.316940031505E+02    0.64138E+00   -0.24065E+00   544   0.688E+00    0.170E+00
DAV:   2    -0.316146023144E+02    0.79401E-01   -0.14668E-01   504   0.169E+00    0.902E-01
DAV:   3    -0.315864494731E+02    0.28153E-01   -0.99051E-02   520   0.117E+00    0.310E-01
DAV:   4    -0.315856774827E+02    0.77199E-03   -0.35169E-03   512   0.286E-01    0.250E-01
DAV:   5    -0.315849840447E+02    0.69344E-03   -0.14362E-03   560   0.159E-01    0.929E-02
DAV:   6    -0.315849801314E+02    0.39133E-05   -0.10844E-04   264   0.438E-02
   2 F= -.68465492E+01 E0= -.68465492E+01  d E =-.509354E+00
 trial-energy change:   -0.509354  1 .order   -0.502078   -0.670630   -0.333527
 step:   1.8022(harm=  1.9894)  dis= 0.00000  next Energy=    -6.984080 (dE=-0.647E+00)
 bond charge predicted
       N       E                     dE             d eps       ncg     rms          rms(c)
DAV:   1    -0.308299550116E+02    0.75503E+00   -0.15592E+00   544   0.558E+00    0.139E+00
DAV:   2    -0.307782662423E+02    0.51689E-01   -0.93554E-02   504   0.137E+00    0.743E-01
DAV:   3    -0.307597472769E+02    0.18519E-01   -0.64407E-02   504   0.954E-01    0.255E-01
DAV:   4    -0.307592867257E+02    0.46055E-03   -0.22367E-03   520   0.229E-01    0.208E-01
DAV:   5    -0.307588452976E+02    0.44143E-03   -0.90850E-04   552   0.127E-01    0.748E-02
DAV:   6    -0.307588420085E+02    0.32891E-05   -0.67807E-05   240   0.350E-02
   3 F= -.70010168E+01 E0= -.70010168E+01  d E =-.663821E+00
 curvature:  -0.96 expect dE=-0.204E-02 dE for cont linesearch -0.204E-02
 ZBRENT: extrapolating
 opt :   1.9047  next Energy=    -7.002956 (dE=-0.666E+00)
 bond charge predicted
       N       E                     dE             d eps       ncg     rms          rms(c)
DAV:   1    -0.306384637879E+02    0.12038E+00   -0.25365E-02   544   0.706E-01    0.175E-01
DAV:   2    -0.306376387518E+02    0.82504E-03   -0.14680E-03   496   0.174E-01    0.933E-02
DAV:   3    -0.306373634219E+02    0.27533E-03   -0.10381E-03   512   0.121E-01    0.306E-02
DAV:   4    -0.306373565460E+02    0.68760E-05   -0.34417E-05   240   0.294E-02
   4 F= -.70030096E+01 E0= -.70030096E+01  d E =-.665814E+00
 curvature:  -0.91 expect dE=-0.180E-05 dE for cont linesearch -0.180E-05
 trial: gam= 0.00000 g(F)=  0.665E-59 g(S)=  0.198E-05 ort =-0.115E-02 (trialstep = 0.118E+01)
 search vector abs. value=  0.198E-05
 reached required accuracy - stopping structural energy minimisation
 writing wavefunctions
