<?xml version="1.0" encoding="ISO-8859-1"?>
<modeling>
 <generator>
  <i name="program" type="string">vasp </i>
  <i name="version" type="string">6.4.3  </i>
  <i name="subversion" type="string">19Mar24 (build Aug 29 2024 15:27:20) complex                          parallel </i>
  <i name="platform" type="string">LinuxIFC </i>
  <i name="date" type="string">2025 03 19 </i>
  <i name="time" type="string">10:27:07 </i>
 </generator>
 <incar>
  <i type="string" name="SYSTEM">GaAs</i>
  <i type="string" name="PREC">Normal</i>
  <i type="int" name="IBRION">     2</i>
  <i type="int" name="NFREE">     2</i>
  <i type="int" name="NSW">   100</i>
  <i type="int" name="ISIF">     3</i>
  <i name="ENCUT">    400.00000000</i>
  <i name="POTIM">      0.10000000</i>
  <i type="int" name="ISMEAR">    -5</i>
  <i name="SIGMA">      0.10000000</i>
  <i name="PSTRESS">    250.00000000</i>
 </incar>
 <primitive_cell>
  <structure name="primitive_cell" >
   <crystal>
    <varray name="basis" >
     <v>       2.75132003      -2.75132003       0.00000000 </v>
     <v>       2.75132003       0.00000000       2.75132003 </v>
     <v>       0.00000000      -2.75132003       2.75132003 </v>
    </varray>
    <i name="volume">     41.65367512 </i>
    <varray name="rec_basis" >
     <v>       0.18173095      -0.18173095      -0.18173095 </v>
     <v>       0.18173095       0.18173095       0.18173095 </v>
     <v>      -0.18173095      -0.18173095       0.18173095 </v>
    </varray>
   </crystal>
   <varray name="positions" >
    <v>       0.00000000       0.00000000       0.00000000 </v>
    <v>       0.75000000       0.75000000       0.75000000 </v>
   </varray>
  </structure>
  <varray name="primitive_index" >
   <v type="int" >        1 </v>
   <v type="int" >        5 </v>
  </varray>
 </primitive_cell>
 <kpoints>
  <generation param="Gamma">
   <v type="int" name="divisions">       5        5        5 </v>
   <v name="usershift">      0.00000000       0.00000000       0.00000000 </v>
   <v name="genvec1">      0.20000000       0.00000000       0.00000000 </v>
   <v name="genvec2">      0.00000000       0.20000000       0.00000000 </v>
   <v name="genvec3">      0.00000000       0.00000000       0.20000000 </v>
   <v name="shift">      0.00000000       0.00000000       0.00000000 </v>
  </generation>
  <varray name="kpointlist" >
   <v>       0.00000000       0.00000000       0.00000000 </v>
   <v>       0.20000000       0.00000000       0.00000000 </v>
   <v>       0.40000000       0.00000000       0.00000000 </v>
   <v>       0.20000000       0.20000000       0.00000000 </v>
   <v>       0.40000000       0.20000000       0.00000000 </v>
   <v>       0.40000000       0.40000000       0.00000000 </v>
   <v>       0.20000000       0.20000000       0.20000000 </v>
   <v>       0.40000000       0.20000000       0.20000000 </v>
   <v>       0.40000000       0.40000000       0.20000000 </v>
   <v>       0.40000000       0.40000000       0.40000000 </v>
  </varray>
  <varray name="weights" >
   <v>       0.00800000 </v>
   <v>       0.04800000 </v>
   <v>       0.04800000 </v>
   <v>       0.09600000 </v>
   <v>       0.19200000 </v>
   <v>       0.09600000 </v>
   <v>       0.06400000 </v>
   <v>       0.19200000 </v>
   <v>       0.19200000 </v>
   <v>       0.06400000 </v>
  </varray>
  <varray name="tetrahedronlist"  type="int" >
   <v type="int" >       12        7        8        8        9 </v>
   <v type="int" >       18        8        8        9        9 </v>
   <v type="int" >       24        8        9        9       10 </v>
   <v type="int" >       12        8        9        9        9 </v>
   <v type="int" >       24        9        9        9       10 </v>
   <v type="int" >       18        9        9       10       10 </v>
   <v type="int" >       24        4        5        7        8 </v>
   <v type="int" >       12        5        7        8        8 </v>
   <v type="int" >       24        5        8        8        9 </v>
   <v type="int" >       24        4        5        5        8 </v>
   <v type="int" >       24        5        5        6        8 </v>
   <v type="int" >       12        5        6        8        9 </v>
   <v type="int" >       12        9       10       10       10 </v>
   <v type="int" >       12        8        8        9       10 </v>
   <v type="int" >       12        8        9       10       10 </v>
   <v type="int" >       12        5        5        8        9 </v>
   <v type="int" >       12        5        8        9        9 </v>
   <v type="int" >       12        5        5        6        9 </v>
   <v type="int" >       12        5        6        6        9 </v>
   <v type="int" >       12        5        6        9        9 </v>
   <v type="int" >       12        5        6        8        8 </v>
   <v type="int" >       12        5        6        6        8 </v>
   <v type="int" >       12        6        8        8        9 </v>
   <v type="int" >       12        6        8        9        9 </v>
   <v type="int" >       12        6        6        8        9 </v>
   <v type="int" >       12        7        8        9       10 </v>
   <v type="int" >       12        4        5        8        9 </v>
   <v type="int" >       12        4        7        8        9 </v>
   <v type="int" >       12        4        5        6        9 </v>
   <v type="int" >       12        5        6        7        8 </v>
   <v type="int" >       12        4        5        6        7 </v>
   <v type="int" >       12        6        7        8        9 </v>
   <v type="int" >       12        2        4        7        8 </v>
   <v type="int" >       12        2        4        5        8 </v>
   <v type="int" >       12        2        3        5        8 </v>
   <v type="int" >       12        4        4        5        7 </v>
   <v type="int" >       12        2        4        4        5 </v>
   <v type="int" >       12        2        3        4        5 </v>
   <v type="int" >       12        3        4        5        5 </v>
   <v type="int" >       12        2        3        4        7 </v>
   <v type="int" >       12        3        4        5        7 </v>
   <v type="int" >       12        3        5        7        8 </v>
   <v type="int" >        6       10       10       10       10 </v>
   <v type="int" >       12        6        6        9        9 </v>
   <v type="int" >       12        6        9        9        9 </v>
   <v type="int" >       12        6        6        6        9 </v>
   <v type="int" >       12        3        5        8        8 </v>
   <v type="int" >       12        3        5        5        8 </v>
   <v type="int" >       12        3        3        5        8 </v>
   <v type="int" >       12        5        5        5        8 </v>
   <v type="int" >       12        3        5        5        5 </v>
   <v type="int" >        6        3        3        5        5 </v>
   <v type="int" >        6        5        5        8        8 </v>
   <v type="int" >       12        2        4        4        7 </v>
   <v type="int" >       12        2        2        4        4 </v>
   <v type="int" >       12        1        2        2        4 </v>
   <v type="int" >       12        1        2        4        7 </v>
  </varray>
  <i name="volumeweight">      0.00133333 </i>
 </kpoints>
 <parameters>
  <separator name="general" >
   <i type="string" name="SYSTEM">GaAs</i>
   <i type="logical" name="LCOMPAT"> F  </i>
  </separator>
  <separator name="electronic" >
   <i type="string" name="PREC">normal</i>
   <i name="ENMAX">    400.00000000</i>
   <i name="ENAUG">    462.75800000</i>
   <i name="EDIFF">      0.00010000</i>
   <i type="int" name="IALGO">    38</i>
   <i type="int" name="IWAVPR">    11</i>
   <i type="int" name="NBANDS">    24</i>
   <i type="int" name="NBANDSLOW">    -1</i>
   <i type="int" name="NBANDSHIGH">    -1</i>
   <i name="NELECT">     32.00000000</i>
   <i type="int" name="TURBO">     0</i>
   <i type="int" name="IRESTART">     0</i>
   <i type="int" name="NREBOOT">     0</i>
   <i type="int" name="NMIN">     0</i>
   <i name="EREF">      0.00000000</i>
   <separator name="electronic smearing" >
    <i type="int" name="ISMEAR">    -5</i>
    <i name="SIGMA">      0.10000000</i>
    <i name="KSPACING">      0.50000000</i>
    <i type="logical" name="KGAMMA"> T  </i>
    <i type="logical" name="KBLOWUP"> T  </i>
   </separator>
   <separator name="electronic projectors" >
    <i type="logical" name="LREAL"> F  </i>
    <v name="ROPT">      0.00000000      0.00000000</v>
    <i type="int" name="LMAXPAW">  -100</i>
    <i type="int" name="LMAXMIX">     2</i>
    <i type="logical" name="NLSPLINE"> F  </i>
   </separator>
   <separator name="electronic startup" >
    <i type="int" name="ISTART">     1</i>
    <i type="int" name="ICHARG">     0</i>
    <i type="int" name="INIWAV">     1</i>
   </separator>
   <separator name="electronic spin" >
    <i type="int" name="ISPIN">     1</i>
    <i type="logical" name="LNONCOLLINEAR"> F  </i>
    <v name="MAGMOM">      1.00000000      1.00000000      1.00000000      1.00000000      1.00000000      1.00000000      1.00000000      1.00000000</v>
    <i name="NUPDOWN">     -1.00000000</i>
    <i type="logical" name="LSORBIT"> F  </i>
    <v name="SAXIS">      0.00000000      0.00000000      1.00000000</v>
    <i type="logical" name="LSPIRAL"> F  </i>
    <v name="QSPIRAL">      0.00000000      0.00000000      0.00000000</v>
    <i type="logical" name="LZEROZ"> F  </i>
   </separator>
   <separator name="electronic exchange-correlation" >
    <i type="logical" name="LASPH"> F  </i>
   </separator>
   <separator name="electronic convergence" >
    <i type="int" name="NELM">    60</i>
    <i type="int" name="NELMDL">     0</i>
    <i type="int" name="NELMIN">     2</i>
    <i name="ENINI">    400.00000000</i>
    <separator name="electronic convergence detail" >
     <i type="logical" name="LDIAG"> T  </i>
     <i type="logical" name="LSUBROT"> F  </i>
     <i name="WEIMIN">      0.00100000</i>
     <i name="EBREAK">      0.00000104</i>
     <i name="DEPER">      0.30000000</i>
     <i type="int" name="NRMM">     4</i>
     <i name="TIME">      0.40000000</i>
    </separator>
   </separator>
   <separator name="electronic mixer" >
    <i name="AMIX">      0.40000000</i>
    <i name="BMIX">      1.00000000</i>
    <i name="AMIN">      0.10000000</i>
    <i name="AMIX_MAG">      1.60000000</i>
    <i name="BMIX_MAG">      1.00000000</i>
    <separator name="electronic mixer details" >
     <i type="int" name="IMIX">     4</i>
     <i type="logical" name="MIXFIRST"> F  </i>
     <i type="int" name="MAXMIX">   -45</i>
     <i name="WC">    100.00000000</i>
     <i type="int" name="INIMIX">     1</i>
     <i type="int" name="MIXPRE">     1</i>
     <i type="int" name="MREMOVE">     5</i>
    </separator>
   </separator>
   <separator name="electronic dipolcorrection" >
    <i type="logical" name="LDIPOL"> F  </i>
    <i type="logical" name="LMONO"> F  </i>
    <i type="int" name="IDIPOL">     0</i>
    <i name="EPSILON">      1.00000000</i>
    <v name="DIPOL">   -100.00000000   -100.00000000   -100.00000000</v>
    <i name="EFIELD">      0.00000000</i>
    <i type="logical" name="LVACPOTAV"> F  </i>
   </separator>
  </separator>
  <separator name="grids" >
   <i type="int" name="NGX">    28</i>
   <i type="int" name="NGY">    28</i>
   <i type="int" name="NGZ">    28</i>
   <i type="int" name="NGXF">    56</i>
   <i type="int" name="NGYF">    56</i>
   <i type="int" name="NGZF">    56</i>
   <i type="logical" name="ADDGRID"> F  </i>
  </separator>
  <separator name="ionic" >
   <i type="int" name="NSW">   100</i>
   <i type="int" name="IBRION">     2</i>
   <i type="int" name="MDALGO">     0</i>
   <i type="int" name="ISIF">     3</i>
   <i name="PSTRESS">    250.00000000</i>
   <i name="EDIFFG">      0.00100000</i>
   <i type="int" name="NFREE">     2</i>
   <i name="POTIM">      0.10000000</i>
   <i name="SMASS">     -3.00000000</i>
   <i name="SCALEE">      1.00000000</i>
  </separator>
  <separator name="ionic md" >
   <i name="TEBEG">      0.00010000</i>
   <i name="TEEND">      0.00010000</i>
   <i type="int" name="NBLOCK">     1</i>
   <i type="int" name="KBLOCK">   100</i>
   <i type="int" name="NPACO">   256</i>
   <i name="APACO">     10.00000000</i>
  </separator>
  <separator name="symmetry" >
   <i type="int" name="ISYM">     2</i>
   <i name="SYMPREC">      0.00001000</i>
  </separator>
  <separator name="dos" >
   <i type="int" name="LORBIT">     0</i>
   <v name="RWIGS">     -1.00000000     -1.00000000</v>
   <i type="int" name="NEDOS">   301</i>
   <i name="EMIN">     10.00000000</i>
   <i name="EMAX">    -10.00000000</i>
   <i name="EFERMI">      0.00000000</i>
  </separator>
  <separator name="writing" >
   <i type="int" name="NWRITE">     2</i>
   <i type="logical" name="LWAVE"> T  </i>
   <i type="logical" name="LDOWNSAMPLE"> F  </i>
   <i type="logical" name="LCHARG"> T  </i>
   <i type="logical" name="LPARD"> F  </i>
   <i type="logical" name="LVTOT"> F  </i>
   <i type="logical" name="LVHAR"> F  </i>
   <i type="logical" name="LELF"> F  </i>
   <i type="logical" name="LOPTICS"> F  </i>
   <v name="STM">      0.00000000      0.00000000      0.00000000      0.00000000      0.00000000      0.00000000      0.00000000</v>
  </separator>
  <separator name="performance" >
   <i type="int" name="NPAR">     8</i>
   <i type="int" name="NSIM">     4</i>
   <i type="int" name="NBLK">    -1</i>
   <i type="logical" name="LPLANE"> T  </i>
   <i type="logical" name="LSCALAPACK"> T  </i>
   <i type="logical" name="LSCAAWARE"> F  </i>
   <i type="logical" name="LSCALU"> F  </i>
   <i type="logical" name="LASYNC"> F  </i>
   <i type="logical" name="LORBITALREAL"> F  </i>
  </separator>
  <separator name="miscellaneous" >
   <i type="int" name="IDIOT">     3</i>
   <i type="int" name="PHON_NSTRUCT">    -1</i>
   <i type="logical" name="LMUSIC"> F  </i>
   <v name="POMASS">     74.92200000     69.72300000</v>
   <v name="DARWINR">      0.00000000      0.00000000</v>
   <v name="DARWINV">      1.00000000      1.00000000</v>
   <i type="logical" name="LCORR"> T  </i>
  </separator>
  <i type="logical" name="GGA_COMPAT"> T  </i>
  <i type="logical" name="LBERRY"> F  </i>
  <i type="int" name="ICORELEVEL">     0</i>
  <i type="logical" name="LDAU"> F  </i>
  <i type="int" name="I_CONSTRAINED_M">     0</i>
  <separator name="electronic exchange-correlation" >
   <i type="string" name="GGA    ">PE</i>
   <i type="string" name="XC_C">1</i>
   <i type="int" name="VOSKOWN">     0</i>
   <i type="logical" name="LHFCALC"> F  </i>
   <i type="string" name="PRECFOCK"></i>
   <i type="logical" name="LSYMGRAD"> F  </i>
   <i type="logical" name="LHFONE"> F  </i>
   <i type="logical" name="LRHFCALC"> F  </i>
   <i type="logical" name="LTHOMAS"> F  </i>
   <i type="logical" name="LMODELHF"> F  </i>
   <i type="logical" name="LFOCKACE"> F  </i>
   <i name="ENCUT4O">     -1.00000000</i>
   <i type="int" name="EXXOEP">     0</i>
   <i type="int" name="FOURORBIT">     0</i>
   <i name="AEXX">      0.00000000</i>
   <i name="HFALPHA">      0.00000000</i>
   <i name="MCALPHA">      0.00000000</i>
   <i name="ALDAX">      1.00000000</i>
   <i name="AGGAX">      1.00000000</i>
   <i name="AMGGAX">      1.00000000</i>
   <i name="ALDAC">      1.00000000</i>
   <i name="AGGAC">      1.00000000</i>
   <i name="AMGGAC">      1.00000000</i>
   <i type="int" name="NKREDX">     1</i>
   <i type="int" name="NKREDY">     1</i>
   <i type="int" name="NKREDZ">     1</i>
   <i type="logical" name="SHIFTRED"> F  </i>
   <i type="logical" name="ODDONLY"> F  </i>
   <i type="logical" name="EVENONLY"> F  </i>
   <i type="int" name="LMAXFOCK">     0</i>
   <i type="int" name="NMAXFOCKAE">     0</i>
   <i type="logical" name="LFOCKAEDFT"> F  </i>
   <i name="HFSCREEN">      0.00000000</i>
   <i name="HFSCREENC">      0.00000000</i>
   <i type="int" name="NBANDSGWLOW">     0</i>
  </separator>
  <separator name="vdW DFT" >
   <i type="logical" name="LUSE_VDW"> F  </i>
   <i type="int" name="IVDW_NL">    -1</i>
   <i type="logical" name="LSPIN_VDW"> F  </i>
   <i name="ZAB_VDW">     -0.84910000</i>
   <i name="GAMMA_VDW">      1.39626340</i>
   <i name="ALPHA_VDW">      0.00000000</i>
   <i name="PARAM1">      0.12340000</i>
   <i name="PARAM2">      1.00000000</i>
   <i name="BPARAM">      6.30000000</i>
   <i name="CPARAM">      0.00930000</i>
  </separator>
  <separator name="model GW" >
   <i type="int" name="MODEL_GW">     0</i>
   <i name="MODEL_EPS0">     12.49610254</i>
   <i name="MODEL_ALPHA">      1.00000000</i>
  </separator>
  <separator name="linear response parameters" >
   <i type="logical" name="LEPSILON"> F  </i>
   <i type="logical" name="LRPA"> F  </i>
   <i type="logical" name="LNABLA"> F  </i>
   <i type="logical" name="LVEL"> F  </i>
   <i name="CSHIFT">      0.10000000</i>
   <i name="OMEGAMAX">     -1.00000000</i>
   <i name="DEG_THRESHOLD">      0.00200000</i>
   <i name="RTIME">     -0.10000000</i>
   <i name="WPLASMAI">      0.00000000</i>
   <v name="DFIELD">      0.00000000      0.00000000      0.00000000</v>
   <v name="WPLASMA">      0.00000000      0.00000000      0.00000000      0.00000000      0.00000000      0.00000000      0.00000000      0.00000000      0.00000000</v>
  </separator>
  <separator name="orbital magnetization" >
   <i type="logical" name="NUCIND"> F  </i>
   <v name="MAGPOS">      0.00000000      0.00000000      0.00000000</v>
   <i type="logical" name="LNICSALL"> T  </i>
   <i type="logical" name="ORBITALMAG"> F  </i>
   <i type="logical" name="LMAGBLOCH"> F  </i>
   <i type="logical" name="LCHIMAG"> F  </i>
   <i type="logical" name="LGAUGE"> T  </i>
   <i type="int" name="MAGATOM">     0</i>
   <v name="MAGDIPOL">      0.00000000      0.00000000      0.00000000</v>
   <v name="AVECCONST">      0.00000000      0.00000000      0.00000000</v>
  </separator>
  <separator name="response functions" >
   <i type="logical" name="LALL_IN_ONE"> F  </i>
   <i type="int" name="IALL_IN_ONE">    -1</i>
   <i type="int" name="NBANDS_WAVE">    -1</i>
   <i type="logical" name="LFINITE_TEMPERATURE"> F  </i>
   <i type="logical" name="LADDER"> F  </i>
   <i type="logical" name="LRPAFORCE"> F  </i>
   <i type="logical" name="LFXC"> F  </i>
   <i type="logical" name="LHARTREE"> T  </i>
   <i type="int" name="IBSE">     0</i>
   <v type="int" name="KPOINT">    -1     0     0     0</v>
   <i type="logical" name="LTCTC"> F  </i>
   <i type="logical" name="LTCTE"> F  </i>
   <i type="logical" name="LTETE"> F  </i>
   <i type="logical" name="LTRIPLET"> F  </i>
   <i type="logical" name="LFXCEPS"> F  </i>
   <i type="logical" name="LFXHEG"> F  </i>
   <i type="int" name="NATURALO">     2</i>
   <i type="logical" name="LHOLEGF"> F  </i>
   <i type="logical" name="L2ORDER"> F  </i>
   <i type="logical" name="LDMP1"> F  </i>
   <i type="logical" name="LMP2LT"> F  </i>
   <i type="logical" name="LSMP2LT"> F  </i>
   <i type="logical" name="LGWLF"> F  </i>
   <i name="ENCUTGW">     -1.60000002</i>
   <i name="ENCUTGWSOFT">     -1.60000002</i>
   <i name="ENCUTLF">     -1.00000000</i>
   <i type="logical" name="ESF_SPLINES"> F  </i>
   <i name="ESF_CONV">      0.01000000</i>
   <i type="int" name="ESF_NINTER">    15</i>
   <i type="int" name="LMAXMP2">    -1</i>
   <i name="SCISSOR">      0.00000000</i>
   <i type="int" name="NOMEGA">     0</i>
   <i type="int" name="NOMEGAR">     0</i>
   <i type="int" name="NBANDSGW">    -1</i>
   <i type="int" name="NBANDSO">    -1</i>
   <i type="int" name="NBANDSV">    -1</i>
   <i type="int" name="NELMGW">     1</i>
   <i type="int" name="NELMHF">     1</i>
   <i type="int" name="DIM">     3</i>
   <i type="int" name="IESPILON">     4</i>
   <i type="int" name="ANTIRES">     0</i>
   <i name="OMEGAMAX">    -30.00000000</i>
   <i name="OMEGAMIN">    -30.00000000</i>
   <i name="OMEGATL">   -200.00000000</i>
   <i type="int" name="OMEGAGRID">     0</i>
   <i name="CSHIFT">     -0.10000000</i>
   <i type="logical" name="LSELFENERGY"> F  </i>
   <i type="logical" name="LSPECTRAL"> F  </i>
   <i type="logical" name="LSPECTRALGW"> F  </i>
   <i type="logical" name="LSINGLES"> F  </i>
   <i type="logical" name="LFERMIGW"> F  </i>
   <i type="logical" name="ODDONLYGW"> F  </i>
   <i type="logical" name="EVENONLYGW"> F  </i>
   <i type="int" name="NKREDLFX">     1</i>
   <i type="int" name="NKREDLFY">     1</i>
   <i type="int" name="NKREDLFZ">     1</i>
   <i type="int" name="MAXMEM">  2800</i>
   <i type="int" name="TELESCOPE">     0</i>
   <i type="int" name="NTAUPAR">    -1</i>
   <i type="int" name="NOMEGAPAR">    -1</i>
   <i name="DAMP_NEWTON">      0.80000001</i>
   <i name="LAMBDA">      1.00000000</i>
  </separator>
  <separator name="External order field" >
   <i name="OFIELD_KAPPA">      0.00000000</i>
   <v name="OFIELD_K">      0.00000000      0.00000000      0.00000000</v>
   <i name="OFIELD_Q6_NEAR">      0.00000000</i>
   <i name="OFIELD_Q6_FAR">      0.00000000</i>
   <i name="OFIELD_A">      0.00000000</i>
  </separator>
  <separator name="optional k-points parameters" >
   <i type="int" name="KPOINTS_OPT_MODE">     1</i>
   <i type="logical" name="LKPOINTS_OPT"> F  </i>
  </separator>
 </parameters>
 <atominfo>
  <atoms>       8 </atoms>
  <types>       2 </types>
  <array name="atoms" >
   <dimension dim="1">ion</dimension>
   <field type="string">element</field>
   <field type="int">atomtype</field>
   <set>
    <rc><c>As</c><c>   1</c></rc>
    <rc><c>As</c><c>   1</c></rc>
    <rc><c>As</c><c>   1</c></rc>
    <rc><c>As</c><c>   1</c></rc>
    <rc><c>Ga</c><c>   2</c></rc>
    <rc><c>Ga</c><c>   2</c></rc>
    <rc><c>Ga</c><c>   2</c></rc>
    <rc><c>Ga</c><c>   2</c></rc>
   </set>
  </array>
  <array name="atomtypes" >
   <dimension dim="1">type</dimension>
   <field type="int">atomspertype</field>
   <field type="string">element</field>
   <field>mass</field>
   <field>valence</field>
   <field type="string">pseudopotential</field>
   <set>
    <rc><c>   4</c><c>As</c><c>     74.92200000</c><c>      5.00000000</c><c>  PAW_PBE As 22Sep2009                  </c></rc>
    <rc><c>   4</c><c>Ga</c><c>     69.72300000</c><c>      3.00000000</c><c>  PAW_PBE Ga 08Apr2002                  </c></rc>
   </set>
  </array>
 </atominfo>
 <structure name="initialpos" >
  <crystal>
   <varray name="basis" >
    <v>       5.50264006       0.00000000       0.00000000 </v>
    <v>       0.00000000       5.50264006       0.00000000 </v>
    <v>       0.00000000       0.00000000       5.50264006 </v>
   </varray>
   <i name="volume">    166.61470049 </i>
   <varray name="rec_basis" >
    <v>       0.18173095       0.00000000       0.00000000 </v>
    <v>       0.00000000       0.18173095       0.00000000 </v>
    <v>       0.00000000       0.00000000       0.18173095 </v>
   </varray>
  </crystal>
  <varray name="positions" >
   <v>       0.00000000       0.00000000       0.00000000 </v>
   <v>       0.50000000       0.50000000       0.00000000 </v>
   <v>       0.50000000       0.00000000       0.50000000 </v>
   <v>       0.00000000       0.50000000       0.50000000 </v>
   <v>       0.25000000       0.25000000       0.25000000 </v>
   <v>       0.75000000       0.25000000       0.75000000 </v>
   <v>       0.75000000       0.75000000       0.25000000 </v>
   <v>       0.25000000       0.75000000       0.75000000 </v>
  </varray>
 </structure>
 <calculation>
  <scstep>
   <time name="dav">    0.21    0.22</time>
   <time name="total">    0.23    0.25</time>
   <energy>
    <i name="alphaZ">     82.12872199 </i>
    <i name="ewald">   -941.78307081 </i>
    <i name="hartreedc">    -80.28717984 </i>
    <i name="XCdc">   -120.08222369 </i>
    <i name="pawpsdc">   2215.69655713 </i>
    <i name="pawaedc">  -2037.23112734 </i>
    <i name="eentropy">      0.00000000 </i>
    <i name="bandstr">    -67.00172465 </i>
    <i name="atom">    916.21663293 </i>
    <i name="e_fr_energy">    -32.34341428 </i>
    <i name="e_wo_entrp">    -32.34341428 </i>
    <i name="e_0_energy">    -32.34341428 </i>
   </energy>
  </scstep>
  <scstep>
   <time name="dav">    0.19    0.20</time>
   <time name="total">    0.21    0.23</time>
   <energy>
    <i name="e_fr_energy">    -32.33745742 </i>
    <i name="e_wo_entrp">    -32.33745742 </i>
    <i name="e_0_energy">    -32.33745742 </i>
   </energy>
  </scstep>
  <scstep>
   <time name="dav">    0.19    0.20</time>
   <time name="total">    0.21    0.23</time>
   <energy>
    <i name="e_fr_energy">    -32.33550681 </i>
    <i name="e_wo_entrp">    -32.33550681 </i>
    <i name="e_0_energy">    -32.33550681 </i>
   </energy>
  </scstep>
  <scstep>
   <time name="dav">    0.19    0.20</time>
   <time name="total">    0.21    0.22</time>
   <energy>
    <i name="e_fr_energy">    -32.33537832 </i>
    <i name="e_wo_entrp">    -32.33537832 </i>
    <i name="e_0_energy">    -32.33537832 </i>
   </energy>
  </scstep>
  <scstep>
   <time name="dav">    0.13    0.14</time>
   <time name="total">    0.15    0.16</time>
   <energy>
    <i name="alphaZ">     82.12872199 </i>
    <i name="ewald">   -941.78307081 </i>
    <i name="hartreedc">    -78.91987543 </i>
    <i name="XCdc">   -120.02991246 </i>
    <i name="pawpsdc">   2308.45232597 </i>
    <i name="pawaedc">  -2129.94905809 </i>
    <i name="eentropy">      0.00000000 </i>
    <i name="bandstr">    -68.45112736 </i>
    <i name="atom">    916.21663293 </i>
    <i name="e_fr_energy">    -32.33536326 </i>
    <i name="e_wo_entrp">    -32.33536326 </i>
    <i name="e_0_energy">    -32.33536326 </i>
   </energy>
  </scstep>
  <structure>
   <crystal>
    <varray name="basis" >
     <v>       5.50264006       0.00000000       0.00000000 </v>
     <v>       0.00000000       5.50264006       0.00000000 </v>
     <v>       0.00000000       0.00000000       5.50264006 </v>
    </varray>
    <i name="volume">    166.61470049 </i>
    <varray name="rec_basis" >
     <v>       0.18173095       0.00000000       0.00000000 </v>
     <v>       0.00000000       0.18173095       0.00000000 </v>
     <v>       0.00000000       0.00000000       0.18173095 </v>
    </varray>
   </crystal>
   <varray name="positions" >
    <v>       0.00000000       0.00000000       0.00000000 </v>
    <v>       0.50000000       0.50000000       0.00000000 </v>
    <v>       0.50000000       0.00000000       0.50000000 </v>
    <v>       0.00000000       0.50000000       0.50000000 </v>
    <v>       0.25000000       0.25000000       0.25000000 </v>
    <v>       0.75000000       0.25000000       0.75000000 </v>
    <v>       0.75000000       0.75000000       0.25000000 </v>
    <v>       0.25000000       0.75000000       0.75000000 </v>
   </varray>
  </structure>
  <varray name="forces" >
   <v>       0.00000000       0.00000000      -0.00000000 </v>
   <v>      -0.00000000      -0.00000000      -0.00000000 </v>
   <v>       0.00000000       0.00000000      -0.00000000 </v>
   <v>      -0.00000000      -0.00000000       0.00000000 </v>
   <v>       0.00000000      -0.00000000       0.00000000 </v>
   <v>       0.00000000       0.00000000       0.00000000 </v>
   <v>       0.00000000       0.00000000       0.00000000 </v>
   <v>       0.00000000      -0.00000000       0.00000000 </v>
  </varray>
  <varray name="stress" >
   <v>     119.08408403       0.00000000      -0.00000000 </v>
   <v>      -0.00000000     119.08408403      -0.00000000 </v>
   <v>       0.00000000      -0.00000000     119.08408403 </v>
  </varray>
  <energy>
   <i name="e_fr_energy">     -6.33719543 </i>
   <i name="e_wo_entrp">     -6.33719543 </i>
   <i name="e_0_energy">     -6.33719543 </i>
  </energy>
  <time name="totalsc">    1.48    1.57</time>
 </calculation>
 <calculation>
  <scstep>
   <time name="dav">    0.20    0.21</time>
   <time name="total">    0.22    0.24</time>
   <energy>
    <i name="alphaZ">     86.31090255 </i>
    <i name="ewald">   -957.50505886 </i>
    <i name="hartreedc">    -80.24148137 </i>
    <i name="XCdc">   -119.64408098 </i>
    <i name="pawpsdc">   2307.60620424 </i>
    <i name="pawaedc">  -2129.10349373 </i>
    <i name="eentropy">      0.00000000 </i>
    <i name="bandstr">    -55.33362794 </i>
    <i name="atom">    916.21663293 </i>
    <i name="e_fr_energy">    -31.69400315 </i>
    <i name="e_wo_entrp">    -31.69400315 </i>
    <i name="e_0_energy">    -31.69400315 </i>
   </energy>
  </scstep>
  <scstep>
   <time name="dav">    0.19    0.20</time>
   <time name="total">    0.21    0.22</time>
   <energy>
    <i name="e_fr_energy">    -31.61460231 </i>
    <i name="e_wo_entrp">    -31.61460231 </i>
    <i name="e_0_energy">    -31.61460231 </i>
   </energy>
  </scstep>
  <scstep>
   <time name="dav">    0.19    0.21</time>
   <time name="total">    0.22    0.23</time>
   <energy>
    <i name="e_fr_energy">    -31.58644947 </i>
    <i name="e_wo_entrp">    -31.58644947 </i>
    <i name="e_0_energy">    -31.58644947 </i>
   </energy>
  </scstep>
  <scstep>
   <time name="dav">    0.19    0.20</time>
   <time name="total">    0.22    0.23</time>
   <energy>
    <i name="e_fr_energy">    -31.58567748 </i>
    <i name="e_wo_entrp">    -31.58567748 </i>
    <i name="e_0_energy">    -31.58567748 </i>
   </energy>
  </scstep>
  <scstep>
   <time name="dav">    0.20    0.21</time>
   <time name="total">    0.22    0.24</time>
   <energy>
    <i name="e_fr_energy">    -31.58498404 </i>
    <i name="e_wo_entrp">    -31.58498404 </i>
    <i name="e_0_energy">    -31.58498404 </i>
   </energy>
  </scstep>
  <scstep>
   <time name="dav">    0.14    0.15</time>
   <time name="total">    0.15    0.16</time>
   <energy>
    <i name="alphaZ">     86.31090255 </i>
    <i name="ewald">   -957.50505886 </i>
    <i name="hartreedc">    -75.47022804 </i>
    <i name="XCdc">   -119.41338749 </i>
    <i name="pawpsdc">   2522.71011383 </i>
    <i name="pawaedc">  -2344.44419910 </i>
    <i name="eentropy">      0.00000000 </i>
    <i name="bandstr">    -59.98975595 </i>
    <i name="atom">    916.21663293 </i>
    <i name="e_fr_energy">    -31.58498013 </i>
    <i name="e_wo_entrp">    -31.58498013 </i>
    <i name="e_0_energy">    -31.58498013 </i>
   </energy>
  </scstep>
  <structure>
   <crystal>
    <varray name="basis" >
     <v>       5.41228812       0.00000000      -0.00000000 </v>
     <v>      -0.00000000       5.41228812      -0.00000000 </v>
     <v>       0.00000000      -0.00000000       5.41228812 </v>
    </varray>
    <i name="volume">    158.54141263 </i>
    <varray name="rec_basis" >
     <v>       0.18476474       0.00000000      -0.00000000 </v>
     <v>      -0.00000000       0.18476474       0.00000000 </v>
     <v>       0.00000000       0.00000000       0.18476474 </v>
    </varray>
   </crystal>
   <varray name="positions" >
    <v>       0.00000000       0.00000000       1.00000000 </v>
    <v>       0.50000000       0.50000000       1.00000000 </v>
    <v>       0.50000000       0.00000000       0.50000000 </v>
    <v>       1.00000000       0.50000000       0.50000000 </v>
    <v>       0.25000000       0.25000000       0.25000000 </v>
    <v>       0.75000000       0.25000000       0.75000000 </v>
    <v>       0.75000000       0.75000000       0.25000000 </v>
    <v>       0.25000000       0.75000000       0.75000000 </v>
   </varray>
  </structure>
  <varray name="forces" >
   <v>      -0.00000000       0.00000000       0.00000000 </v>
   <v>       0.00000000      -0.00000000      -0.00000000 </v>
   <v>      -0.00000000       0.00000000       0.00000000 </v>
   <v>       0.00000000      -0.00000000      -0.00000000 </v>
   <v>       0.00000000      -0.00000000       0.00000000 </v>
   <v>       0.00000000      -0.00000000       0.00000000 </v>
   <v>       0.00000000      -0.00000000       0.00000000 </v>
   <v>       0.00000000      -0.00000000       0.00000000 </v>
  </varray>
  <varray name="stress" >
   <v>     181.57561067       0.00000000      -0.00000000 </v>
   <v>      -0.00000000     181.57561067      -0.00000000 </v>
   <v>      -0.00000000       0.00000000     181.57561067 </v>
  </varray>
  <energy>
   <i name="e_fr_energy">     -6.84654924 </i>
   <i name="e_wo_entrp">     -6.84654924 </i>
   <i name="e_0_energy">     -6.84654924 </i>
  </energy>
  <time name="totalsc">    1.57    1.66</time>
 </calculation>
 <calculation>
  <scstep>
   <time name="dav">    0.20    0.21</time>
   <time name="total">    0.22    0.24</time>
   <energy>
    <i name="alphaZ">     89.87339040 </i>
    <i name="ewald">   -970.50154920 </i>
    <i name="hartreedc">    -76.48936083 </i>
    <i name="XCdc">   -119.10048458 </i>
    <i name="pawpsdc">   2517.16687356 </i>
    <i name="pawaedc">  -2338.90620180 </i>
    <i name="eentropy">      0.00000000 </i>
    <i name="bandstr">    -49.08925549 </i>
    <i name="atom">    916.21663293 </i>
    <i name="e_fr_energy">    -30.82995501 </i>
    <i name="e_wo_entrp">    -30.82995501 </i>
    <i name="e_0_energy">    -30.82995501 </i>
   </energy>
  </scstep>
  <scstep>
   <time name="dav">    0.19    0.20</time>
   <time name="total">    0.21    0.22</time>
   <energy>
    <i name="e_fr_energy">    -30.77826624 </i>
    <i name="e_wo_entrp">    -30.77826624 </i>
    <i name="e_0_energy">    -30.77826624 </i>
   </energy>
  </scstep>
  <scstep>
   <time name="dav">    0.19    0.20</time>
   <time name="total">    0.21    0.22</time>
   <energy>
    <i name="e_fr_energy">    -30.75974728 </i>
    <i name="e_wo_entrp">    -30.75974728 </i>
    <i name="e_0_energy">    -30.75974728 </i>
   </energy>
  </scstep>
  <scstep>
   <time name="dav">    0.19    0.20</time>
   <time name="total">    0.22    0.23</time>
   <energy>
    <i name="e_fr_energy">    -30.75928673 </i>
    <i name="e_wo_entrp">    -30.75928673 </i>
    <i name="e_0_energy">    -30.75928673 </i>
   </energy>
  </scstep>
  <scstep>
   <time name="dav">    0.20    0.21</time>
   <time name="total">    0.22    0.24</time>
   <energy>
    <i name="e_fr_energy">    -30.75884530 </i>
    <i name="e_wo_entrp">    -30.75884530 </i>
    <i name="e_0_energy">    -30.75884530 </i>
   </energy>
  </scstep>
  <scstep>
   <time name="dav">    0.13    0.14</time>
   <time name="total">    0.15    0.15</time>
   <energy>
    <i name="alphaZ">     89.87339040 </i>
    <i name="ewald">   -970.50154920 </i>
    <i name="hartreedc">    -72.70957552 </i>
    <i name="XCdc">   -118.91480944 </i>
    <i name="pawpsdc">   2709.72612141 </i>
    <i name="pawaedc">  -2531.67553978 </i>
    <i name="eentropy">      0.00000000 </i>
    <i name="bandstr">    -52.77351282 </i>
    <i name="atom">    916.21663293 </i>
    <i name="e_fr_energy">    -30.75884201 </i>
    <i name="e_wo_entrp">    -30.75884201 </i>
    <i name="e_0_energy">    -30.75884201 </i>
   </energy>
  </scstep>
  <structure>
   <crystal>
    <varray name="basis" >
     <v>       5.33980936       0.00000000      -0.00000000 </v>
     <v>      -0.00000000       5.33980936      -0.00000000 </v>
     <v>       0.00000000      -0.00000000       5.33980936 </v>
    </varray>
    <i name="volume">    152.25699570 </i>
    <varray name="rec_basis" >
     <v>       0.18727260       0.00000000      -0.00000000 </v>
     <v>      -0.00000000       0.18727260       0.00000000 </v>
     <v>       0.00000000       0.00000000       0.18727260 </v>
    </varray>
   </crystal>
   <varray name="positions" >
    <v>       0.00000000       0.00000000       0.00000000 </v>
    <v>       0.50000000       0.50000000       0.00000000 </v>
    <v>       0.50000000       0.00000000       0.50000000 </v>
    <v>       0.00000000       0.50000000       0.50000000 </v>
    <v>       0.25000000       0.25000000       0.25000000 </v>
    <v>       0.75000000       0.25000000       0.75000000 </v>
    <v>       0.75000000       0.75000000       0.25000000 </v>
    <v>       0.25000000       0.75000000       0.75000000 </v>
   </varray>
  </structure>
  <varray name="forces" >
   <v>      -0.00000000      -0.00000000       0.00000000 </v>
   <v>      -0.00000000       0.00000000       0.00000000 </v>
   <v>       0.00000000       0.00000000       0.00000000 </v>
   <v>       0.00000000       0.00000000       0.00000000 </v>
   <v>      -0.00000000      -0.00000000      -0.00000000 </v>
   <v>       0.00000000      -0.00000000      -0.00000000 </v>
   <v>      -0.00000000      -0.00000000      -0.00000000 </v>
   <v>      -0.00000000      -0.00000000      -0.00000000 </v>
  </varray>
  <varray name="stress" >
   <v>     241.92294524      -0.00000000      -0.00000000 </v>
   <v>      -0.00000000     241.92294524      -0.00000000 </v>
   <v>      -0.00000000       0.00000000     241.92294524 </v>
  </varray>
  <energy>
   <i name="e_fr_energy">     -7.00101682 </i>
   <i name="e_wo_entrp">     -7.00101682 </i>
   <i name="e_0_energy">     -7.00101682 </i>
  </energy>
  <time name="totalsc">    1.56    1.65</time>
 </calculation>
 <calculation>
  <scstep>
   <time name="dav">    0.20    0.21</time>
   <time name="total">    0.22    0.24</time>
   <energy>
    <i name="alphaZ">     90.34293625 </i>
    <i name="ewald">   -972.18875111 </i>
    <i name="hartreedc">    -72.83345105 </i>
    <i name="XCdc">   -118.87254089 </i>
    <i name="pawpsdc">   2705.31886436 </i>
    <i name="pawaedc">  -2527.27283381 </i>
    <i name="eentropy">      0.00000000 </i>
    <i name="bandstr">    -51.34932046 </i>
    <i name="atom">    916.21663293 </i>
    <i name="e_fr_energy">    -30.63846379 </i>
    <i name="e_wo_entrp">    -30.63846379 </i>
    <i name="e_0_energy">    -30.63846379 </i>
   </energy>
  </scstep>
  <scstep>
   <time name="dav">    0.19    0.20</time>
   <time name="total">    0.21    0.22</time>
   <energy>
    <i name="e_fr_energy">    -30.63763875 </i>
    <i name="e_wo_entrp">    -30.63763875 </i>
    <i name="e_0_energy">    -30.63763875 </i>
   </energy>
  </scstep>
  <scstep>
   <time name="dav">    0.19    0.20</time>
   <time name="total">    0.21    0.23</time>
   <energy>
    <i name="e_fr_energy">    -30.63736342 </i>
    <i name="e_wo_entrp">    -30.63736342 </i>
    <i name="e_0_energy">    -30.63736342 </i>
   </energy>
  </scstep>
  <scstep>
   <time name="dav">    0.13    0.14</time>
   <time name="total">    0.15    0.15</time>
   <energy>
    <i name="alphaZ">     90.34293625 </i>
    <i name="ewald">   -972.18875111 </i>
    <i name="hartreedc">    -72.37189692 </i>
    <i name="XCdc">   -118.85418690 </i>
    <i name="pawpsdc">   2730.13357299 </i>
    <i name="pawaedc">  -2552.11022198 </i>
    <i name="eentropy">      0.00000000 </i>
    <i name="bandstr">    -51.80544181 </i>
    <i name="atom">    916.21663293 </i>
    <i name="e_fr_energy">    -30.63735655 </i>
    <i name="e_wo_entrp">    -30.63735655 </i>
    <i name="e_0_energy">    -30.63735655 </i>
   </energy>
  </scstep>
  <structure>
   <crystal>
    <varray name="basis" >
     <v>       5.33054229       0.00000000      -0.00000000 </v>
     <v>      -0.00000000       5.33054229      -0.00000000 </v>
     <v>       0.00000000      -0.00000000       5.33054229 </v>
    </varray>
    <i name="volume">    151.46565945 </i>
    <varray name="rec_basis" >
     <v>       0.18759817       0.00000000      -0.00000000 </v>
     <v>      -0.00000000       0.18759817       0.00000000 </v>
     <v>       0.00000000       0.00000000       0.18759817 </v>
    </varray>
   </crystal>
   <varray name="positions" >
    <v>       0.00000000       0.00000000       1.00000000 </v>
    <v>       0.50000000       0.50000000       1.00000000 </v>
    <v>       0.50000000       0.00000000       0.50000000 </v>
    <v>       1.00000000       0.50000000       0.50000000 </v>
    <v>       0.25000000       0.25000000       0.25000000 </v>
    <v>       0.75000000       0.25000000       0.75000000 </v>
    <v>       0.75000000       0.75000000       0.25000000 </v>
    <v>       0.25000000       0.75000000       0.75000000 </v>
   </varray>
  </structure>
  <varray name="forces" >
   <v>      -0.00000000       0.00000000      -0.00000000 </v>
   <v>      -0.00000000      -0.00000000      -0.00000000 </v>
   <v>      -0.00000000       0.00000000      -0.00000000 </v>
   <v>      -0.00000000      -0.00000000      -0.00000000 </v>
   <v>       0.00000000       0.00000000       0.00000000 </v>
   <v>       0.00000000       0.00000000       0.00000000 </v>
   <v>       0.00000000       0.00000000       0.00000000 </v>
   <v>       0.00000000       0.00000000       0.00000000 </v>
  </varray>
  <varray name="stress" >
   <v>     250.24739249       0.00000000      -0.00000000 </v>
   <v>       0.00000000     250.24739249      -0.00000000 </v>
   <v>       0.00000000      -0.00000000     250.24739249 </v>
  </varray>
  <energy>
   <i name="e_fr_energy">     -7.00300961 </i>
   <i name="e_wo_entrp">     -7.00300961 </i>
   <i name="e_0_energy">     -7.00300961 </i>
  </energy>
  <time name="totalsc">    1.12    1.20</time>
  <eigenvalues>
   <array>
    <dimension dim="1">band</dimension>
    <dimension dim="2">kpoint</dimension>
    <dimension dim="3">spin</dimension>
    <field>eigene</field>
    <field>occ</field>
    <set>
     <set comment="spin 1">
      <set comment="kpoint 1">
       <r>   -9.7643    1.0000 </r>
       <r>   -6.6374    1.0000 </r>
       <r>   -6.6374    1.0000 </r>
       <r>   -6.6374    1.0000 </r>
       <r>   -3.3352    1.0000 </r>
       <r>   -3.3352    1.0000 </r>
       <r>   -3.3352    1.0000 </r>
       <r>    1.0086    1.0000 </r>
       <r>    1.0086    1.0000 </r>
       <r>    1.0086    1.0000 </r>
       <r>    1.0086    1.0000 </r>
       <r>    1.0086    1.0000 </r>
       <r>    1.0086    1.0000 </r>
       <r>    4.3718    1.0000 </r>
       <r>    4.3718    1.0000 </r>
       <r>    4.3718    1.0000 </r>
       <r>    5.4404    0.0000 </r>
       <r>    5.4404    0.0000 </r>
       <r>    5.4404    0.0000 </r>
       <r>    5.8832    0.0000 </r>
       <r>    5.8832    0.0000 </r>
       <r>    5.8832    0.0000 </r>
       <r>    6.3665    0.0000 </r>
       <r>    8.1561    0.0000 </r>
      </set>
      <set comment="kpoint 2">
       <r>   -9.5867    1.0000 </r>
       <r>   -7.2373    1.0000 </r>
       <r>   -6.6087    1.0000 </r>
       <r>   -6.6087    1.0000 </r>
       <r>   -3.2440    1.0000 </r>
       <r>   -3.2440    1.0000 </r>
       <r>   -2.4987    1.0000 </r>
       <r>    0.5752    1.0000 </r>
       <r>    0.5752    1.0000 </r>
       <r>    0.6439    1.0000 </r>
       <r>    0.6439    1.0000 </r>
       <r>    1.2067    1.0000 </r>
       <r>    1.2067    1.0000 </r>
       <r>    3.0415    1.0000 </r>
       <r>    3.7563    1.0000 </r>
       <r>    3.7563    1.0000 </r>
       <r>    5.4889    0.0000 </r>
       <r>    6.3313    0.0000 </r>
       <r>    6.3339    0.0000 </r>
       <r>    6.3339    0.0000 </r>
       <r>    6.7874    0.0000 </r>
       <r>    6.7874    0.0000 </r>
       <r>    7.4798    0.0000 </r>
       <r>    7.7306    0.0000 </r>
      </set>
      <set comment="kpoint 3">
       <r>   -9.0637    1.0000 </r>
       <r>   -8.2352    1.0000 </r>
       <r>   -6.5607    1.0000 </r>
       <r>   -6.5607    1.0000 </r>
       <r>   -3.0709    1.0000 </r>
       <r>   -3.0709    1.0000 </r>
       <r>   -0.8138    1.0000 </r>
       <r>   -0.0258    1.0000 </r>
       <r>   -0.0258    1.0000 </r>
       <r>    0.1782    1.0000 </r>
       <r>    0.1782    1.0000 </r>
       <r>    1.1008    1.0000 </r>
       <r>    1.7863    1.0000 </r>
       <r>    1.7863    1.0000 </r>
       <r>    2.6921    1.0000 </r>
       <r>    2.6921    1.0000 </r>
       <r>    5.8641    0.0000 </r>
       <r>    6.6078    0.0000 </r>
       <r>    7.3888    0.0000 </r>
       <r>    8.3502    0.0000 </r>
       <r>    8.3502    0.0000 </r>
       <r>    8.4590    0.0000 </r>
       <r>    8.8570    0.0000 </r>
       <r>    8.8570    0.0000 </r>
      </set>
      <set comment="kpoint 4">
       <r>   -9.4125    1.0000 </r>
       <r>   -7.1533    1.0000 </r>
       <r>   -7.1533    1.0000 </r>
       <r>   -6.6332    1.0000 </r>
       <r>   -3.1588    1.0000 </r>
       <r>   -2.5485    1.0000 </r>
       <r>   -2.5485    1.0000 </r>
       <r>   -0.2570    1.0000 </r>
       <r>    0.6741    1.0000 </r>
       <r>    0.6741    1.0000 </r>
       <r>    1.0409    1.0000 </r>
       <r>    1.0409    1.0000 </r>
       <r>    1.3425    1.0000 </r>
       <r>    1.8452    1.0000 </r>
       <r>    3.1229    1.0000 </r>
       <r>    4.1613    1.0000 </r>
       <r>    5.9740    0.0000 </r>
       <r>    6.4356    0.0000 </r>
       <r>    6.4356    0.0000 </r>
       <r>    7.1457    0.0000 </r>
       <r>    7.1457    0.0000 </r>
       <r>    7.4224    0.0000 </r>
       <r>    8.3176    0.0000 </r>
       <r>    8.4984    0.0000 </r>
      </set>
      <set comment="kpoint 5">
       <r>   -8.9010    1.0000 </r>
       <r>   -8.0984    1.0000 </r>
       <r>   -6.9479    1.0000 </r>
       <r>   -6.7415    1.0000 </r>
       <r>   -2.9532    1.0000 </r>
       <r>   -2.7174    1.0000 </r>
       <r>   -1.1802    1.0000 </r>
       <r>   -0.5620    1.0000 </r>
       <r>   -0.1565    1.0000 </r>
       <r>    0.3136    1.0000 </r>
       <r>    0.9747    1.0000 </r>
       <r>    1.1840    1.0000 </r>
       <r>    1.2559    1.0000 </r>
       <r>    1.9763    1.0000 </r>
       <r>    2.0571    1.0000 </r>
       <r>    3.2481    1.0000 </r>
       <r>    6.8487    0.0000 </r>
       <r>    7.1907    0.0000 </r>
       <r>    7.5695    0.0000 </r>
       <r>    8.0340    0.0000 </r>
       <r>    8.3484    0.0000 </r>
       <r>    8.4641    0.0000 </r>
       <r>    9.0867    0.0000 </r>
       <r>    9.7160    0.0000 </r>
      </set>
      <set comment="kpoint 6">
       <r>   -8.4302    1.0000 </r>
       <r>   -7.7182    1.0000 </r>
       <r>   -7.7182    1.0000 </r>
       <r>   -7.1996    1.0000 </r>
       <r>   -2.5658    1.0000 </r>
       <r>   -1.9130    1.0000 </r>
       <r>   -1.9130    1.0000 </r>
       <r>   -0.8676    1.0000 </r>
       <r>   -0.4653    1.0000 </r>
       <r>    0.2088    1.0000 </r>
       <r>    0.2088    1.0000 </r>
       <r>    1.0140    1.0000 </r>
       <r>    2.2492    1.0000 </r>
       <r>    2.3200    1.0000 </r>
       <r>    2.3200    1.0000 </r>
       <r>    3.3834    1.0000 </r>
       <r>    6.9081    0.0000 </r>
       <r>    7.7694    0.0000 </r>
       <r>    8.2009    0.0000 </r>
       <r>    8.2009    0.0000 </r>
       <r>    9.0712    0.0000 </r>
       <r>    9.0712    0.0000 </r>
       <r>    9.5909    0.0000 </r>
       <r>    9.7666    0.0000 </r>
      </set>
      <set comment="kpoint 7">
       <r>   -9.2423    1.0000 </r>
       <r>   -7.1050    1.0000 </r>
       <r>   -7.1050    1.0000 </r>
       <r>   -7.1050    1.0000 </r>
       <r>   -2.6782    1.0000 </r>
       <r>   -2.6782    1.0000 </r>
       <r>   -2.6782    1.0000 </r>
       <r>    0.1831    1.0000 </r>
       <r>    0.1831    1.0000 </r>
       <r>    0.1831    1.0000 </r>
       <r>    0.7990    1.0000 </r>
       <r>    1.5249    1.0000 </r>
       <r>    1.5249    1.0000 </r>
       <r>    1.5249    1.0000 </r>
       <r>    3.7198    1.0000 </r>
       <r>    3.7198    1.0000 </r>
       <r>    6.1976    0.0000 </r>
       <r>    6.1976    0.0000 </r>
       <r>    6.1976    0.0000 </r>
       <r>    6.6732    0.0000 </r>
       <r>    8.5350    0.0000 </r>
       <r>    8.5350    0.0000 </r>
       <r>    8.5350    0.0000 </r>
       <r>    8.9990    0.0000 </r>
      </set>
      <set comment="kpoint 8">
       <r>   -8.7457    1.0000 </r>
       <r>   -7.9777    1.0000 </r>
       <r>   -7.0215    1.0000 </r>
       <r>   -7.0215    1.0000 </r>
       <r>   -2.9136    1.0000 </r>
       <r>   -2.9136    1.0000 </r>
       <r>   -1.7129    1.0000 </r>
       <r>   -0.5490    1.0000 </r>
       <r>    0.0034    1.0000 </r>
       <r>    0.0034    1.0000 </r>
       <r>    1.3782    1.0000 </r>
       <r>    1.5367    1.0000 </r>
       <r>    1.5367    1.0000 </r>
       <r>    2.0525    1.0000 </r>
       <r>    2.8508    1.0000 </r>
       <r>    2.8934    1.0000 </r>
       <r>    6.8013    0.0000 </r>
       <r>    7.1678    0.0000 </r>
       <r>    7.3854    0.0000 </r>
       <r>    7.3854    0.0000 </r>
       <r>    8.6023    0.0000 </r>
       <r>    9.0483    0.0000 </r>
       <r>    9.6120    0.0000 </r>
       <r>    9.6120    0.0000 </r>
      </set>
      <set comment="kpoint 9">
       <r>   -8.3026    1.0000 </r>
       <r>   -7.6580    1.0000 </r>
       <r>   -7.6580    1.0000 </r>
       <r>   -7.2769    1.0000 </r>
       <r>   -2.9815    1.0000 </r>
       <r>   -2.5269    1.0000 </r>
       <r>   -2.5269    1.0000 </r>
       <r>   -1.6957    1.0000 </r>
       <r>    0.4514    1.0000 </r>
       <r>    1.0465    1.0000 </r>
       <r>    1.0465    1.0000 </r>
       <r>    2.0239    1.0000 </r>
       <r>    2.3641    1.0000 </r>
       <r>    2.4095    1.0000 </r>
       <r>    2.4095    1.0000 </r>
       <r>    3.2952    1.0000 </r>
       <r>    7.0024    0.0000 </r>
       <r>    7.0369    0.0000 </r>
       <r>    7.6381    0.0000 </r>
       <r>    7.6381    0.0000 </r>
       <r>    8.5891    0.0000 </r>
       <r>    8.5891    0.0000 </r>
       <r>    9.2290    0.0000 </r>
       <r>    9.2762    0.0000 </r>
      </set>
      <set comment="kpoint 10">
       <r>   -7.9621    1.0000 </r>
       <r>   -7.5516    1.0000 </r>
       <r>   -7.5516    1.0000 </r>
       <r>   -7.5516    1.0000 </r>
       <r>   -3.1813    1.0000 </r>
       <r>   -3.1813    1.0000 </r>
       <r>   -3.1813    1.0000 </r>
       <r>   -2.6942    1.0000 </r>
       <r>    2.0660    1.0000 </r>
       <r>    2.0660    1.0000 </r>
       <r>    2.0660    1.0000 </r>
       <r>    2.6664    1.0000 </r>
       <r>    2.6664    1.0000 </r>
       <r>    2.6664    1.0000 </r>
       <r>    3.0304    1.0000 </r>
       <r>    3.0304    1.0000 </r>
       <r>    6.0435    0.0000 </r>
       <r>    6.7733    0.0000 </r>
       <r>    6.7733    0.0000 </r>
       <r>    6.7733    0.0000 </r>
       <r>    8.7416    0.0000 </r>
       <r>    8.7416    0.0000 </r>
       <r>    8.7416    0.0000 </r>
       <r>    9.1187    0.0000 </r>
      </set>
     </set>
    </set>
   </array>
  </eigenvalues>
  <separator name="orbital magnetization" >
   <v name="MAGDIPOLOUT">      0.00000000      0.00000000      0.00000000</v>
  </separator>
  <dos>
   <i name="efermi">      4.38134496 </i>
   <total>
    <array>
     <dimension dim="1">gridpoints</dimension>
     <dimension dim="2">spin</dimension>
     <field>energy</field>
     <field>total</field>
     <field>integrated</field>
     <set>
      <set comment="spin 1">
       <r>   -10.7643     0.0000     0.0000 </r>
       <r>   -10.6925     0.0000     0.0000 </r>
       <r>   -10.6207     0.0000     0.0000 </r>
       <r>   -10.5490     0.0000     0.0000 </r>
       <r>   -10.4772     0.0000     0.0000 </r>
       <r>   -10.4054     0.0000     0.0000 </r>
       <r>   -10.3337     0.0000     0.0000 </r>
       <r>   -10.2619     0.0000     0.0000 </r>
       <r>   -10.1901     0.0000     0.0000 </r>
       <r>   -10.1184     0.0000     0.0000 </r>
       <r>   -10.0466     0.0000     0.0000 </r>
       <r>    -9.9748     0.0000     0.0000 </r>
       <r>    -9.9030     0.0000     0.0000 </r>
       <r>    -9.8313     0.0000     0.0000 </r>
       <r>    -9.7595     0.0003     0.0000 </r>
       <r>    -9.6877     0.0680     0.0017 </r>
       <r>    -9.6160     0.2552     0.0126 </r>
       <r>    -9.5442     0.5245     0.0407 </r>
       <r>    -9.4724     0.6957     0.0852 </r>
       <r>    -9.4007     0.7465     0.1377 </r>
       <r>    -9.3289     0.7790     0.1921 </r>
       <r>    -9.2571     0.8582     0.2506 </r>
       <r>    -9.1854     0.9713     0.3162 </r>
       <r>    -9.1136     1.0917     0.3902 </r>
       <r>    -9.0418     1.3722     0.4748 </r>
       <r>    -8.9700     1.9112     0.5935 </r>
       <r>    -8.8983     2.3087     0.7457 </r>
       <r>    -8.8265     1.9701     0.8989 </r>
       <r>    -8.7547     1.6898     1.0299 </r>
       <r>    -8.6830     1.6518     1.1489 </r>
       <r>    -8.6112     1.6290     1.2667 </r>
       <r>    -8.5394     1.5904     1.3824 </r>
       <r>    -8.4677     1.5360     1.4946 </r>
       <r>    -8.3959     1.9982     1.6244 </r>
       <r>    -8.3241     1.5056     1.7498 </r>
       <r>    -8.2523     0.8437     1.8261 </r>
       <r>    -8.1806     1.2950     1.8972 </r>
       <r>    -8.1088     2.0539     2.0166 </r>
       <r>    -8.0370     2.4358     2.1834 </r>
       <r>    -7.9653     2.5560     2.3624 </r>
       <r>    -7.8935     2.7830     2.5528 </r>
       <r>    -7.8217     2.8058     2.7456 </r>
       <r>    -7.7500     3.0066     2.9545 </r>
       <r>    -7.6782     5.9768     3.2962 </r>
       <r>    -7.6064     5.1398     3.7054 </r>
       <r>    -7.5347     3.3759     4.0529 </r>
       <r>    -7.4629     2.8801     4.2532 </r>
       <r>    -7.3911     3.0888     4.4671 </r>
       <r>    -7.3193     3.3330     4.6974 </r>
       <r>    -7.2476     4.8723     4.9782 </r>
       <r>    -7.1758     5.5073     5.3797 </r>
       <r>    -7.1040     5.5520     5.7677 </r>
       <r>    -7.0323     6.1565     6.1917 </r>
       <r>    -6.9605     5.5993     6.6192 </r>
       <r>    -6.8887     4.1437     6.9411 </r>
       <r>    -6.8170     3.8597     7.2282 </r>
       <r>    -6.7452     3.5884     7.4954 </r>
       <r>    -6.6734     3.2213     7.7452 </r>
       <r>    -6.6016     1.7012     7.9870 </r>
       <r>    -6.5299     0.0000     8.0000 </r>
       <r>    -6.4581     0.0000     8.0000 </r>
       <r>    -6.3863     0.0000     8.0000 </r>
       <r>    -6.3146     0.0000     8.0000 </r>
       <r>    -6.2428     0.0000     8.0000 </r>
       <r>    -6.1710     0.0000     8.0000 </r>
       <r>    -6.0993     0.0000     8.0000 </r>
       <r>    -6.0275     0.0000     8.0000 </r>
       <r>    -5.9557     0.0000     8.0000 </r>
       <r>    -5.8839     0.0000     8.0000 </r>
       <r>    -5.8122     0.0000     8.0000 </r>
       <r>    -5.7404     0.0000     8.0000 </r>
       <r>    -5.6686     0.0000     8.0000 </r>
       <r>    -5.5969     0.0000     8.0000 </r>
       <r>    -5.5251     0.0000     8.0000 </r>
       <r>    -5.4533     0.0000     8.0000 </r>
       <r>    -5.3816     0.0000     8.0000 </r>
       <r>    -5.3098     0.0000     8.0000 </r>
       <r>    -5.2380     0.0000     8.0000 </r>
       <r>    -5.1663     0.0000     8.0000 </r>
       <r>    -5.0945     0.0000     8.0000 </r>
       <r>    -5.0227     0.0000     8.0000 </r>
       <r>    -4.9509     0.0000     8.0000 </r>
       <r>    -4.8792     0.0000     8.0000 </r>
       <r>    -4.8074     0.0000     8.0000 </r>
       <r>    -4.7356     0.0000     8.0000 </r>
       <r>    -4.6639     0.0000     8.0000 </r>
       <r>    -4.5921     0.0000     8.0000 </r>
       <r>    -4.5203     0.0000     8.0000 </r>
       <r>    -4.4486     0.0000     8.0000 </r>
       <r>    -4.3768     0.0000     8.0000 </r>
       <r>    -4.3050     0.0000     8.0000 </r>
       <r>    -4.2332     0.0000     8.0000 </r>
       <r>    -4.1615     0.0000     8.0000 </r>
       <r>    -4.0897     0.0000     8.0000 </r>
       <r>    -4.0179     0.0000     8.0000 </r>
       <r>    -3.9462     0.0000     8.0000 </r>
       <r>    -3.8744     0.0000     8.0000 </r>
       <r>    -3.8026     0.0000     8.0000 </r>
       <r>    -3.7309     0.0000     8.0000 </r>
       <r>    -3.6591     0.0000     8.0000 </r>
       <r>    -3.5873     0.0000     8.0000 </r>
       <r>    -3.5156     0.0000     8.0000 </r>
       <r>    -3.4438     0.0000     8.0000 </r>
       <r>    -3.3720     0.0000     8.0000 </r>
       <r>    -3.3002     0.1120     8.0013 </r>
       <r>    -3.2285     0.9802     8.0368 </r>
       <r>    -3.1567     2.9425     8.1941 </r>
       <r>    -3.0849     3.7828     8.4086 </r>
       <r>    -3.0132     6.8171     8.7807 </r>
       <r>    -2.9414    13.0130     9.5016 </r>
       <r>    -2.8696     6.7778    10.0796 </r>
       <r>    -2.7979     6.8289    10.5675 </r>
       <r>    -2.7261     6.9419    11.0612 </r>
       <r>    -2.6543     5.3432    11.4948 </r>
       <r>    -2.5825     4.0004    11.8206 </r>
       <r>    -2.5108     3.0967    12.0811 </r>
       <r>    -2.4390     2.2533    12.2501 </r>
       <r>    -2.3672     2.1957    12.4097 </r>
       <r>    -2.2955     2.1412    12.5653 </r>
       <r>    -2.2237     2.0898    12.7171 </r>
       <r>    -2.1519     2.0415    12.8654 </r>
       <r>    -2.0802     1.9965    13.0103 </r>
       <r>    -2.0084     1.9545    13.1520 </r>
       <r>    -1.9366     1.9157    13.2909 </r>
       <r>    -1.8649     1.5783    13.4123 </r>
       <r>    -1.7931     1.5564    13.5248 </r>
       <r>    -1.7213     1.5310    13.6356 </r>
       <r>    -1.6495     1.4992    13.7444 </r>
       <r>    -1.5778     1.4601    13.8506 </r>
       <r>    -1.5060     1.4186    13.9539 </r>
       <r>    -1.4342     1.3748    14.0542 </r>
       <r>    -1.3625     1.3286    14.1512 </r>
       <r>    -1.2907     1.2800    14.2448 </r>
       <r>    -1.2189     1.2291    14.3349 </r>
       <r>    -1.1472     1.2445    14.4237 </r>
       <r>    -1.0754     1.1709    14.5103 </r>
       <r>    -1.0036     1.1098    14.5920 </r>
       <r>    -0.9318     1.0611    14.6699 </r>
       <r>    -0.8601     0.9127    14.7438 </r>
       <r>    -0.7883     0.9718    14.8104 </r>
       <r>    -0.7165     1.1215    14.8854 </r>
       <r>    -0.6448     1.2998    14.9721 </r>
       <r>    -0.5730     1.5067    15.0726 </r>
       <r>    -0.5012     2.2472    15.2377 </r>
       <r>    -0.4295     1.6508    15.3518 </r>
       <r>    -0.3577     1.7714    15.4741 </r>
       <r>    -0.2859     1.9633    15.6077 </r>
       <r>    -0.2142     2.1617    15.7563 </r>
       <r>    -0.1424     3.6717    15.9371 </r>
       <r>    -0.0706     3.9250    16.2080 </r>
       <r>     0.0012     3.1828    16.4907 </r>
       <r>     0.0729     3.8971    16.7391 </r>
       <r>     0.1447     4.9879    17.0564 </r>
       <r>     0.2165     6.1266    17.4566 </r>
       <r>     0.2882     5.9789    17.8924 </r>
       <r>     0.3600     4.6037    18.2621 </r>
       <r>     0.4318     4.2264    18.5789 </r>
       <r>     0.5035     3.7445    18.8607 </r>
       <r>     0.5753     3.5478    19.1219 </r>
       <r>     0.6471     4.4354    19.4015 </r>
       <r>     0.7189     3.0770    19.6660 </r>
       <r>     0.7906     3.2096    19.8909 </r>
       <r>     0.8624     3.4066    20.1284 </r>
       <r>     0.9342     3.5963    20.3797 </r>
       <r>     1.0059     3.9662    20.6506 </r>
       <r>     1.0777     5.3451    20.9631 </r>
       <r>     1.1495     7.8384    21.4426 </r>
       <r>     1.2212     6.3013    21.9625 </r>
       <r>     1.2930     7.3708    22.4452 </r>
       <r>     1.3648     6.4328    22.9510 </r>
       <r>     1.4365     5.5213    23.3772 </r>
       <r>     1.5083     4.6392    23.7423 </r>
       <r>     1.5801     3.6741    24.0339 </r>
       <r>     1.6519     3.3235    24.2836 </r>
       <r>     1.7236     3.2146    24.5167 </r>
       <r>     1.7954     3.4224    24.7511 </r>
       <r>     1.8672     4.2963    25.0290 </r>
       <r>     1.9389     5.0497    25.3643 </r>
       <r>     2.0107     5.2656    25.7569 </r>
       <r>     2.0825     5.2231    26.1448 </r>
       <r>     2.1542     4.7430    26.4785 </r>
       <r>     2.2260     4.9168    26.8252 </r>
       <r>     2.2978     5.7370    27.2202 </r>
       <r>     2.3696     6.6322    27.7119 </r>
       <r>     2.4413     4.6220    28.1144 </r>
       <r>     2.5131     4.1285    28.4284 </r>
       <r>     2.5849     3.6414    28.7072 </r>
       <r>     2.6566     3.1607    28.9512 </r>
       <r>     2.7284     2.8078    29.1659 </r>
       <r>     2.8002     1.9825    29.3140 </r>
       <r>     2.8719     1.8430    29.4502 </r>
       <r>     2.9437     2.3075    29.5939 </r>
       <r>     3.0155     3.0134    29.7846 </r>
       <r>     3.0872     4.2585    30.0672 </r>
       <r>     3.1590     4.2871    30.3583 </r>
       <r>     3.2308     4.6650    30.6802 </r>
       <r>     3.3026     4.7912    31.0138 </r>
       <r>     3.3743     2.8773    31.2884 </r>
       <r>     3.4461     1.4054    31.4062 </r>
       <r>     3.5179     1.2404    31.5011 </r>
       <r>     3.5896     1.0812    31.5844 </r>
       <r>     3.6614     0.9279    31.6564 </r>
       <r>     3.7332     0.7837    31.7177 </r>
       <r>     3.8049     0.8033    31.7736 </r>
       <r>     3.8767     0.8092    31.8319 </r>
       <r>     3.9485     0.7429    31.8881 </r>
       <r>     4.0203     0.6046    31.9368 </r>
       <r>     4.0920     0.3941    31.9731 </r>
       <r>     4.1638     0.1197    31.9917 </r>
       <r>     4.2356     0.0514    31.9977 </r>
       <r>     4.3073     0.0115    31.9998 </r>
       <r>     4.3791     0.0000    32.0000 </r>
       <r>     4.4509     0.0000    32.0000 </r>
       <r>     4.5226     0.0000    32.0000 </r>
       <r>     4.5944     0.0000    32.0000 </r>
       <r>     4.6662     0.0000    32.0000 </r>
       <r>     4.7380     0.0000    32.0000 </r>
       <r>     4.8097     0.0000    32.0000 </r>
       <r>     4.8815     0.0000    32.0000 </r>
       <r>     4.9533     0.0000    32.0000 </r>
       <r>     5.0250     0.0000    32.0000 </r>
       <r>     5.0968     0.0000    32.0000 </r>
       <r>     5.1686     0.0000    32.0000 </r>
       <r>     5.2403     0.0000    32.0000 </r>
       <r>     5.3121     0.0000    32.0000 </r>
       <r>     5.3839     0.0000    32.0000 </r>
       <r>     5.4556     0.0191    32.0001 </r>
       <r>     5.5274     0.2176    32.0110 </r>
       <r>     5.5992     0.2738    32.0286 </r>
       <r>     5.6710     0.3427    32.0506 </r>
       <r>     5.7427     0.4241    32.0781 </r>
       <r>     5.8145     0.5182    32.1118 </r>
       <r>     5.8863     0.6290    32.1528 </r>
       <r>     5.9580     0.7271    32.2017 </r>
       <r>     6.0298     0.7871    32.2560 </r>
       <r>     6.1016     1.2271    32.3381 </r>
       <r>     6.1733     1.1769    32.4161 </r>
       <r>     6.2451     1.4828    32.5095 </r>
       <r>     6.3169     2.1931    32.6389 </r>
       <r>     6.3887     3.6215    32.8566 </r>
       <r>     6.4604     2.6200    33.0730 </r>
       <r>     6.5322     2.8417    33.2689 </r>
       <r>     6.6040     3.0848    33.4814 </r>
       <r>     6.6757     3.3966    33.7139 </r>
       <r>     6.7475     3.7149    33.9691 </r>
       <r>     6.8193     7.7770    34.3474 </r>
       <r>     6.8910     8.3140    34.9857 </r>
       <r>     6.9628     7.4186    35.5769 </r>
       <r>     7.0346     4.9026    36.0024 </r>
       <r>     7.1063     5.8368    36.3946 </r>
       <r>     7.1781     7.0072    36.8330 </r>
       <r>     7.2499     4.0174    37.1671 </r>
       <r>     7.3217     4.0331    37.4559 </r>
       <r>     7.3934     5.2436    37.7535 </r>
       <r>     7.4652     6.1706    38.1657 </r>
       <r>     7.5370     6.6533    38.6286 </r>
       <r>     7.6087     5.2405    39.0606 </r>
       <r>     7.6805     3.8848    39.3773 </r>
       <r>     7.7523     3.6722    39.6479 </r>
       <r>     7.8240     3.4623    39.9008 </r>
       <r>     7.8958     3.4054    40.1473 </r>
       <r>     7.9676     3.3455    40.3895 </r>
       <r>     8.0394     3.3969    40.6281 </r>
       <r>     8.1111     2.8263    40.8508 </r>
       <r>     8.1829     2.3556    41.0362 </r>
       <r>     8.2547     1.9047    41.1803 </r>
       <r>     8.3264     1.9128    41.3171 </r>
       <r>     8.3982     3.9082    41.5614 </r>
       <r>     8.4700     4.7122    41.8582 </r>
       <r>     8.5417     4.7883    42.1753 </r>
       <r>     8.6135    10.4468    42.7586 </r>
       <r>     8.6853     7.5562    43.3631 </r>
       <r>     8.7570     5.8617    43.8828 </r>
       <r>     8.8288     4.7425    44.2395 </r>
       <r>     8.9006     4.4022    44.5659 </r>
       <r>     8.9724     4.1003    44.8714 </r>
       <r>     9.0441     3.7490    45.1532 </r>
       <r>     9.1159     2.7475    45.3644 </r>
       <r>     9.1877     4.6695    45.6578 </r>
       <r>     9.2594     5.4692    46.0178 </r>
       <r>     9.3312     4.8693    46.3787 </r>
       <r>     9.4030     4.7622    46.7251 </r>
       <r>     9.4747     4.5250    47.0591 </r>
       <r>     9.5465     4.1577    47.3715 </r>
       <r>     9.6183     2.6181    47.6312 </r>
       <r>     9.6901     3.3351    47.8414 </r>
       <r>     9.7618     0.3686    47.9987 </r>
       <r>     9.8336     0.0000    48.0000 </r>
       <r>     9.9054     0.0000    48.0000 </r>
       <r>     9.9771     0.0000    48.0000 </r>
       <r>    10.0489     0.0000    48.0000 </r>
       <r>    10.1207     0.0000    48.0000 </r>
       <r>    10.1924     0.0000    48.0000 </r>
       <r>    10.2642     0.0000    48.0000 </r>
       <r>    10.3360     0.0000    48.0000 </r>
       <r>    10.4077     0.0000    48.0000 </r>
       <r>    10.4795     0.0000    48.0000 </r>
       <r>    10.5513     0.0000    48.0000 </r>
       <r>    10.6231     0.0000    48.0000 </r>
       <r>    10.6948     0.0000    48.0000 </r>
       <r>    10.7666     0.0000    48.0000 </r>
      </set>
     </set>
    </array>
   </total>
  </dos>
 </calculation>
 <structure name="finalpos" >
  <crystal>
   <varray name="basis" >
    <v>       5.33054229       0.00000000      -0.00000000 </v>
    <v>      -0.00000000       5.33054229      -0.00000000 </v>
    <v>       0.00000000      -0.00000000       5.33054229 </v>
   </varray>
   <i name="volume">    151.46565945 </i>
   <varray name="rec_basis" >
    <v>       0.18759817       0.00000000      -0.00000000 </v>
    <v>      -0.00000000       0.18759817       0.00000000 </v>
    <v>       0.00000000       0.00000000       0.18759817 </v>
   </varray>
  </crystal>
  <varray name="positions" >
   <v>       0.00000000       0.00000000       1.00000000 </v>
   <v>       0.50000000       0.50000000       1.00000000 </v>
   <v>       0.50000000       0.00000000       0.50000000 </v>
   <v>       1.00000000       0.50000000       0.50000000 </v>
   <v>       0.25000000       0.25000000       0.25000000 </v>
   <v>       0.75000000       0.25000000       0.75000000 </v>
   <v>       0.75000000       0.75000000       0.25000000 </v>
   <v>       0.25000000       0.75000000       0.75000000 </v>
  </varray>
 </structure>
</modeling>
