GaAs                                    
           1
     5.502640    0.000000    0.000000
     0.000000    5.502640    0.000000
     0.000000    0.000000    5.502640
   As   Ga
     4     4
Direct configuration=     1
   0.00000000  0.00000000  0.00000000
   0.50000000  0.50000000  0.00000000
   0.50000000  0.00000000  0.50000000
   0.00000000  0.50000000  0.50000000
   0.25000000  0.25000000  0.25000000
   0.75000000  0.25000000  0.75000000
   0.75000000  0.75000000  0.25000000
   0.25000000  0.75000000  0.75000000
GaAs                                    
           1
     5.412288    0.000000   -0.000000
    -0.000000    5.412288   -0.000000
     0.000000   -0.000000    5.412288
   As   Ga
     4     4
Direct configuration=     2
   0.00000000  0.00000000  1.00000000
   0.50000000  0.50000000  1.00000000
   0.50000000  0.00000000  0.50000000
   1.00000000  0.50000000  0.50000000
   0.25000000  0.25000000  0.25000000
   0.75000000  0.25000000  0.75000000
   0.75000000  0.75000000  0.25000000
   0.25000000  0.75000000  0.75000000
GaAs                                    
           1
     5.339809    0.000000   -0.000000
    -0.000000    5.339809   -0.000000
     0.000000   -0.000000    5.339809
   As   Ga
     4     4
Direct configuration=     3
   0.00000000  0.00000000  0.00000000
   0.50000000  0.50000000  0.00000000
   0.50000000  0.00000000  0.50000000
   0.00000000  0.50000000  0.50000000
   0.25000000  0.25000000  0.25000000
   0.75000000  0.25000000  0.75000000
   0.75000000  0.75000000  0.25000000
   0.25000000  0.75000000  0.75000000
GaAs                                    
           1
     5.330542    0.000000   -0.000000
    -0.000000    5.330542   -0.000000
     0.000000   -0.000000    5.330542
   As   Ga
     4     4
Direct configuration=     4
   0.00000000  0.00000000  1.00000000
   0.50000000  0.50000000  1.00000000
   0.50000000  0.00000000  0.50000000
   1.00000000  0.50000000  0.50000000
   0.25000000  0.25000000  0.25000000
   0.75000000  0.25000000  0.75000000
   0.75000000  0.75000000  0.25000000
   0.25000000  0.75000000  0.75000000
