GaAs                                    
   4.50000000000000     
     1.279410    0.000000    0.000000
     0.000000    1.279410    0.000000
     0.000000    0.000000    1.279410
   As   Ga
     4     4
Direct
  0.000000  0.000000  0.000000
  0.500000  0.500000  0.000000
  0.500000  0.000000  0.500000
  0.000000  0.500000  0.500000
  0.250000  0.250000  0.250000
  0.750000  0.250000  0.750000
  0.750000  0.750000  0.250000
  0.250000  0.750000  0.750000
 
   64   64   64
 -67.828     -59.570     -36.544     -3.5143      33.057      66.699      92.429      107.60      111.95      107.10    
  95.839      81.399      66.900      54.287      43.675      34.919      27.836      22.202      17.767      14.287    
  11.552      9.3999      7.7095      6.3878      5.3606      4.5666      3.9559      3.4906      3.1437      2.8953    
  2.7295      2.6346      2.6037      2.6346      2.7295      2.8953      3.1437      3.4906      3.9559      4.5666    
  5.3606      6.3878      7.7095      9.3999      11.552      14.287      17.767      22.202      27.836      34.919    
  43.675      54.287      66.900      81.399      95.839      107.10      111.95      107.60      92.429      66.699    
  33.057     -3.5143     -36.544     -59.570     -59.570     -51.601     -29.398      2.4143      37.566      69.785    
  94.255      108.43      112.07      106.80      95.348      80.894      66.497      53.994      43.471      34.784    
  27.753      22.158      17.750      14.288      11.566      9.4214      7.7360      6.4175      5.3923      4.5992    
  3.9888      3.5234      3.1761      2.9272      2.7609      2.6657      2.6346      2.6657      2.7609      2.9272    
  3.1761      3.5234      3.9888      4.5992      5.3923      6.4175      7.7360      9.4214      11.566      14.288    
  17.750      22.158      27.753      34.784      43.471      53.994      66.497      80.894      95.348      106.80    
  112.07      108.43      94.255      69.785      37.566      2.4143     -29.398     -51.601     -36.544     -29.398    
 -9.5207      18.854      50.001      78.218      99.150      110.53      112.22      105.79      93.832      79.380    
  65.304      53.128      42.865      34.383      27.510      22.030      17.703      14.295      11.608      9.4872    
  7.8170      6.5082      5.4888      4.6986      4.0892      3.6235      3.2751      3.0248      2.8572      2.7609    
  2.7295      2.7609      2.8572      3.0248      3.2751      3.6235      4.0892      4.6986      5.4888      6.5082    
  7.8170      9.4872      11.608      14.295      17.703      22.030      27.510      34.383      42.865      53.128    
  65.304      79.380      93.832      105.79      112.22      110.53      99.150      78.218      50.001      18.854    
 -9.5207     -29.398     -3.5143      2.4143      18.854      42.159      67.418      89.772      105.55      112.88    
  111.79      103.75      91.184      76.870      63.372      51.724      41.884      33.736      27.118      21.826    
  17.630      14.311      11.683      9.6009      7.9563      6.6642      5.6548      4.8698      4.2622      3.7963    
  3.4466      3.1944      3.0248      2.9272      2.8953      2.9272      3.0248      3.1944      3.4466      3.7963    
  4.2622      4.8698      5.6548      6.6642      7.9563      9.6009      11.683      14.311      17.630      21.826    
  27.118      33.736      41.884      51.724      63.372      76.870      91.184      103.75      111.79      112.88    
  105.55      89.772      67.418      42.159      18.854      2.4143      33.057      37.566      50.001      67.418    
  85.871      101.48      111.37      114.16      110.01      100.33      87.317      73.439      60.781      49.840    
  40.569      32.869      26.595      21.556      17.539      14.342      11.796      9.7684      8.1606      6.8926    
  5.8980      5.1211      4.5169      4.0515      3.7008      3.4466      3.2751      3.1761      3.1437      3.1761    
  3.2751      3.4466      3.7008      4.0515      4.5169      5.1211      5.8980      6.8926      8.1606      9.7684    
  11.796      14.342      17.539      21.556      26.595      32.869      40.569      49.840      60.781      73.439    
  87.317      100.33      110.01      114.16      111.37      101.48      85.871      67.418      50.001      37.566    
  66.699      69.785      78.218      89.772      101.48      110.47      114.66      113.14      106.24      95.303    
  82.262      69.257      57.639      47.551      38.969      31.817      25.964      21.236      17.440      14.395    
  11.953      9.9973      8.4386      7.2034      6.2293      5.4639      4.8654      4.4022      4.0515      3.7963    
  3.6235      3.5234      3.4906      3.5234      3.6235      3.7963      4.0515      4.4022      4.8654      5.4639    
  6.2293      7.2034      8.4386      9.9973      11.953      14.395      17.440      21.236      25.964      31.817    
  38.969      47.551      57.639      69.257      82.262      95.303      106.24      113.14      114.66      110.47    
  101.48      89.772      78.218      69.785      92.429      94.255      99.150      105.55      111.37      114.66    
  114.04      109.05      100.19      88.686      76.246      64.522      54.068      44.944      37.148      30.622    
  25.251      20.881      17.341      14.478      12.163      10.297      8.8011      7.6085      6.6619      5.9131    
  5.3238      4.8654      4.5169      4.2622      4.0892      3.9888      3.9559      3.9888      4.0892      4.2622    
  4.5169      4.8654      5.3238      5.9131      6.6619      7.6085      8.8011      10.297      12.163      14.478    
  17.341      20.881      25.251      30.622      37.148      44.944      54.068      64.522      76.246      88.686    
  100.19      109.05      114.04      114.66      111.37      105.55      99.150      94.255      107.60      108.43    
  110.53      112.88      114.16      113.14      109.05      101.82      92.032      80.850      69.695      59.423    
  50.205      42.117      35.173      29.328      24.484      20.508      17.256      14.600      12.436      10.679    
  9.2609      8.1229      7.2129      6.4876      5.9131      5.4639      5.1211      4.8698      4.6986      4.5992    
  4.5666      4.5992      4.6986      4.8698      5.1211      5.4639      5.9131      6.4876      7.2129      8.1229    
  9.2609      10.679      12.436      14.600      17.256      20.508      24.484      29.328      35.173      42.117    
  50.205      59.423      69.695      80.850      92.032      101.82      109.05      113.14      114.16      112.88    
  110.53      108.43      111.95      112.07      112.22      111.79      110.01      106.24      100.19      92.032    
  82.451      72.479      62.958      54.148      46.192      39.172      33.113      27.981      23.692      20.135    
  17.197      14.774      12.783      11.156      9.8337      8.7652      7.9042      7.2129      6.6619      6.2293    
  5.8980      5.6548      5.4888      5.3923      5.3606      5.3923      5.4888      5.6548      5.8980      6.2293    
  6.6619      7.2129      7.9042      8.7652      9.8337      11.156      12.783      14.774      17.197      20.135    
  23.692      27.981      33.113      39.172      46.192      54.148      62.958      72.479      82.451      92.032    
  100.19      106.24      110.01      111.79      112.22      112.07      107.10      106.80      105.79      103.75    
  100.33      95.303      88.686      80.850      72.479      64.194      56.264      48.875      42.163      36.210    
  31.040      26.627      22.904      19.784      17.179      15.012      13.219      11.745      10.540      9.5603    
  8.7652      8.1229      7.6085      7.2034      6.8926      6.6642      6.5082      6.4175      6.3878      6.4175    
  6.5082      6.6642      6.8926      7.2034      7.6085      8.1229      8.7652      9.5603      10.540      11.745    
  13.219      15.012      17.179      19.784      22.904      26.627      31.040      36.210      42.163      48.875    
  56.264      64.194      72.479      80.850      88.686      95.303      100.33      103.75      105.79      106.80    
  95.839      95.348      93.832      91.184      87.317      82.262      76.246      69.695      62.958      56.264    
  49.813      43.767      38.245      33.320      29.015      25.308      22.149      19.474      17.220      15.333    
  13.764      12.469      11.408      10.540      9.8337      9.2609      8.8011      8.4386      8.1606      7.9563    
  7.8170      7.7360      7.7095      7.7360      7.8170      7.9563      8.1606      8.4386      8.8011      9.2609    
  9.8337      10.540      11.408      12.469      13.764      15.333      17.220      19.474      22.149      25.308    
  29.015      33.320      38.245      43.767      49.813      56.264      62.958      69.695      76.246      82.262    
  87.317      91.184      93.832      95.348      81.399      80.894      79.380      76.870      73.439      69.257    
  64.522      59.423      54.148      48.875      43.767      38.955      34.540      30.579      27.091      24.060    
  21.453      19.227      17.342      15.759      14.442      13.357      12.469      11.745      11.156      10.679    
  10.297      9.9973      9.7684      9.6009      9.4872      9.4214      9.3999      9.4214      9.4872      9.6009    
  9.7684      9.9973      10.297      10.679      11.156      11.745      12.469      13.357      14.442      15.759    
  17.342      19.227      21.453      24.060      27.091      30.579      34.540      38.955      43.767      48.875    
  54.148      59.423      64.522      69.257      73.439      76.870      79.380      80.894      66.900      66.497    
  65.304      63.372      60.781      57.639      54.068      50.205      46.192      42.163      38.245      34.540    
  31.125      28.042      25.307      22.913      20.841      19.067      17.567      16.314      15.282      14.442    
  13.764      13.219      12.783      12.436      12.163      11.953      11.796      11.683      11.608      11.566    
  11.552      11.566      11.608      11.683      11.796      11.953      12.163      12.436      12.783      13.219    
  13.764      14.442      15.282      16.314      17.567      19.067      20.841      22.913      25.307      28.042    
  31.125      34.540      38.245      42.163      46.192      50.205      54.068      57.639      60.781      63.372    
  65.304      66.497      54.287      53.994      53.128      51.724      49.840      47.551      44.944      42.117    
  39.172      36.210      33.320      30.579      28.042      25.740      23.690      21.890      20.336      19.017    
  17.919      17.025      16.314      15.759      15.333      15.012      14.774      14.600      14.478      14.395    
  14.342      14.311      14.295      14.288      14.287      14.288      14.295      14.311      14.342      14.395    
  14.478      14.600      14.774      15.012      15.333      15.759      16.314      17.025      17.919      19.017    
  20.336      21.890      23.690      25.740      28.042      30.579      33.320      36.210      39.172      42.117    
  44.944      47.551      49.840      51.724      53.128      53.994      43.675      43.471      42.865      41.884    
  40.569      38.969      37.148      35.173      33.113      31.040      29.015      27.091      25.307      23.690    
  22.254      21.009      19.958      19.098      18.423      17.919      17.567      17.342      17.220      17.179    
  17.197      17.256      17.341      17.440      17.539      17.630      17.703      17.750      17.767      17.750    
  17.703      17.630      17.539      17.440      17.341      17.256      17.197      17.179      17.220      17.342    
  17.567      17.919      18.423      19.098      19.958      21.009      22.254      23.690      25.307      27.091    
  29.015      31.040      33.113      35.173      37.148      38.969      40.569      41.884      42.865      43.471    
  34.919      34.784      34.383      33.736      32.869      31.817      30.622      29.328      27.981      26.627    
  25.308      24.060      22.913      21.890      21.009      20.284      19.723      19.329      19.098      19.017    
  19.067      19.227      19.474      19.784      20.135      20.508      20.881      21.236      21.556      21.826    
  22.030      22.158      22.202      22.158      22.030      21.826      21.556      21.236      20.881      20.508    
  20.135      19.784      19.474      19.227      19.067      19.017      19.098      19.329      19.723      20.284    
  21.009      21.890      22.913      24.060      25.308      26.627      27.981      29.328      30.622      31.817    
  32.869      33.736      34.383      34.784      27.836      27.753      27.510      27.118      26.595      25.964    
  25.251      24.484      23.692      22.904      22.149      21.453      20.841      20.336      19.958      19.723    
  19.643      19.723      19.958      20.336      20.841      21.453      22.149      22.904      23.692      24.484    
  25.251      25.964      26.595      27.118      27.510      27.753      27.836      27.753      27.510      27.118    
  26.595      25.964      25.251      24.484      23.692      22.904      22.149      21.453      20.841      20.336    
  19.958      19.723      19.643      19.723      19.958      20.336      20.841      21.453      22.149      22.904    
  23.692      24.484      25.251      25.964      26.595      27.118      27.510      27.753      22.202      22.158    
  22.030      21.826      21.556      21.236      20.881      20.508      20.135      19.784      19.474      19.227    
  19.067      19.017      19.098      19.329      19.723      20.284      21.009      21.890      22.913      24.060    
  25.308      26.627      27.981      29.328      30.622      31.817      32.869      33.736      34.383      34.784    
  34.919      34.784      34.383      33.736      32.869      31.817      30.622      29.328      27.981      26.627    
  25.308      24.060      22.913      21.890      21.009      20.284      19.723      19.329      19.098      19.017    
  19.067      19.227      19.474      19.784      20.135      20.508      20.881      21.236      21.556      21.826    
  22.030      22.158      17.767      17.750      17.703      17.630      17.539      17.440      17.341      17.256    
  17.197      17.179      17.220      17.342      17.567      17.919      18.423      19.098      19.958      21.009    
  22.254      23.690      25.307      27.091      29.015      31.040      33.113      35.173      37.148      38.969    
  40.569      41.884      42.865      43.471      43.675      43.471      42.865      41.884      40.569      38.969    
  37.148      35.173      33.113      31.040      29.015      27.091      25.307      23.690      22.254      21.009    
  19.958      19.098      18.423      17.919      17.567      17.342      17.220      17.179      17.197      17.256    
  17.341      17.440      17.539      17.630      17.703      17.750      14.287      14.288      14.295      14.311    
  14.342      14.395      14.478      14.600      14.774      15.012      15.333      15.759      16.314      17.025    
  17.919      19.017      20.336      21.890      23.690      25.740      28.042      30.579      33.320      36.210    
  39.172      42.117      44.944      47.551      49.840      51.724      53.128      53.994      54.287      53.994    
  53.128      51.724      49.840      47.551      44.944      42.117      39.172      36.210      33.320      30.579    
  28.042      25.740      23.690      21.890      20.336      19.017      17.919      17.025      16.314      15.759    
  15.333      15.012      14.774      14.600      14.478      14.395      14.342      14.311      14.295      14.288    
  11.552      11.566      11.608      11.683      11.796      11.953      12.163      12.436      12.783      13.219    
  13.764      14.442      15.282      16.314      17.567      19.067      20.841      22.913      25.307      28.042    
  31.125      34.540      38.245      42.163      46.192      50.205      54.068      57.639      60.781      63.372    
  65.304      66.497      66.900      66.497      65.304      63.372      60.781      57.639      54.068      50.205    
  46.192      42.163      38.245      34.540      31.125      28.042      25.307      22.913      20.841      19.067    
  17.567      16.314      15.282      14.442      13.764      13.219      12.783      12.436      12.163      11.953    
  11.796      11.683      11.608      11.566      9.3999      9.4214      9.4872      9.6009      9.7684      9.9973    
  10.297      10.679      11.156      11.745      12.469      13.357      14.442      15.759      17.342      19.227    
  21.453      24.060      27.091      30.579      34.540      38.955      43.767      48.875      54.148      59.423    
  64.522      69.257      73.439      76.870      79.380      80.894      81.399      80.894      79.380      76.870    
  73.439      69.257      64.522      59.423      54.148      48.875      43.767      38.955      34.540      30.579    
  27.091      24.060      21.453      19.227      17.342      15.759      14.442      13.357      12.469      11.745    
  11.156      10.679      10.297      9.9973      9.7684      9.6009      9.4872      9.4214      7.7095      7.7360    
  7.8170      7.9563      8.1606      8.4386      8.8011      9.2609      9.8337      10.540      11.408      12.469    
  13.764      15.333      17.220      19.474      22.149      25.308      29.015      33.320      38.245      43.767    
  49.813      56.264      62.958      69.695      76.246      82.262      87.317      91.184      93.832      95.348    
  95.839      95.348      93.832      91.184      87.317      82.262      76.246      69.695      62.958      56.264    
  49.813      43.767      38.245      33.320      29.015      25.308      22.149      19.474      17.220      15.333    
  13.764      12.469      11.408      10.540      9.8337      9.2609      8.8011      8.4386      8.1606      7.9563    
  7.8170      7.7360      6.3878      6.4175      6.5082      6.6642      6.8926      7.2034      7.6085      8.1229    
  8.7652      9.5603      10.540      11.745      13.219      15.012      17.179      19.784      22.904      26.627    
  31.040      36.210      42.163      48.875      56.264      64.194      72.479      80.850      88.686      95.303    
  100.33      103.75      105.79      106.80      107.10      106.80      105.79      103.75      100.33      95.303    
  88.686      80.850      72.479      64.194      56.264      48.875      42.163      36.210      31.040      26.627    
  22.904      19.784      17.179      15.012      13.219      11.745      10.540      9.5603      8.7652      8.1229    
  7.6085      7.2034      6.8926      6.6642      6.5082      6.4175      5.3606      5.3923      5.4888      5.6548    
  5.8980      6.2293      6.6619      7.2129      7.9042      8.7652      9.8337      11.156      12.783      14.774    
  17.197      20.135      23.692      27.981      33.113      39.172      46.192      54.148      62.958      72.479    
  82.451      92.032      100.19      106.24      110.01      111.79      112.22      112.07      111.95      112.07    
  112.22      111.79      110.01      106.24      100.19      92.032      82.451      72.479      62.958      54.148    
  46.192      39.172      33.113      27.981      23.692      20.135      17.197      14.774      12.783      11.156    
  9.8337      8.7652      7.9042      7.2129      6.6619      6.2293      5.8980      5.6548      5.4888      5.3923    
  4.5666      4.5992      4.6986      4.8698      5.1211      5.4639      5.9131      6.4876      7.2129      8.1229    
  9.2609      10.679      12.436      14.600      17.256      20.508      24.484      29.328      35.173      42.117    
  50.205      59.423      69.695      80.850      92.032      101.82      109.05      113.14      114.16      112.88    
  110.53      108.43      107.60      108.43      110.53      112.88      114.16      113.14      109.05      101.82    
  92.032      80.850      69.695      59.423      50.205      42.117      35.173      29.328      24.484      20.508    
  17.256      14.600      12.436      10.679      9.2609      8.1229      7.2129      6.4876      5.9131      5.4639    
  5.1211      4.8698      4.6986      4.5992      3.9559      3.9888      4.0892      4.2622      4.5169      4.8654    
  5.3238      5.9131      6.6619      7.6085      8.8011      10.297      12.163      14.478      17.341      20.881    
  25.251      30.622      37.148      44.944      54.068      64.522      76.246      88.686      100.19      109.05    
  114.04      114.66      111.37      105.55      99.150      94.255      92.429      94.255      99.150      105.55    
  111.37      114.66      114.04      109.05      100.19      88.686      76.246      64.522      54.068      44.944    
  37.148      30.622      25.251      20.881      17.341      14.478      12.163      10.297      8.8011      7.6085    
  6.6619      5.9131      5.3238      4.8654      4.5169      4.2622      4.0892      3.9888      3.4906      3.5234    
  3.6235      3.7963      4.0515      4.4022      4.8654      5.4639      6.2293      7.2034      8.4386      9.9973    
  11.953      14.395      17.440      21.236      25.964      31.817      38.969      47.551      57.639      69.257    
  82.262      95.303      106.24      113.14      114.66      110.47      101.48      89.772      78.218      69.785    
  66.699      69.785      78.218      89.772      101.48      110.47      114.66      113.14      106.24      95.303    
  82.262      69.257      57.639      47.551      38.969      31.817      25.964      21.236      17.440      14.395    
  11.953      9.9973      8.4386      7.2034      6.2293      5.4639      4.8654      4.4022      4.0515      3.7963    
  3.6235      3.5234      3.1437      3.1761      3.2751      3.4466      3.7008      4.0515      4.5169      5.1211    
  5.8980      6.8926      8.1606      9.7684      11.796      14.342      17.539      21.556      26.595      32.869    
  40.569      49.840      60.781      73.439      87.317      100.33      110.01      114.16      111.37      101.48    
  85.871      67.418      50.001      37.566      33.057      37.566      50.001      67.418      85.871      101.48    
  111.37      114.16      110.01      100.33      87.317      73.439      60.781      49.840      40.569      32.869    
  26.595      21.556      17.539      14.342      11.796      9.7684      8.1606      6.8926      5.8980      5.1211    
  4.5169      4.0515      3.7008      3.4466      3.2751      3.1761      2.8953      2.9272      3.0248      3.1944    
  3.4466      3.7963      4.2622      4.8698      5.6548      6.6642      7.9563      9.6009      11.683      14.311    
  17.630      21.826      27.118      33.736      41.884      51.724      63.372      76.870      91.184      103.75    
  111.79      112.88      105.55      89.772      67.418      42.159      18.854      2.4143     -3.5143      2.4143    
  18.854      42.159      67.418      89.772      105.55      112.88      111.79      103.75      91.184      76.870    
  63.372      51.724      41.884      33.736      27.118      21.826      17.630      14.311      11.683      9.6009    
  7.9563      6.6642      5.6548      4.8698      4.2622      3.7963      3.4466      3.1944      3.0248      2.9272    
  2.7295      2.7609      2.8572      3.0248      3.2751      3.6235      4.0892      4.6986      5.4888      6.5082    
  7.8170      9.4872      11.608      14.295      17.703      22.030      27.510      34.383      42.865      53.128    
  65.304      79.380      93.832      105.79      112.22      110.53      99.150      78.218      50.001      18.854    
 -9.5207     -29.398     -36.544     -29.398     -9.5207      18.854      50.001      78.218      99.150      110.53    
  112.22      105.79      93.832      79.380      65.304      53.128      42.865      34.383      27.510      22.030    
  17.703      14.295      11.608      9.4872      7.8170      6.5082      5.4888      4.6986      4.0892      3.6235    
  3.2751      3.0248      2.8572      2.7609      2.6346      2.6657      2.7609      2.9272      3.1761      3.5234    
  3.9888      4.5992      5.3923      6.4175      7.7360      9.4214      11.566      14.288      17.750      22.158    
  27.753      34.784      43.471      53.994      66.497      80.894      95.348      106.80      112.07      108.43    
  94.255      69.785      37.566      2.4143     -29.398     -51.601     -59.570     -51.601     -29.398      2.4143    
  37.566      69.785      94.255      108.43      112.07      106.80      95.348      80.894      66.497      53.994    
  43.471      34.784      27.753      22.158      17.750      14.288      11.566      9.4214      7.7360      6.4175    
  5.3923      4.5992      3.9888      3.5234      3.1761      2.9272      2.7609      2.6657      2.6037      2.6346    
  2.7295      2.8953      3.1437      3.4906      3.9559      4.5666      5.3606      6.3878      7.7095      9.3999    
  11.552      14.287      17.767      22.202      27.836      34.919      43.675      54.287      66.900      81.399    
  95.839      107.10      111.95      107.60      92.429      66.699      33.057     -3.5143     -36.544     -59.570    
 -67.828     -59.570     -36.544     -3.5143      33.057      66.699      92.429      107.60      111.95      107.10    
  95.839      81.399      66.900      54.287      43.675      34.919      27.836      22.202      17.767      14.287    
  11.552      9.3999      7.7095      6.3878      5.3606      4.5666      3.9559      3.4906      3.1437      2.8953    
  2.7295      2.6346      2.6346      2.6657      2.7609      2.9272      3.1761      3.5234      3.9888      4.5992    
  5.3923      6.4175      7.7360      9.4214      11.566      14.288      17.750      22.158      27.753      34.784    
  43.471      53.994      66.497      80.894      95.348      106.80      112.07      108.43      94.255      69.785    
  37.566      2.4143     -29.398     -51.601     -59.570     -51.601     -29.398      2.4143      37.566      69.785    
  94.255      108.43      112.07      106.80      95.348      80.894      66.497      53.994      43.471      34.784    
  27.753      22.158      17.750      14.288      11.566      9.4214      7.7360      6.4175      5.3923      4.5992    
  3.9888      3.5234      3.1761      2.9272      2.7609      2.6657      2.7295      2.7609      2.8572      3.0248    
  3.2751      3.6235      4.0892      4.6986      5.4888      6.5082      7.8170      9.4872      11.608      14.295    
  17.703      22.030      27.510      34.383      42.865      53.128      65.304      79.380      93.832      105.79    
  112.22      110.53      99.150      78.218      50.001      18.854     -9.5207     -29.398     -36.544     -29.398    
 -9.5207      18.854      50.001      78.218      99.150      110.53      112.22      105.79      93.832      79.380    
  65.304      53.128      42.865      34.383      27.510      22.030      17.703      14.295      11.608      9.4872    
  7.8170      6.5082      5.4888      4.6986      4.0892      3.6235      3.2751      3.0248      2.8572      2.7609    
  2.8953      2.9272      3.0248      3.1944      3.4466      3.7963      4.2622      4.8698      5.6548      6.6642    
  7.9563      9.6009      11.683      14.311      17.630      21.826      27.118      33.736      41.884      51.724    
  63.372      76.870      91.184      103.75      111.79      112.88      105.55      89.772      67.418      42.159    
  18.854      2.4143     -3.5143      2.4143      18.854      42.159      67.418      89.772      105.55      112.88    
  111.79      103.75      91.184      76.870      63.372      51.724      41.884      33.736      27.118      21.826    
  17.630      14.311      11.683      9.6009      7.9563      6.6642      5.6548      4.8698      4.2622      3.7963    
  3.4466      3.1944      3.0248      2.9272      3.1437      3.1761      3.2751      3.4466      3.7008      4.0515    
  4.5169      5.1211      5.8980      6.8926      8.1606      9.7684      11.796      14.342      17.539      21.556    
  26.595      32.869      40.569      49.840      60.781      73.439      87.317      100.33      110.01      114.16    
  111.37      101.48      85.871      67.418      50.001      37.566      33.057      37.566      50.001      67.418    
  85.871      101.48      111.37      114.16      110.01      100.33      87.317      73.439      60.781      49.840    
  40.569      32.869      26.595      21.556      17.539      14.342      11.796      9.7684      8.1606      6.8926    
  5.8980      5.1211      4.5169      4.0515      3.7008      3.4466      3.2751      3.1761      3.4906      3.5234    
  3.6235      3.7963      4.0515      4.4022      4.8654      5.4639      6.2293      7.2034      8.4386      9.9973    
  11.953      14.395      17.440      21.236      25.964      31.817      38.969      47.551      57.639      69.257    
  82.262      95.303      106.24      113.14      114.66      110.47      101.48      89.772      78.218      69.785    
  66.699      69.785      78.218      89.772      101.48      110.47      114.66      113.14      106.24      95.303    
  82.262      69.257      57.639      47.551      38.969      31.817      25.964      21.236      17.440      14.395    
  11.953      9.9973      8.4386      7.2034      6.2293      5.4639      4.8654      4.4022      4.0515      3.7963    