   8   8   0   0
  0.2385487E+02  0.5757347E-09  0.5757347E-09  0.5757347E-09  0.5000000E-15
  1.000000000000000E-004
  CAR 
 GaAs                                    
      8.42705249    -11.01791863  301      2.33834591      1.00000000
    -11.018  0.0000E+00  0.0000E+00
    -10.953  0.0000E+00  0.0000E+00
    -10.888  0.0000E+00  0.0000E+00
    -10.823  0.0000E+00  0.0000E+00
    -10.759  0.0000E+00  0.0000E+00
    -10.694  0.0000E+00  0.0000E+00
    -10.629  0.0000E+00  0.0000E+00
    -10.564  0.0000E+00  0.0000E+00
    -10.499  0.0000E+00  0.0000E+00
    -10.435  0.0000E+00  0.0000E+00
    -10.370  0.0000E+00  0.0000E+00
    -10.305  0.0000E+00  0.0000E+00
    -10.240  0.0000E+00  0.0000E+00
    -10.175  0.0000E+00  0.0000E+00
    -10.110  0.0000E+00  0.0000E+00
    -10.046  0.0000E+00  0.0000E+00
     -9.981  0.3692E-01  0.4562E-03
     -9.916  0.2790E+00  0.9474E-02
     -9.851  0.7009E+00  0.4106E-01
     -9.786  0.9596E+00  0.9613E-01
     -9.722  0.1016E+01  0.1607E+00
     -9.657  0.1114E+01  0.2292E+00
     -9.592  0.1296E+01  0.3070E+00
     -9.527  0.1500E+01  0.3976E+00
     -9.462  0.2102E+01  0.5076E+00
     -9.398  0.2943E+01  0.6728E+00
     -9.333  0.2852E+01  0.8701E+00
     -9.268  0.2366E+01  0.1039E+01
     -9.203  0.2335E+01  0.1190E+01
     -9.138  0.2291E+01  0.1340E+01
     -9.073  0.2209E+01  0.1487E+01
     -9.009  0.2819E+01  0.1654E+01
     -8.944  0.1401E+01  0.1800E+01
     -8.879  0.1341E+01  0.1881E+01
     -8.814  0.2815E+01  0.2014E+01
     -8.749  0.3715E+01  0.2237E+01
     -8.685  0.4086E+01  0.2487E+01
     -8.620  0.4442E+01  0.2756E+01
     -8.555  0.4904E+01  0.3059E+01
     -8.490  0.1194E+02  0.3740E+01
     -8.425  0.5072E+01  0.4124E+01
     -8.360  0.4727E+01  0.4418E+01
     -8.296  0.5211E+01  0.4739E+01
     -8.231  0.8225E+01  0.5190E+01
     -8.166  0.8906E+01  0.5725E+01
     -8.101  0.9946E+01  0.6343E+01
     -8.036  0.6987E+01  0.6893E+01
     -7.972  0.6268E+01  0.7323E+01
     -7.907  0.5395E+01  0.7709E+01
     -7.842  0.1202E+01  0.7999E+01
     -7.777  0.0000E+00  0.8000E+01
     -7.712  0.0000E+00  0.8000E+01
     -7.647  0.0000E+00  0.8000E+01
     -7.583  0.0000E+00  0.8000E+01
     -7.518  0.0000E+00  0.8000E+01
     -7.453  0.0000E+00  0.8000E+01
     -7.388  0.0000E+00  0.8000E+01
     -7.323  0.0000E+00  0.8000E+01
     -7.259  0.0000E+00  0.8000E+01
     -7.194  0.0000E+00  0.8000E+01
     -7.129  0.0000E+00  0.8000E+01
     -7.064  0.0000E+00  0.8000E+01
     -6.999  0.0000E+00  0.8000E+01
     -6.934  0.0000E+00  0.8000E+01
     -6.870  0.0000E+00  0.8000E+01
     -6.805  0.0000E+00  0.8000E+01
     -6.740  0.0000E+00  0.8000E+01
     -6.675  0.0000E+00  0.8000E+01
     -6.610  0.0000E+00  0.8000E+01
     -6.546  0.0000E+00  0.8000E+01
     -6.481  0.0000E+00  0.8000E+01
     -6.416  0.0000E+00  0.8000E+01
     -6.351  0.0000E+00  0.8000E+01
     -6.286  0.0000E+00  0.8000E+01
     -6.221  0.0000E+00  0.8000E+01
     -6.157  0.0000E+00  0.8000E+01
     -6.092  0.0000E+00  0.8000E+01
     -6.027  0.0000E+00  0.8000E+01
     -5.962  0.0000E+00  0.8000E+01
     -5.897  0.0000E+00  0.8000E+01
     -5.833  0.0000E+00  0.8000E+01
     -5.768  0.0000E+00  0.8000E+01
     -5.703  0.0000E+00  0.8000E+01
     -5.638  0.0000E+00  0.8000E+01
     -5.573  0.0000E+00  0.8000E+01
     -5.509  0.0000E+00  0.8000E+01
     -5.444  0.0000E+00  0.8000E+01
     -5.379  0.0000E+00  0.8000E+01
     -5.314  0.0000E+00  0.8000E+01
     -5.249  0.0000E+00  0.8000E+01
     -5.184  0.0000E+00  0.8000E+01
     -5.120  0.0000E+00  0.8000E+01
     -5.055  0.0000E+00  0.8000E+01
     -4.990  0.0000E+00  0.8000E+01
     -4.925  0.0000E+00  0.8000E+01
     -4.860  0.0000E+00  0.8000E+01
     -4.796  0.0000E+00  0.8000E+01
     -4.731  0.0000E+00  0.8000E+01
     -4.666  0.0000E+00  0.8000E+01
     -4.601  0.0000E+00  0.8000E+01
     -4.536  0.0000E+00  0.8000E+01
     -4.471  0.0000E+00  0.8000E+01
     -4.407  0.0000E+00  0.8000E+01
     -4.342  0.0000E+00  0.8000E+01
     -4.277  0.0000E+00  0.8000E+01
     -4.212  0.1542E+00  0.8001E+01
     -4.147  0.1832E+01  0.8067E+01
     -4.083  0.2639E+01  0.8204E+01
     -4.018  0.5278E+01  0.8458E+01
     -3.953  0.7105E+01  0.8871E+01
     -3.888  0.1665E+02  0.9590E+01
     -3.823  0.1301E+02  0.1059E+02
     -3.758  0.7515E+01  0.1118E+02
     -3.694  0.5200E+01  0.1162E+02
     -3.629  0.3802E+01  0.1188E+02
     -3.564  0.3994E+01  0.1213E+02
     -3.499  0.3160E+01  0.1235E+02
     -3.434  0.3087E+01  0.1256E+02
     -3.370  0.3020E+01  0.1276E+02
     -3.305  0.2960E+01  0.1295E+02
     -3.240  0.2907E+01  0.1314E+02
     -3.175  0.2263E+01  0.1330E+02
     -3.110  0.2208E+01  0.1345E+02
     -3.045  0.2143E+01  0.1359E+02
     -2.981  0.2053E+01  0.1373E+02
     -2.916  0.1932E+01  0.1386E+02
     -2.851  0.1829E+01  0.1398E+02
     -2.786  0.1688E+01  0.1409E+02
     -2.721  0.1531E+01  0.1420E+02
     -2.657  0.1398E+01  0.1429E+02
     -2.592  0.1188E+01  0.1438E+02
     -2.527  0.1007E+01  0.1445E+02
     -2.462  0.8900E+00  0.1451E+02
     -2.397  0.9593E+00  0.1457E+02
     -2.332  0.7922E+00  0.1462E+02
     -2.268  0.8014E+00  0.1467E+02
     -2.203  0.8087E+00  0.1473E+02
     -2.138  0.8140E+00  0.1478E+02
     -2.073  0.8174E+00  0.1483E+02
     -2.008  0.8218E+00  0.1488E+02
     -1.944  0.8339E+00  0.1494E+02
     -1.879  0.8490E+00  0.1499E+02
     -1.814  0.8671E+00  0.1505E+02
     -1.749  0.8883E+00  0.1511E+02
     -1.684  0.9126E+00  0.1516E+02
     -1.620  0.9399E+00  0.1522E+02
     -1.555  0.9702E+00  0.1529E+02
     -1.490  0.1004E+01  0.1535E+02
     -1.425  0.9929E+00  0.1541E+02
     -1.360  0.9644E+00  0.1548E+02
     -1.295  0.1744E+01  0.1555E+02
     -1.231  0.3009E+01  0.1571E+02
     -1.166  0.3184E+01  0.1591E+02
     -1.101  0.3378E+01  0.1613E+02
     -1.036  0.3541E+01  0.1635E+02
     -0.971  0.8437E+01  0.1677E+02
     -0.907  0.6086E+01  0.1725E+02
     -0.842  0.5599E+01  0.1763E+02
     -0.777  0.5067E+01  0.1797E+02
     -0.712  0.5116E+01  0.1831E+02
     -0.647  0.4702E+01  0.1862E+02
     -0.582  0.4739E+01  0.1893E+02
     -0.518  0.4807E+01  0.1924E+02
     -0.453  0.5625E+01  0.1957E+02
     -0.388  0.5382E+01  0.1994E+02
     -0.323  0.5072E+01  0.2026E+02
     -0.258  0.5088E+01  0.2059E+02
     -0.194  0.5476E+01  0.2094E+02
     -0.129  0.6449E+01  0.2132E+02
     -0.064  0.9588E+01  0.2183E+02
      0.001  0.7674E+01  0.2240E+02
      0.066  0.7268E+01  0.2287E+02
      0.131  0.6857E+01  0.2333E+02
      0.195  0.6627E+01  0.2376E+02
      0.260  0.6125E+01  0.2418E+02
      0.325  0.5570E+01  0.2456E+02
      0.390  0.5129E+01  0.2491E+02
      0.455  0.5160E+01  0.2523E+02
      0.519  0.6202E+01  0.2563E+02
      0.584  0.6386E+01  0.2601E+02
      0.649  0.4910E+01  0.2637E+02
      0.714  0.5817E+01  0.2673E+02
      0.779  0.7443E+01  0.2714E+02
      0.844  0.9945E+01  0.2768E+02
      0.908  0.6338E+01  0.2820E+02
      0.973  0.5471E+01  0.2859E+02
      1.038  0.4568E+01  0.2891E+02
      1.103  0.3548E+01  0.2919E+02
      1.168  0.2257E+01  0.2935E+02
      1.232  0.2548E+01  0.2950E+02
      1.297  0.3737E+01  0.2971E+02
      1.362  0.5600E+01  0.3003E+02
      1.427  0.5902E+01  0.3039E+02
      1.492  0.5934E+01  0.3078E+02
      1.556  0.4926E+01  0.3116E+02
      1.621  0.1964E+01  0.3137E+02
      1.686  0.1714E+01  0.3149E+02
      1.751  0.1467E+01  0.3159E+02
      1.816  0.1223E+01  0.3168E+02
      1.881  0.1012E+01  0.3175E+02
      1.945  0.1118E+01  0.3182E+02
      2.010  0.1073E+01  0.3189E+02
      2.075  0.8026E+00  0.3195E+02
      2.140  0.3063E+00  0.3199E+02
      2.205  0.8700E-01  0.3200E+02
      2.269  0.1252E-01  0.3200E+02
      2.334  0.0000E+00  0.3200E+02
      2.399  0.0000E+00  0.3200E+02
      2.464  0.0000E+00  0.3200E+02
      2.529  0.1726E-03  0.3200E+02
      2.594  0.8881E-03  0.3200E+02
      2.658  0.2159E-02  0.3200E+02
      2.723  0.3985E-02  0.3200E+02
      2.788  0.6366E-02  0.3200E+02
      2.853  0.9302E-02  0.3200E+02
      2.918  0.1279E-01  0.3200E+02
      2.982  0.1684E-01  0.3200E+02
      3.047  0.2144E-01  0.3200E+02
      3.112  0.2660E-01  0.3201E+02
      3.177  0.3231E-01  0.3201E+02
      3.242  0.3858E-01  0.3201E+02
      3.307  0.4143E+00  0.3203E+02
      3.371  0.1992E+00  0.3204E+02
      3.436  0.2344E+00  0.3206E+02
      3.501  0.2730E+00  0.3207E+02
      3.566  0.3151E+00  0.3209E+02
      3.631  0.3605E+00  0.3212E+02
      3.695  0.4094E+00  0.3214E+02
      3.760  0.4786E+00  0.3217E+02
      3.825  0.6978E+00  0.3221E+02
      3.890  0.1023E+01  0.3226E+02
      3.955  0.1367E+01  0.3234E+02
      4.020  0.2909E+01  0.3250E+02
      4.084  0.2792E+01  0.3266E+02
      4.149  0.3710E+01  0.3286E+02
      4.214  0.4101E+01  0.3311E+02
      4.279  0.4421E+01  0.3339E+02
      4.344  0.4670E+01  0.3368E+02
      4.408  0.5154E+01  0.3400E+02
      4.473  0.6168E+01  0.3436E+02
      4.538  0.6895E+01  0.3479E+02
      4.603  0.7123E+01  0.3526E+02
      4.668  0.1098E+02  0.3572E+02
      4.733  0.8902E+01  0.3637E+02
      4.797  0.8123E+01  0.3692E+02
      4.862  0.7749E+01  0.3742E+02
      4.927  0.6479E+01  0.3788E+02
      4.992  0.5427E+01  0.3825E+02
      5.057  0.5770E+01  0.3861E+02
      5.121  0.7203E+01  0.3908E+02
      5.186  0.4456E+01  0.3946E+02
      5.251  0.3927E+01  0.3973E+02
      5.316  0.3683E+01  0.3997E+02
      5.381  0.3477E+01  0.4020E+02
      5.445  0.2966E+01  0.4042E+02
      5.510  0.2548E+01  0.4060E+02
      5.575  0.1260E+01  0.4074E+02
      5.640  0.1754E+01  0.4083E+02
      5.705  0.1930E+01  0.4095E+02
      5.770  0.2104E+01  0.4108E+02
      5.834  0.2275E+01  0.4122E+02
      5.899  0.2444E+01  0.4137E+02
      5.964  0.2610E+01  0.4154E+02
      6.029  0.2805E+01  0.4171E+02
      6.094  0.4318E+01  0.4192E+02
      6.158  0.5180E+01  0.4223E+02
      6.223  0.5402E+01  0.4258E+02
      6.288  0.4873E+01  0.4291E+02
      6.353  0.5536E+01  0.4325E+02
      6.418  0.6024E+01  0.4362E+02
      6.483  0.5949E+01  0.4400E+02
      6.547  0.8151E+01  0.4444E+02
      6.612  0.6333E+01  0.4491E+02
      6.677  0.4802E+01  0.4526E+02
      6.742  0.3370E+01  0.4551E+02
      6.807  0.3026E+01  0.4570E+02
      6.871  0.3507E+01  0.4591E+02
      6.936  0.4075E+01  0.4615E+02
      7.001  0.1312E+02  0.4659E+02
      7.066  0.5117E+01  0.4721E+02
      7.131  0.3922E+01  0.4750E+02
      7.196  0.2712E+01  0.4770E+02
      7.260  0.1692E+01  0.4783E+02
      7.325  0.1144E+01  0.4793E+02
      7.390  0.6029E+00  0.4798E+02
      7.455  0.0000E+00  0.4800E+02
      7.520  0.0000E+00  0.4800E+02
      7.584  0.0000E+00  0.4800E+02
      7.649  0.0000E+00  0.4800E+02
      7.714  0.0000E+00  0.4800E+02
      7.779  0.0000E+00  0.4800E+02
      7.844  0.0000E+00  0.4800E+02
      7.909  0.0000E+00  0.4800E+02
      7.973  0.0000E+00  0.4800E+02
      8.038  0.0000E+00  0.4800E+02
      8.103  0.0000E+00  0.4800E+02
      8.168  0.0000E+00  0.4800E+02
      8.233  0.0000E+00  0.4800E+02
      8.297  0.0000E+00  0.4800E+02
      8.362  0.0000E+00  0.4800E+02
      8.427  0.0000E+00  0.4800E+02
