       N       E                     dE             d eps       ncg     rms          rms(c)
DAV:   1    -0.335554407875E+02   -0.33555E+02   -0.12182E+01   528   0.144E+01    0.645E+00
DAV:   2    -0.332424020410E+02    0.31304E+00   -0.64049E-01   504   0.366E+00    0.383E+00
DAV:   3    -0.331515947965E+02    0.90807E-01   -0.49743E-01   520   0.249E+00    0.437E-01
DAV:   4    -0.331423698463E+02    0.92250E-02   -0.45331E-02   496   0.921E-01    0.297E-01
DAV:   5    -0.331417841330E+02    0.58571E-03   -0.33795E-03   560   0.247E-01    0.705E-02
DAV:   6    -0.331418401629E+02   -0.56030E-04   -0.62284E-05   328   0.374E-02
   1 F= -.33141840E+02 E0= -.33141840E+02  d E =0.000000E+00
 imaginary and real dielectric function
