 vasp.6.4.3 19Mar24 (build Aug 29 2024 15:27:20) complex                        
  
 executed on             LinuxIFC date 2025.03.19  10:33:54
 running    8 mpi-ranks, on    1 nodes
 distrk:  each k-point on    8 cores,    1 groups
 distr:  one band on NCORE=   1 cores,    8 groups


--------------------------------------------------------------------------------------------------------


 INCAR:
   SYSTEM = GaAs
   PREC = Normal
   ENCUT = 500
   ISMEAR = -5
   SIGMA = 0.1
   IBRION = 2
   LOPTICS = .TRUE.

 POTCAR:    PAW_PBE As 22Sep2009                  
 POTCAR:    PAW_PBE Ga 08Apr2002                  
 -----------------------------------------------------------------------------
|                                                                             |
|           W    W    AA    RRRRR   N    N  II  N    N   GGGG   !!!           |
|           W    W   A  A   R    R  NN   N  II  NN   N  G    G  !!!           |
|           W    W  A    A  R    R  N N  N  II  N N  N  G       !!!           |
|           W WW W  AAAAAA  RRRRR   N  N N  II  N  N N  G  GGG   !            |
|           WW  WW  A    A  R   R   N   NN  II  N   NN  G    G                |
|           W    W  A    A  R    R  N    N  II  N    N   GGGG   !!!           |
|                                                                             |
|     For optimal performance we recommend to set                             |
|       NCORE = 2 up to number-of-cores-per-socket                            |
|     NCORE specifies how many cores store one orbital (NPAR=cpu/NCORE).      |
|     This setting can greatly improve the performance of VASP for DFT.       |
|     The default, NCORE=1 might be grossly inefficient on modern             |
|     multi-core architectures or massively parallel machines. Do your        |
|     own testing! More info at https://www.vasp.at/wiki/index.php/NCORE      |
|     Unfortunately you need to use the default for GW and RPA                |
|     calculations (for HF NCORE is supported but not extensively tested      |
|     yet).                                                                   |
|                                                                             |
 -----------------------------------------------------------------------------

 POTCAR:    PAW_PBE As 22Sep2009                  
   VRHFIN =As: s2p3                                                                                 
   LEXCH  = PE                                                                                      
   EATOM  =   170.1867 eV,   12.5084 Ry                                                             
                                                                                                    
   TITEL  = PAW_PBE As 22Sep2009                                                                    
   LULTRA =        F    use ultrasoft PP ?                                                          
   IUNSCR =        1    unscreen: 0-lin 1-nonlin 2-no                                               
   RPACOR =    1.900    partial core radius                                                         
   POMASS =   74.922; ZVAL   =    5.000    mass and valenz                                          
   RCORE  =    2.100    outmost cutoff radius                                                       
   RWIGS  =    2.300; RWIGS  =    1.217    wigner-seitz radius (au A)                               
   ENMAX  =  208.702; ENMIN  =  156.526 eV                                                          
   ICORE  =        3    local potential                                                             
   LCOR   =        T    correct aug charges                                                         
   LPAW   =        T    paw PP                                                                      
   EAUG   =  462.758                                                                                
   DEXC   =    0.000                                                                                
   RMAX   =    2.144    core radius for proj-oper                                                   
   RAUG   =    1.300    factor for augmentation sphere                                              
   RDEP   =    2.140    radius for radial grids                                                     
   RDEPT  =    1.956    core radius for aug-charge                                                  
                                                                                                    
   Atomic configuration                                                                             
   10 entries                                                                                       
     n  l   j            E        occ.                                                              
     1  0  0.50    -11718.0418   2.0000                                                             
     2  0  0.50     -1486.5454   2.0000                                                             
     2  1  1.50     -1303.3889   6.0000                                                             
     3  0  0.50      -190.2849   2.0000                                                             
     3  1  1.50      -133.6555   6.0000                                                             
     3  2  2.50       -40.6443  10.0000                                                             
     4  0  0.50       -14.4936   2.0000                                                             
     4  1  0.50        -5.1947   3.0000                                                             
     4  2  1.50        -5.4423   0.0000                                                             
     4  3  2.50        -5.4423   0.0000                                                             
   Description                                                                                      
     l       E           TYP  RCUT    TYP  RCUT                                                     
     0    -14.4935570     23  2.100                                                                 
     0    -11.9212055     23  2.100                                                                 
     1     -5.1947127     23  2.100                                                                 
     1     27.2116520     23  2.100                                                                 
     2     -5.4423304     23  2.100                                                                 
     3     -1.3605826      7  2.100                                                                 
  local pseudopotential read in
  partial core-charges read in
  partial kinetic energy density read in
  atomic valenz-charges read in
  non local Contribution for L=           0  read in
    real space projection operators read in
  non local Contribution for L=           0  read in
    real space projection operators read in
  non local Contribution for L=           1  read in
    real space projection operators read in
  non local Contribution for L=           1  read in
    real space projection operators read in
  non local Contribution for L=           2  read in
    real space projection operators read in
    PAW grid and wavefunctions read in
 
   number of l-projection  operators is LMAX  =           5
   number of lm-projection operators is LMMAX =          13
 
 POTCAR:    PAW_PBE Ga 08Apr2002                  
   VRHFIN =Ga: s2p1                                                                                 
   LEXCH  = PE                                                                                      
   EATOM  =    58.8688 eV,    4.3267 Ry                                                             
                                                                                                    
   TITEL  = PAW_PBE Ga 08Apr2002                                                                    
   LULTRA =        F    use ultrasoft PP ?                                                          
   IUNSCR =        1    unscreen: 0-lin 1-nonlin 2-no                                               
   RPACOR =    2.170    partial core radius                                                         
   POMASS =   69.723; ZVAL   =    3.000    mass and valenz                                          
   RCORE  =    2.600    outmost cutoff radius                                                       
   RWIGS  =    2.650; RWIGS  =    1.402    wigner-seitz radius (au A)                               
   ENMAX  =  134.678; ENMIN  =  101.009 eV                                                          
   ICORE  =        3    local potential                                                             
   LCOR   =        T    correct aug charges                                                         
   LPAW   =        T    paw PP                                                                      
   EAUG   =  320.264                                                                                
   DEXC   =    0.000                                                                                
   RMAX   =    2.658    core radius for proj-oper                                                   
   RAUG   =    1.300    factor for augmentation sphere                                              
   RDEP   =    2.684    radius for radial grids                                                     
   RDEPT  =    2.308    core radius for aug-charge                                                  
                                                                                                    
   Atomic configuration                                                                             
   10 entries                                                                                       
     n  l   j            E        occ.                                                              
     1  0  0.50    -10228.7830   2.0000                                                             
     2  0  0.50     -1262.1604   2.0000                                                             
     2  1  1.50     -1098.6333   6.0000                                                             
     3  0  0.50      -148.1110   2.0000                                                             
     3  1  1.50       -98.8436   6.0000                                                             
     3  2  2.50       -19.1549  10.0000                                                             
     4  0  0.50        -8.9483   2.0000                                                             
     4  1  0.50        -2.5791   1.0000                                                             
     4  2  1.50         5.4423   0.0000                                                             
     4  3  2.50        -2.7416   0.0000                                                             
   Description                                                                                      
     l       E           TYP  RCUT    TYP  RCUT                                                     
     0     -8.9483097     23  2.600                                                                 
     0     -5.8232215     23  2.600                                                                 
     1     -2.5790793     23  2.600                                                                 
     1      5.2230115     23  2.600                                                                 
     2      1.3605826     23  2.600                                                                 
     3     -1.3605826      7  2.600                                                                 
  local pseudopotential read in
  partial core-charges read in
  partial kinetic energy density read in
  atomic valenz-charges read in
  non local Contribution for L=           0  read in
    real space projection operators read in
  non local Contribution for L=           0  read in
    real space projection operators read in
  non local Contribution for L=           1  read in
    real space projection operators read in
  non local Contribution for L=           1  read in
    real space projection operators read in
  non local Contribution for L=           2  read in
    real space projection operators read in
    PAW grid and wavefunctions read in
 
   number of l-projection  operators is LMAX  =           5
   number of lm-projection operators is LMMAX =          13
 
  PAW_PBE As 22Sep2009                  :
 energy of atom  1       EATOM= -170.1867
 kinetic energy error for atom=    0.0005 (will be added to EATOM!!)
  PAW_PBE Ga 08Apr2002                  :
 energy of atom  2       EATOM=  -58.8688
 kinetic energy error for atom=    0.0000 (will be added to EATOM!!)
 
 
 POSCAR: cubic gallium arsenide
  positions in direct lattice
  velocities in cartesian coordinates


 exchange-correlation table for PE
   RHO(1)=    0.500       N(1)  =     2000
   RHO(2)=  100.500       N(2)  =     4000
 


--------------------------------------------------------------------------------------------------------


 ion  position               nearest neighbor table
   1  0.000  0.000  0.000-   5 2.49   6 2.49   7 2.49   8 2.49
   2  0.500  0.500  0.000-   5 2.49   6 2.49   7 2.49   8 2.49
   3  0.500  0.000  0.500-   5 2.49   6 2.49   7 2.49   8 2.49
   4  0.000  0.500  0.500-   5 2.49   6 2.49   7 2.49   8 2.49
   5  0.250  0.250  0.250-   1 2.49   2 2.49   3 2.49   4 2.49
   6  0.750  0.250  0.750-   1 2.49   2 2.49   3 2.49   4 2.49
   7  0.750  0.750  0.250-   1 2.49   2 2.49   3 2.49   4 2.49
   8  0.250  0.750  0.750-   1 2.49   2 2.49   3 2.49   4 2.49
 
  LATTYP: Found a simple cubic cell.
 ALAT       =     5.7573466234
  
  Lattice vectors:
  
 A1 = (   5.7573466234,   0.0000000000,   0.0000000000)
 A2 = (   0.0000000000,   5.7573466234,   0.0000000000)
 A3 = (   0.0000000000,   0.0000000000,   5.7573466234)


Analysis of symmetry for initial positions (statically):
=====================================================================
 Subroutine PRICEL returns following result:
 
  LATTYP: Found a face centered cubic cell.
 ALAT       =     5.7573466234
  
  Lattice vectors:
  
 A1 = (   2.8786733117,  -2.8786733117,   0.0000000000)
 A2 = (   2.8786733117,   0.0000000000,   2.8786733117)
 A3 = (   0.0000000000,  -2.8786733117,   2.8786733117)
 
   4 primitive cells build up your supercell.
 

 Routine SETGRP: Setting up the symmetry group for a 
 simple cubic supercell.


 Subroutine GETGRP returns: Found 24 space group operations
 (whereof 24 operations were pure point group operations)
 out of a pool of 48 trial point group operations.


The static configuration has the point symmetry T_d .


Analysis of symmetry for dynamics (positions and initial velocities):
=====================================================================
 Subroutine PRICEL returns following result:
 
  LATTYP: Found a face centered cubic cell.
 ALAT       =     5.7573466234
  
  Lattice vectors:
  
 A1 = (   2.8786733117,  -2.8786733117,   0.0000000000)
 A2 = (   2.8786733117,   0.0000000000,   2.8786733117)
 A3 = (   0.0000000000,  -2.8786733117,   2.8786733117)
 
   4 primitive cells build up your supercell.
 

 Routine SETGRP: Setting up the symmetry group for a 
 simple cubic supercell.


 Subroutine GETGRP returns: Found 24 space group operations
 (whereof 24 operations were pure point group operations)
 out of a pool of 48 trial point group operations.


The dynamic configuration has the point symmetry T_d .


 Subroutine INISYM returns: Found 24 space group operations
 (whereof 24 operations are pure point group operations),
 and found     4 'primitive' translations


----------------------------------------------------------------------------------------

                                     Primitive cell                                     

  volume of cell :      47.7097

  direct lattice vectors                    reciprocal lattice vectors
     2.878673312 -2.878673312  0.000000000     0.173691123 -0.173691123 -0.173691123
     2.878673312  0.000000000  2.878673312     0.173691123  0.173691123  0.173691123
     0.000000000 -2.878673312  2.878673312    -0.173691123 -0.173691123  0.173691123

  length of vectors
     4.071058839  4.071058839  4.071058839     0.300841850  0.300841850  0.300841850

  position of ions in fractional coordinates (direct lattice)
     0.000000000  0.000000000  0.000000000
     0.750000000  0.750000000  0.750000000

  ion indices of the primitive-cell ions
   primitive index   ion index
                 1           1
                 2           5

----------------------------------------------------------------------------------------

 
 
 KPOINTS: Automatic mesh                          

Automatic generation of k-mesh.
 Grid dimensions read from file:
 generate k-points for:    5    5    5

 Generating k-lattice:

  Cartesian coordinates                     Fractional coordinates (reciprocal lattice)
     0.034738225  0.000000000  0.000000000     0.200000000  0.000000000  0.000000000
     0.000000000  0.034738225  0.000000000     0.000000000  0.200000000  0.000000000
     0.000000000  0.000000000  0.034738225     0.000000000  0.000000000  0.200000000

  Length of vectors
     0.034738225  0.034738225  0.034738225

  Shift w.r.t. Gamma in fractional coordinates (k-lattice)
     0.000000000  0.000000000  0.000000000

 TETIRR: Found     57 inequivalent tetrahedra from      750
 
 Subroutine IBZKPT returns following result:
 ===========================================
 
 Found     10 irreducible k-points:
 
 Following reciprocal coordinates:
            Coordinates               Weight
  0.000000  0.000000  0.000000      1.000000
  0.200000  0.000000  0.000000      6.000000
  0.400000  0.000000  0.000000      6.000000
  0.200000  0.200000  0.000000     12.000000
  0.400000  0.200000  0.000000     24.000000
  0.400000  0.400000  0.000000     12.000000
  0.200000  0.200000  0.200000      8.000000
  0.400000  0.200000  0.200000     24.000000
  0.400000  0.400000  0.200000     24.000000
  0.400000  0.400000  0.400000      8.000000
 
 Following cartesian coordinates:
            Coordinates               Weight
  0.000000  0.000000  0.000000      1.000000
  0.156322  0.000000  0.000000      6.000000
  0.312644  0.000000  0.000000      6.000000
  0.156322  0.156322  0.000000     12.000000
  0.312644  0.156322  0.000000     24.000000
  0.312644  0.312644  0.000000     12.000000
  0.156322  0.156322  0.156322      8.000000
  0.312644  0.156322  0.156322     24.000000
  0.312644  0.312644  0.156322     24.000000
  0.312644  0.312644  0.312644      8.000000
 


--------------------------------------------------------------------------------------------------------




 Dimension of arrays:
   k-points           NKPTS =     10   k-points in BZ     NKDIM =     10   number of bands    NBANDS=     24
   number of dos      NEDOS =    301   number of ions     NIONS =      8
   non local maximal  LDIM  =      5   non local SUM 2l+1 LMDIM =     13
   total plane-waves  NPLWV =  32768
   max r-space proj   IRMAX =      1   max aug-charges    IRDMAX=  12539
   dimension x,y,z NGX =    32 NGY =   32 NGZ =   32
   dimension x,y,z NGXF=    64 NGYF=   64 NGZF=   64
   support grid    NGXF=    64 NGYF=   64 NGZF=   64
   ions per type =               4   4
   NGX,Y,Z   is equivalent  to a cutoff of   9.24,  9.24,  9.24 a.u.
   NGXF,Y,Z  is equivalent  to a cutoff of  18.48, 18.48, 18.48 a.u.

 SYSTEM =  GaAs                                    
 POSCAR =  cubic gallium arsenide                  

 Startparameter for this run:
   NWRITE =      2    write-flag & timer
   PREC   = normal    normal or accurate (medium, high low for compatibility)
   ISTART =      1    job   : 0-new  1-cont  2-samecut
   ICHARG =      0    charge: 1-file 2-atom 10-const
   ISPIN  =      1    spin polarized calculation?
   LNONCOLLINEAR =      F non collinear calculations
   LSORBIT =      F    spin-orbit coupling
   INIWAV =      1    electr: 0-lowe 1-rand  2-diag
   LASPH  =      F    aspherical Exc in radial PAW
 Electronic Relaxation 1
   ENCUT  =  500.0 eV  36.75 Ry    6.06 a.u.  10.50 10.50 10.50*2*pi/ulx,y,z
   ENINI  =  500.0     initial cutoff
   ENAUG  =  462.8 eV  augmentation charge cutoff
   NELM   =     60;   NELMIN=  2; NELMDL=  0     # of ELM steps 
   EDIFF  = 0.1E-03   stopping-criterion for ELM
   LREAL  =      F    real-space projection
   NLSPLINE    = F    spline interpolate recip. space projectors
   LCOMPAT=      F    compatible to vasp.4.4
   GGA_COMPAT  = T    GGA compatible to vasp.4.4-vasp.4.6
   LMAXPAW     = -100 max onsite density
   LMAXMIX     =    2 max onsite mixed and CHGCAR
   VOSKOWN=      0    Vosko Wilk Nusair interpolation
   ROPT   =    0.00000   0.00000
 Ionic relaxation
   EDIFFG = 0.1E-02   stopping-criterion for IOM
   NSW    =      0    number of steps for IOM
   NBLOCK =      1;   KBLOCK =      1    inner block; outer block 
   IBRION =     -1    ionic relax: 0-MD 1-quasi-New 2-CG
   NFREE  =      1    steps in history (QN), initial steepest desc. (CG)
   ISIF   =      2    stress and relaxation
   IWAVPR =     10    prediction:  0-non 1-charg 2-wave 3-comb
   ISYM   =      2    0-nonsym 1-usesym 2-fastsym
   LCORR  =      T    Harris-Foulkes like correction to forces

   POTIM  = 0.5000    time-step for ionic-motion
   TEIN   =    0.0    initial temperature
   TEBEG  =    0.0;   TEEND  =   0.0 temperature during run
   SMASS  =  -3.00    Nose mass-parameter (am)
   estimated Nose-frequenzy (Omega)   =  0.10E-29 period in steps = 0.13E+47 mass=  -0.757E-27a.u.
   SCALEE = 1.0000    scale energy and forces
   NPACO  =    256;   APACO  = 10.0  distance and # of slots for P.C.
   PSTRESS=    0.0 pullay stress

  Mass of Ions in am
   POMASS =  74.92 69.72
  Ionic Valenz
   ZVAL   =   5.00  3.00
  Atomic Wigner-Seitz radii
   RWIGS  =  -1.00 -1.00
  virtual crystal weights 
   VCA    =   1.00  1.00
   NELECT =      32.0000    total number of electrons
   NUPDOWN=      -1.0000    fix difference up-down

 DOS related values:
   EMIN   =  10.00;   EMAX   =-10.00  energy-range for DOS
   EFERMI =   0.00;   METHOD = LEGACY      
   ISMEAR =    -5;   SIGMA  =   0.10  broadening in eV -4-tet -1-fermi 0-gaus

 Electronic relaxation 2 (details)
   IALGO  =     38    algorithm
   LDIAG  =      T    sub-space diagonalisation (order eigenvalues)
   LSUBROT=      F    optimize rotation matrix (better conditioning)
   TURBO    =      0    0=normal 1=particle mesh
   IRESTART =      0    0=no restart 2=restart with 2 vectors
   NREBOOT  =      0    no. of reboots
   NMIN     =      0    reboot dimension
   EREF     =   0.00    reference energy to select bands
   IMIX   =      4    mixing-type and parameters
     AMIX     =   0.40;   BMIX     =  1.00
     AMIX_MAG =   1.60;   BMIX_MAG =  1.00
     AMIN     =   0.10
     WC   =   100.;   INIMIX=   1;  MIXPRE=   1;  MAXMIX= -45

 Intra band minimization:
   WEIMIN = 0.0000     energy-eigenvalue tresh-hold
   EBREAK =  0.10E-05  absolut break condition
   DEPER  =   0.30     relativ break condition  

   TIME   =   0.40     timestep for ELM

  volume/ion in A,a.u.               =      23.85       160.98
  Fermi-wavevector in a.u.,A,eV,Ry     =   0.902753  1.705956 11.088253  0.814964
  Thomas-Fermi vector in A             =   2.025995
 
 Write flags
   LWAVE        =      T    write WAVECAR
   LDOWNSAMPLE  =      F    k-point downsampling of WAVECAR
   LCHARG       =      T    write CHGCAR
   LVTOT        =      F    write LOCPOT, total local potential
   LVHAR        =      F    write LOCPOT, Hartree potential only
   WRT_POTENTIAL= false  ! write potential to hdf5 file
   LELF         =      F    write electronic localiz. function (ELF)
   LORBIT       =      0    0 simple, 1 ext, 2 COOP (PROOUT), +10 PAW based schemes


 Dipole corrections
   LMONO      =      F    monopole corrections only (constant potential shift)
   LDIPOL     =      F    correct potential (dipole corrections)
   IDIPOL     =      0    1-x, 2-y, 3-z, 4-all directions 
   EPSILON    =  1.0000000 bulk dielectric constant
   LVACPOTAV  =      F  vacuum potentials using an averaging scheme for the charge density
   VACPOTFLAT =  0.1000000 required flatness to determine vacuum potential
 Exchange correlation treatment:
   GGA     = PE    functional components
   XC_C    = 1    coefficients multiplying the functional components
   LIBXC   =     F    Libxc                    
   VOSKOWN =     0    Vosko Wilk Nusair interpolation
   LHFCALC =     F    Hartree Fock is set to
   LHFONE  =     F    Hartree Fock one center treatment
   AEXX    =    0.0000 exact exchange contribution

 Parameters of functionals:
   PE:
     No parameter
 
 Van der Waals corrections
   IVDW    =     0    specifies the selected vdW correction

 Linear response parameters
   LEPSILON=     F    determine dielectric tensor
   LRPA    =     F    only Hartree local field effects (RPA)
   LNABLA  =     F    use nabla operator in PAW spheres
   LVEL    =     F    velocity operator in full k-point grid
   CSHIFT  =0.1000    complex shift for real part using Kramers Kronig
   OMEGAMAX=  -1.0    maximum frequency
   DEG_THRESHOLD= 0.2000000E-02 threshold for treating states as degnerate
   RTIME   =   -0.100 relaxation time in fs
  (WPLASMAI=    0.000 imaginary part of plasma frequency in eV, 0.658/RTIME)
   DFIELD  = 0.0000000 0.0000000 0.0000000 field for delta impulse in time
 
  Optional k-point grid parameters
   LKPOINTS_OPT  =     F    use optional k-point grid
   KPOINTS_OPT_MODE=     1    mode for optional k-point grid
 
 Orbital magnetization related:
   ORBITALMAG=     F  switch on orbital magnetization
   LCHIMAG   =     F  perturbation theory with respect to B field
   DQ        =  0.001000  dq finite difference perturbation B field
   LLRAUG    =     F  two centre corrections for induced B field
   LBONE     =     F  B-component reconstruction in AE one-centre
   LVGVCALC  =     T  calculate vGv susceptibility
   LVGVAPPL  =     F  apply vGv susceptibility instead of pGv for G=0

 Random number generation:
   RANDOM_GENERATOR = DEFAULT
   PCG_SEED         = not used


--------------------------------------------------------------------------------------------------------


 Static calculation
 charge density and potential will be updated during run
 non-spin polarized calculation
 Variant of blocked Davidson
 Davidson routine will perform the subspace rotation
 perform sub-space diagonalisation
    after iterative eigenvector-optimisation
 modified Broyden-mixing scheme, WC =      100.0
 initial mixing is a Kerker type mixing with AMIX =  0.4000 and BMIX =      1.0000
 Hartree-type preconditioning will be used
 using additional bands            8
 reciprocal scheme for non local part
 use partial core corrections
 calculate Harris-corrections to forces 
   (improved forces if not selfconsistent)
 use gradient corrections 
 use of overlap-Matrix (Vanderbilt PP)
 Fermi weights with tetrahedron method with Bloechl corrections


--------------------------------------------------------------------------------------------------------


  energy-cutoff  :      500.00
  volume of cell :      190.84
      direct lattice vectors                 reciprocal lattice vectors
     5.757346623  0.000000000  0.000000000     0.173691123  0.000000000  0.000000000
     0.000000000  5.757346623  0.000000000     0.000000000  0.173691123  0.000000000
     0.000000000  0.000000000  5.757346623     0.000000000  0.000000000  0.173691123

  length of vectors
     5.757346623  5.757346623  5.757346623     0.173691123  0.173691123  0.173691123


 
 old parameters found on file WAVECAR:
  energy-cutoff  :      500.00
  volume of cell :      169.52
      direct lattice vectors                 reciprocal lattice vectors
     5.534407977  0.000000000  0.000000000     0.180687800  0.000000000  0.000000000
     0.000000000  5.534407977  0.000000000     0.000000000  0.180687800  0.000000000
     0.000000000  0.000000000  5.534407977     0.000000000  0.000000000  0.180687800

  length of vectors

 
 k-points in units of 2pi/SCALE and weight: Automatic mesh                          
   0.00000000  0.00000000  0.00000000       0.008
   0.15632201  0.00000000  0.00000000       0.048
   0.31264402  0.00000000  0.00000000       0.048
   0.15632201  0.15632201  0.00000000       0.096
   0.31264402  0.15632201  0.00000000       0.192
   0.31264402  0.31264402  0.00000000       0.096
   0.15632201  0.15632201  0.15632201       0.064
   0.31264402  0.15632201  0.15632201       0.192
   0.31264402  0.31264402  0.15632201       0.192
   0.31264402  0.31264402  0.31264402       0.064
 
 k-points in reciprocal lattice and weights: Automatic mesh                          
   0.00000000  0.00000000  0.00000000       0.008
   0.20000000  0.00000000  0.00000000       0.048
   0.40000000  0.00000000  0.00000000       0.048
   0.20000000  0.20000000  0.00000000       0.096
   0.40000000  0.20000000  0.00000000       0.192
   0.40000000  0.40000000  0.00000000       0.096
   0.20000000  0.20000000  0.20000000       0.064
   0.40000000  0.20000000  0.20000000       0.192
   0.40000000  0.40000000  0.20000000       0.192
   0.40000000  0.40000000  0.40000000       0.064
 
 position of ions in fractional coordinates (direct lattice) 
   0.00000000  0.00000000  0.00000000
   0.50000000  0.50000000  0.00000000
   0.50000000  0.00000000  0.50000000
   0.00000000  0.50000000  0.50000000
   0.25000000  0.25000000  0.25000000
   0.75000000  0.25000000  0.75000000
   0.75000000  0.75000000  0.25000000
   0.25000000  0.75000000  0.75000000
 
 position of ions in cartesian coordinates  (Angst):
   0.00000000  0.00000000  0.00000000
   2.87867331  2.87867331  0.00000000
   2.87867331  0.00000000  2.87867331
   0.00000000  2.87867331  2.87867331
   1.43933666  1.43933666  1.43933666
   4.31800997  1.43933666  4.31800997
   4.31800997  4.31800997  1.43933666
   1.43933666  4.31800997  4.31800997
 


--------------------------------------------------------------------------------------------------------


 k-point     1 :   0.0000 0.0000 0.0000  plane waves:    4945
 k-point     2 :   0.2000 0.0000 0.0000  plane waves:    4841
 k-point     3 :   0.4000 0.0000 0.0000  plane waves:    4869
 k-point     4 :   0.2000 0.2000 0.0000  plane waves:    4843
 k-point     5 :   0.4000 0.2000 0.0000  plane waves:    4854
 k-point     6 :   0.4000 0.4000 0.0000  plane waves:    4839
 k-point     7 :   0.2000 0.2000 0.2000  plane waves:    4845
 k-point     8 :   0.4000 0.2000 0.2000  plane waves:    4838
 k-point     9 :   0.4000 0.4000 0.2000  plane waves:    4863
 k-point    10 :   0.4000 0.4000 0.4000  plane waves:    4809

 maximum and minimum number of plane-waves per node :      4945     4809

 maximum number of plane-waves:      4945
 maximum index in each direction: 
   IXMAX=   10   IYMAX=   10   IZMAX=   10
   IXMIN=  -10   IYMIN=  -10   IZMIN=  -10


 serial   3D FFT for wavefunctions
 parallel 3D FFT for charge:
    minimum data exchange during FFTs selected (reduces bandwidth)


 total amount of memory used by VASP MPI-rank0    47897. kBytes
=======================================================================

   base      :      30000. kBytes
   nonl-proj :      10934. kBytes
   fftplans  :       1270. kBytes
   grid      :       3203. kBytes
   one-center:         64. kBytes
   wavefun   :       2426. kBytes
 
     INWAV:  cpu time      0.0326: real time      0.0409
 Broyden mixing: mesh for mixing (old mesh)
   NGX = 21   NGY = 21   NGZ = 21
  (NGX  = 64   NGY  = 64   NGZ  = 64)
  gives a total of   9261 points

 charge density for first step will be calculated from the start-wavefunctions


--------------------------------------------------------------------------------------------------------


 Maximum index for augmentation-charges         1507 (set IRDMAX)


--------------------------------------------------------------------------------------------------------


 initial charge from wavefunction
 First call to EWALD:  gamma=   0.308
 Maximum number of real-space cells 3x 3x 3
 Maximum number of reciprocal cells 3x 3x 3

    FEWALD:  cpu time      0.0010: real time      0.0010


--------------------------------------- Ionic step        1  -------------------------------------------




--------------------------------------- Iteration      1(   1)  ---------------------------------------


    POTLOK:  cpu time      0.0162: real time      0.0196
    SETDIJ:  cpu time      0.0020: real time      0.0020
     EDDAV:  cpu time      0.2968: real time      0.3101
 BZINTS: Fermi energy:    1.927998;   32.000000 electrons
         Band energy:-0.100361E+03;  BLOECHL correction:    0.000000
       DOS:  cpu time      0.0003: real time      0.0004
    CHARGE:  cpu time      0.0132: real time      0.0134
    MIXING:  cpu time      0.0006: real time      0.0006
    --------------------------------------------
      LOOP:  cpu time      0.3291: real time      0.3461

 eigenvalue-minimisations  :   528
 total energy-change (2. order) :-0.3355544E+02  (-0.1218212E+01)
 number of electron      32.0000034 magnetization 
 augmentation part       -5.2280296 magnetization 

 Broyden mixing:
  rms(total) = 0.64456E+00    rms(broyden)= 0.64456E+00
  rms(prec ) = 0.81534E+00
  weight for this iteration     100.00

 Free energy of the ion-electron system (eV)
  ---------------------------------------------------
  alpha Z        PSCENC =        71.70364780
  Ewald energy   TEWEN  =      -900.11833445
  -Hartree energ DENC   =       -78.84130228
  -exchange      EXHF   =         0.00000000
  -V(xc)+E(xc)   XCENC  =      -121.44999147
  PAW double counting   =      2458.54317793    -2279.25105688
  entropy T*S    EENTRO =         0.00000000
  eigenvalues    EBANDS =      -100.36121184
  atomic energy  EATOM  =       916.21963040
  Solvation  Ediel_sol  =         0.00000000
  ---------------------------------------------------
  free energy    TOTEN  =       -33.55544079 eV

  energy without entropy =      -33.55544079  energy(sigma->0) =      -33.55544079


--------------------------------------------------------------------------------------------------------




--------------------------------------- Iteration      1(   2)  ---------------------------------------


    POTLOK:  cpu time      0.0166: real time      0.0178
    SETDIJ:  cpu time      0.0018: real time      0.0018
     EDDAV:  cpu time      0.2773: real time      0.2902
 BZINTS: Fermi energy:    2.162856;   32.000000 electrons
         Band energy:-0.948734E+02;  BLOECHL correction:    0.000000
       DOS:  cpu time      0.0004: real time      0.0004
    CHARGE:  cpu time      0.0131: real time      0.0134
    MIXING:  cpu time      0.0006: real time      0.0006
    --------------------------------------------
      LOOP:  cpu time      0.3097: real time      0.3240

 eigenvalue-minimisations  :   504
 total energy-change (2. order) : 0.3130387E+00  (-0.6404877E-01)
 number of electron      32.0000033 magnetization 
 augmentation part       -5.2197758 magnetization 

 Broyden mixing:
  rms(total) = 0.38300E+00    rms(broyden)= 0.38300E+00
  rms(prec ) = 0.45599E+00
  weight for this iteration     100.00

 eigenvalues of (default mixing * dielectric matrix)
  average eigenvalue GAMMA=   2.3489
  2.3489

 Free energy of the ion-electron system (eV)
  ---------------------------------------------------
  alpha Z        PSCENC =        71.70364780
  Ewald energy   TEWEN  =      -900.11833445
  -Hartree energ DENC   =       -83.81146977
  -exchange      EXHF   =         0.00000000
  -V(xc)+E(xc)   XCENC  =      -121.48277396
  PAW double counting   =      2176.72642498    -1997.60609987
  entropy T*S    EENTRO =         0.00000000
  eigenvalues    EBANDS =       -94.87342717
  atomic energy  EATOM  =       916.21963040
  Solvation  Ediel_sol  =         0.00000000
  ---------------------------------------------------
  free energy    TOTEN  =       -33.24240204 eV

  energy without entropy =      -33.24240204  energy(sigma->0) =      -33.24240204


--------------------------------------------------------------------------------------------------------




--------------------------------------- Iteration      1(   3)  ---------------------------------------


    POTLOK:  cpu time      0.0163: real time      0.0169
    SETDIJ:  cpu time      0.0020: real time      0.0020
     EDDAV:  cpu time      0.2830: real time      0.2960
 BZINTS: Fermi energy:    2.340791;   32.000000 electrons
         Band energy:-0.892388E+02;  BLOECHL correction:    0.000000
       DOS:  cpu time      0.0004: real time      0.0004
    CHARGE:  cpu time      0.0129: real time      0.0131
    MIXING:  cpu time      0.0006: real time      0.0006
    --------------------------------------------
      LOOP:  cpu time      0.3151: real time      0.3290

 eigenvalue-minimisations  :   520
 total energy-change (2. order) : 0.9080724E-01  (-0.4974295E-01)
 number of electron      32.0000032 magnetization 
 augmentation part       -5.1647508 magnetization 

 Broyden mixing:
  rms(total) = 0.43738E-01    rms(broyden)= 0.43738E-01
  rms(prec ) = 0.94149E-01
  weight for this iteration     100.00

 eigenvalues of (default mixing * dielectric matrix)
  average eigenvalue GAMMA=   1.6247
  1.1820  2.0674

 Free energy of the ion-electron system (eV)
  ---------------------------------------------------
  alpha Z        PSCENC =        71.70364780
  Ewald energy   TEWEN  =      -900.11833445
  -Hartree energ DENC   =       -89.07052087
  -exchange      EXHF   =         0.00000000
  -V(xc)+E(xc)   XCENC  =      -121.63558089
  PAW double counting   =      1855.99401577    -1677.00564957
  entropy T*S    EENTRO =         0.00000000
  eigenvalues    EBANDS =       -89.23880298
  atomic energy  EATOM  =       916.21963040
  Solvation  Ediel_sol  =         0.00000000
  ---------------------------------------------------
  free energy    TOTEN  =       -33.15159480 eV

  energy without entropy =      -33.15159480  energy(sigma->0) =      -33.15159480


--------------------------------------------------------------------------------------------------------




--------------------------------------- Iteration      1(   4)  ---------------------------------------


    POTLOK:  cpu time      0.0166: real time      0.0172
    SETDIJ:  cpu time      0.0018: real time      0.0019
     EDDAV:  cpu time      0.2778: real time      0.2904
 BZINTS: Fermi energy:    2.326722;   32.000000 electrons
         Band energy:-0.901725E+02;  BLOECHL correction:    0.000000
       DOS:  cpu time      0.0003: real time      0.0003
    CHARGE:  cpu time      0.0130: real time      0.0132
    MIXING:  cpu time      0.0008: real time      0.0008
    --------------------------------------------
      LOOP:  cpu time      0.3104: real time      0.3238

 eigenvalue-minimisations  :   496
 total energy-change (2. order) : 0.9224950E-02  (-0.4533094E-02)
 number of electron      32.0000032 magnetization 
 augmentation part       -5.1641428 magnetization 

 Broyden mixing:
  rms(total) = 0.29717E-01    rms(broyden)= 0.29717E-01
  rms(prec ) = 0.37185E-01
  weight for this iteration     100.00

 eigenvalues of (default mixing * dielectric matrix)
  average eigenvalue GAMMA=   1.6257
  2.3216  1.2777  1.2777

 Free energy of the ion-electron system (eV)
  ---------------------------------------------------
  alpha Z        PSCENC =        71.70364780
  Ewald energy   TEWEN  =      -900.11833445
  -Hartree energ DENC   =       -88.10126499
  -exchange      EXHF   =         0.00000000
  -V(xc)+E(xc)   XCENC  =      -121.71426169
  PAW double counting   =      1864.79696487    -1685.75622602
  entropy T*S    EENTRO =         0.00000000
  eigenvalues    EBANDS =       -90.17252576
  atomic energy  EATOM  =       916.21963040
  Solvation  Ediel_sol  =         0.00000000
  ---------------------------------------------------
  free energy    TOTEN  =       -33.14236985 eV

  energy without entropy =      -33.14236985  energy(sigma->0) =      -33.14236985


--------------------------------------------------------------------------------------------------------




--------------------------------------- Iteration      1(   5)  ---------------------------------------


    POTLOK:  cpu time      0.0161: real time      0.0170
    SETDIJ:  cpu time      0.0018: real time      0.0018
     EDDAV:  cpu time      0.3040: real time      0.3175
 BZINTS: Fermi energy:    2.337680;   32.000000 electrons
         Band energy:-0.897311E+02;  BLOECHL correction:    0.000000
       DOS:  cpu time      0.0003: real time      0.0003
    CHARGE:  cpu time      0.0131: real time      0.0133
    MIXING:  cpu time      0.0006: real time      0.0006
    --------------------------------------------
      LOOP:  cpu time      0.3359: real time      0.3505

 eigenvalue-minimisations  :   560
 total energy-change (2. order) : 0.5857132E-03  (-0.3379507E-03)
 number of electron      32.0000032 magnetization 
 augmentation part       -5.1595167 magnetization 

 Broyden mixing:
  rms(total) = 0.70513E-02    rms(broyden)= 0.70513E-02
  rms(prec ) = 0.79020E-02
  weight for this iteration     100.00

 eigenvalues of (default mixing * dielectric matrix)
  average eigenvalue GAMMA=   1.4800
  2.1471  1.3667  1.3667  1.0394

 Free energy of the ion-electron system (eV)
  ---------------------------------------------------
  alpha Z        PSCENC =        71.70364780
  Ewald energy   TEWEN  =      -900.11833445
  -Hartree energ DENC   =       -88.51367300
  -exchange      EXHF   =         0.00000000
  -V(xc)+E(xc)   XCENC  =      -121.74371221
  PAW double counting   =      1836.23972644    -1657.19798165
  entropy T*S    EENTRO =         0.00000000
  eigenvalues    EBANDS =       -89.73108745
  atomic energy  EATOM  =       916.21963040
  Solvation  Ediel_sol  =         0.00000000
  ---------------------------------------------------
  free energy    TOTEN  =       -33.14178413 eV

  energy without entropy =      -33.14178413  energy(sigma->0) =      -33.14178413


--------------------------------------------------------------------------------------------------------




--------------------------------------- Iteration      1(   6)  ---------------------------------------


    POTLOK:  cpu time      0.0164: real time      0.0170
    SETDIJ:  cpu time      0.0018: real time      0.0018
     EDDAV:  cpu time      0.2227: real time      0.2330
 BZINTS: Fermi energy:    2.338346;   32.000000 electrons
         Band energy:-0.897189E+02;  BLOECHL correction:    0.000000
       DOS:  cpu time      0.0004: real time      0.0003
    --------------------------------------------
      LOOP:  cpu time      0.2412: real time      0.2522

 eigenvalue-minimisations  :   328
 total energy-change (2. order) :-0.5602983E-04  (-0.6228357E-05)
 number of electron      32.0000032 magnetization 
 augmentation part       -5.1595167 magnetization 

 Free energy of the ion-electron system (eV)
  ---------------------------------------------------
  alpha Z        PSCENC =        71.70364780
  Ewald energy   TEWEN  =      -900.11833445
  -Hartree energ DENC   =       -88.53265221
  -exchange      EXHF   =         0.00000000
  -V(xc)+E(xc)   XCENC  =      -121.73877641
  PAW double counting   =      1840.83640198    -1661.79285680
  entropy T*S    EENTRO =         0.00000000
  eigenvalues    EBANDS =       -89.71890046
  atomic energy  EATOM  =       916.21963040
  Solvation  Ediel_sol  =         0.00000000
  ---------------------------------------------------
  free energy    TOTEN  =       -33.14184016 eV

  energy without entropy =      -33.14184016  energy(sigma->0) =      -33.14184016


--------------------------------------------------------------------------------------------------------




 average (electrostatic) potential at core
  the test charge radii are     1.0621  1.2767
  (the norm of the test charge is              1.0000)
       1 -51.8734       2 -51.8734       3 -51.8734       4 -51.8734       5 -15.0539
       6 -15.0539       7 -15.0539       8 -15.0539
 
 
 
 E-fermi :   2.3383     XC(G=0):  -8.9660     alpha+bet : -8.1055

 val. band max:        2.3091074675   @ k =   0.0000   0.0000   0.0000
 cond. band min:       2.4776285443   @ k =   0.0000   0.0000   0.0000
 fundamental gap:      0.1685210767
 Fermi energy:         2.3383459064

 k-point     1 :       0.0000    0.0000    0.0000
  band No.  band energies     occupation 
      1     -10.0179      2.00000
      2      -7.8674      2.00000
      3      -7.8674      2.00000
      4      -7.8674      2.00000
      5      -4.2326      2.00000
      6      -4.2326      2.00000
      7      -4.2326      2.00000
      8      -0.1688      2.00000
      9      -0.1688      2.00000
     10      -0.1688      2.00000
     11      -0.1688      2.00000
     12      -0.1688      2.00000
     13      -0.1688      2.00000
     14       2.3091      2.00000
     15       2.3091      2.00000
     16       2.3091      2.00000
     17       2.4776      0.00000
     18       3.8783      0.00000
     19       3.8783      0.00000
     20       3.8783      0.00000
     21       4.0056      0.00000
     22       4.0056      0.00000
     23       4.0056      0.00000
     24       6.0544      0.00000

 k-point     2 :       0.2000    0.0000    0.0000
  band No.  band energies     occupation 
      1      -9.8834      2.00000
      2      -8.2191      2.00000
      3      -7.8553      2.00000
      4      -7.8553      2.00000
      5      -4.1764      2.00000
      6      -4.1764      2.00000
      7      -3.6951      2.00000
      8      -0.4817      2.00000
      9      -0.4817      2.00000
     10      -0.4070      2.00000
     11      -0.4070      2.00000
     12      -0.0154      2.00000
     13      -0.0154      2.00000
     14       0.6732      2.00000
     15       1.8945      2.00000
     16       1.8945      2.00000
     17       3.8183      0.00000
     18       4.0584      0.00000
     19       4.4524      0.00000
     20       4.5679      0.00000
     21       4.5679      0.00000
     22       4.7009      0.00000
     23       4.7009      0.00000
     24       5.5999      0.00000

 k-point     3 :       0.4000    0.0000    0.0000
  band No.  band energies     occupation 
      1      -9.4918      2.00000
      2      -8.8906      2.00000
      3      -7.8354      2.00000
      4      -7.8354      2.00000
      5      -4.0757      2.00000
      6      -4.0757      2.00000
      7      -2.4732      2.00000
      8      -0.9687      2.00000
      9      -0.9114      2.00000
     10      -0.9114      2.00000
     11      -0.7215      2.00000
     12      -0.7215      2.00000
     13       0.4312      2.00000
     14       0.4312      2.00000
     15       1.1188      2.00000
     16       1.1188      2.00000
     17       4.0848      0.00000
     18       4.6318      0.00000
     19       5.1926      0.00000
     20       5.4194      0.00000
     21       6.2126      0.00000
     22       6.2126      0.00000
     23       6.2184      0.00000
     24       6.2184      0.00000

 k-point     4 :       0.2000    0.2000    0.0000
  band No.  band energies     occupation 
      1      -9.7527      2.00000
      2      -8.1727      2.00000
      3      -8.1727      2.00000
      4      -7.8752      2.00000
      5      -4.1186      2.00000
      6      -3.7268      2.00000
      7      -3.7268      2.00000
      8      -1.0720      2.00000
      9      -0.4070      2.00000
     10      -0.4070      2.00000
     11      -0.2005      2.00000
     12      -0.1111      2.00000
     13      -0.1111      2.00000
     14       0.0843      2.00000
     15       1.4491      2.00000
     16       2.1508      2.00000
     17       4.1506      0.00000
     18       4.1838      0.00000
     19       4.5658      0.00000
     20       4.5658      0.00000
     21       5.0441      0.00000
     22       5.0441      0.00000
     23       6.0138      0.00000
     24       6.1828      0.00000

 k-point     5 :       0.4000    0.2000    0.0000
  band No.  band energies     occupation 
      1      -9.3741      2.00000
      2      -8.7994      2.00000
      3      -8.0602      2.00000
      4      -7.9446      2.00000
      5      -3.9793      2.00000
      6      -3.8287      2.00000
      7      -2.7090      2.00000
      8      -1.4830      2.00000
      9      -1.3037      2.00000
     10      -1.0206      2.00000
     11      -0.1437      2.00000
     12      -0.0183      2.00000
     13       0.0450      2.00000
     14       0.5676      2.00000
     15       0.6516      2.00000
     16       1.4771      2.00000
     17       4.8370      0.00000
     18       4.9621      0.00000
     19       5.0761      0.00000
     20       5.5619      0.00000
     21       5.6343      0.00000
     22       6.0756      0.00000
     23       6.4228      0.00000
     24       7.4271      0.00000

 k-point     6 :       0.4000    0.4000    0.0000
  band No.  band energies     occupation 
      1      -9.0388      2.00000
      2      -8.5509      2.00000
      3      -8.5509      2.00000
      4      -8.2239      2.00000
      5      -3.6824      2.00000
      6      -3.2106      2.00000
      7      -3.2106      2.00000
      8      -2.3809      2.00000
      9      -1.2581      2.00000
     10      -0.7607      2.00000
     11      -0.7607      2.00000
     12      -0.1459      2.00000
     13       0.7629      2.00000
     14       0.8234      2.00000
     15       0.8234      2.00000
     16       1.5899      2.00000
     17       4.7546      0.00000
     18       4.8729      0.00000
     19       5.4397      0.00000
     20       5.4397      0.00000
     21       6.6954      0.00000
     22       6.6954      0.00000
     23       7.1434      0.00000
     24       7.2158      0.00000

 k-point     7 :       0.2000    0.2000    0.2000
  band No.  band energies     occupation 
      1      -9.6267      2.00000
      2      -8.1517      2.00000
      3      -8.1517      2.00000
      4      -8.1517      2.00000
      5      -3.7849      2.00000
      6      -3.7849      2.00000
      7      -3.7849      2.00000
      8      -0.9356      2.00000
      9      -0.7772      2.00000
     10      -0.7772      2.00000
     11      -0.7772      2.00000
     12       0.2242      2.00000
     13       0.2242      2.00000
     14       0.2242      2.00000
     15       1.8496      2.00000
     16       1.8496      2.00000
     17       3.7308      0.00000
     18       4.3383      0.00000
     19       4.3383      0.00000
     20       4.3383      0.00000
     21       6.1541      0.00000
     22       6.1541      0.00000
     23       6.1541      0.00000
     24       6.7088      0.00000

 k-point     8 :       0.4000    0.2000    0.2000
  band No.  band energies     occupation 
      1      -9.2640      2.00000
      2      -8.7225      2.00000
      3      -8.1165      2.00000
      4      -8.1165      2.00000
      5      -3.8870      2.00000
      6      -3.8870      2.00000
      7      -3.0112      2.00000
      8      -2.0294      2.00000
      9      -0.9674      2.00000
     10      -0.9674      2.00000
     11       0.0411      2.00000
     12       0.2589      2.00000
     13       0.2589      2.00000
     14       0.6261      2.00000
     15       1.1556      2.00000
     16       1.2235      2.00000
     17       4.3536      0.00000
     18       4.6639      0.00000
     19       5.1397      0.00000
     20       5.1397      0.00000
     21       6.2571      0.00000
     22       6.2888      0.00000
     23       6.9848      0.00000
     24       6.9848      0.00000

 k-point     9 :       0.4000    0.4000    0.2000
  band No.  band energies     occupation 
      1      -8.9553      2.00000
      2      -8.5225      2.00000
      3      -8.5225      2.00000
      4      -8.2860      2.00000
      5      -3.8570      2.00000
      6      -3.5329      2.00000
      7      -3.5329      2.00000
      8      -2.8779      2.00000
      9      -0.6827      2.00000
     10      -0.2412      2.00000
     11      -0.2412      2.00000
     12       0.5278      2.00000
     13       0.8466      2.00000
     14       0.8856      2.00000
     15       0.8856      2.00000
     16       1.5227      2.00000
     17       4.1419      0.00000
     18       4.6813      0.00000
     19       4.8483      0.00000
     20       4.8483      0.00000
     21       6.5291      0.00000
     22       6.5291      0.00000
     23       7.0214      0.00000
     24       7.0433      0.00000

 k-point    10 :       0.4000    0.4000    0.4000
  band No.  band energies     occupation 
      1      -8.7362      2.00000
      2      -8.4743      2.00000
      3      -8.4743      2.00000
      4      -8.4743      2.00000
      5      -3.9258      2.00000
      6      -3.9258      2.00000
      7      -3.9258      2.00000
      8      -3.5690      2.00000
      9       0.5079      2.00000
     10       0.5079      2.00000
     11       0.5079      2.00000
     12       1.0654      2.00000
     13       1.0654      2.00000
     14       1.0654      2.00000
     15       1.3281      2.00000
     16       1.3281      2.00000
     17       3.2728      0.00000
     18       3.9965      0.00000
     19       3.9965      0.00000
     20       3.9965      0.00000
     21       6.6964      0.00000
     22       6.6964      0.00000
     23       6.6964      0.00000
     24       6.9761      0.00000


--------------------------------------------------------------------------------------------------------


 soft charge-density along one line, spin component           1
         0         1         2         3         4         5         6         7         8         9
 total charge-density along one line
 
 pseudopotential strength for first ion, spin component:           1
 23.779  28.425  -0.000  -0.000   0.000   0.000   0.000  -0.000
 28.425  33.985  -0.000  -0.000   0.000   0.000   0.000  -0.000
 -0.000  -0.000   5.577  -0.000   0.000 -11.055   0.000  -0.000
 -0.000  -0.000  -0.000   5.577   0.000   0.000 -11.055  -0.000
  0.000   0.000   0.000   0.000   5.577  -0.000  -0.000 -11.055
  0.000   0.000 -11.055   0.000  -0.000  22.493  -0.000   0.000
  0.000   0.000   0.000 -11.055  -0.000  -0.000  22.493   0.000
 -0.000  -0.000  -0.000  -0.000 -11.055   0.000   0.000  22.493
  0.000   0.000   0.000   0.001  -0.000  -0.000  -0.000   0.000
 -0.000  -0.000  -0.000  -0.000   0.001   0.000   0.000  -0.000
  0.000   0.000   0.000  -0.000  -0.000  -0.000   0.000   0.000
  0.000   0.000   0.001   0.000  -0.000  -0.000  -0.000   0.000
 -0.000  -0.000   0.000  -0.000   0.000  -0.000   0.000  -0.000
 total augmentation occupancy for first ion, spin component:           1
  4.951  -2.039   0.000   0.000   0.000   0.000   0.000   0.000   0.000  -0.000  -0.000   0.000  -0.000
 -2.039   1.201   0.000   0.000   0.000   0.000  -0.000  -0.000   0.000  -0.000   0.000   0.000  -0.000
  0.000  -0.000   1.435   0.000   0.000   0.055   0.000  -0.000  -0.000   0.000  -0.000   0.094  -0.000
  0.000  -0.000   0.000   1.435  -0.000  -0.000   0.055  -0.000   0.094  -0.000  -0.000   0.000   0.000
 -0.000  -0.000  -0.000  -0.000   1.435  -0.000   0.000   0.055  -0.000   0.094  -0.000   0.000   0.000
  0.000   0.000   0.055  -0.000  -0.000   0.003  -0.000   0.000   0.000  -0.000   0.000   0.004   0.000
  0.000   0.000  -0.000   0.055   0.000  -0.000   0.003  -0.000   0.004  -0.000   0.000   0.000  -0.000
 -0.000   0.000  -0.000   0.000   0.055  -0.000  -0.000   0.003  -0.000   0.004   0.000  -0.000  -0.000
  0.000  -0.000  -0.000   0.094  -0.000  -0.000   0.004  -0.000   0.012  -0.000  -0.000  -0.000  -0.000
 -0.000   0.000   0.000   0.000   0.094  -0.000   0.000   0.004  -0.000   0.012  -0.000  -0.000  -0.000
 -0.000   0.000  -0.000   0.000  -0.000   0.000   0.000   0.000  -0.000   0.000   0.004   0.000   0.000
  0.000   0.000   0.094  -0.000   0.000   0.004   0.000   0.000  -0.000   0.000   0.000   0.012  -0.000
 -0.000  -0.000  -0.000   0.000   0.000   0.000  -0.000  -0.000   0.000  -0.000   0.000   0.000   0.004


------------------------ aborting loop because EDIFF is reached ----------------------------------------


    CHARGE:  cpu time      0.0134: real time      0.0136
    FORLOC:  cpu time      0.0011: real time      0.0011
    FORNL :  cpu time      0.0609: real time      0.0613
    STRESS:  cpu time      0.3529: real time      0.3551
    FORCOR:  cpu time      0.0163: real time      0.0166
    FORHAR:  cpu time      0.0042: real time      0.0043
    MIXING:  cpu time      0.0006: real time      0.0006
    OFIELD:  cpu time      0.0000: real time      0.0000

  FORCE on cell =-STRESS in cart. coord.  units (eV):
  Direction    XX          YY          ZZ          XY          YZ          ZX
  --------------------------------------------------------------------------------------
  Alpha Z    71.70365    71.70365    71.70365
  Ewald    -300.03992  -300.03992  -300.03992     0.00000     0.00000    -0.00000
  Hartree    29.52677    29.52677    29.52677    -0.00000    -0.00000    -0.00000
  E(xc)    -119.32078  -119.32078  -119.32078    -0.00000    -0.00000    -0.00000
  Local    -120.57910  -120.57910  -120.57910    -0.00000     0.00000    -0.00000
  n-local   174.06879   176.33507   173.66925    -1.98351    -1.18490    -0.96055
  augment     7.41354     7.41354     7.41354     0.00000    -0.00000     0.00000
  Kinetic   250.55519   261.53013   258.35782    -4.95143    -4.50141    -3.07921
  Fock        0.00000     0.00000     0.00000     0.00000     0.00000     0.00000
  -------------------------------------------------------------------------------------
  Total       0.20958     0.20958     0.20958     0.00000     0.00000    -0.00000
  in kB       1.75949     1.75949     1.75949     0.00000     0.00000    -0.00000
  external pressure =        1.76 kB  Pullay stress =        0.00 kB


 VOLUME and BASIS-vectors are now :
 -----------------------------------------------------------------------------
  energy-cutoff  :      500.00
  volume of cell :      190.84
      direct lattice vectors                 reciprocal lattice vectors
     5.757346623  0.000000000  0.000000000     0.173691123  0.000000000  0.000000000
     0.000000000  5.757346623  0.000000000     0.000000000  0.173691123  0.000000000
     0.000000000  0.000000000  5.757346623     0.000000000  0.000000000  0.173691123

  length of vectors
     5.757346623  5.757346623  5.757346623     0.173691123  0.173691123  0.173691123


 FORCES acting on ions
    electron-ion (+dipol)            ewald-force                    non-local-force                 convergence-correction
 -----------------------------------------------------------------------------------------------
   0.555E-14 0.281E-14 0.358E-15   0.888E-14 0.178E-14 0.178E-14   -.383E-16 0.108E-16 -.316E-17   -.302E-14 -.950E-15 0.226E-14
   0.346E-13 -.257E-12 -.334E-12   0.107E-13 0.000E+00 0.178E-14   0.829E-17 0.970E-17 -.502E-16   -.108E-14 -.445E-16 0.262E-14
   0.204E-13 0.112E-14 -.495E-12   0.107E-13 0.178E-14 0.178E-14   -.174E-16 0.104E-16 0.106E-16   -.977E-15 -.127E-14 0.298E-14
   -.185E-14 0.168E-13 0.192E-13   0.107E-13 0.000E+00 0.178E-14   0.563E-17 0.983E-17 -.368E-16   -.312E-14 0.668E-15 0.252E-14
   -.494E-14 0.266E-13 -.374E-14   -.105E-13 -.192E-14 -.181E-14   0.352E-17 0.243E-17 0.498E-17   0.297E-15 0.892E-16 -.775E-15
   -.123E-14 0.172E-12 0.168E-12   -.110E-13 -.191E-14 0.170E-15   0.174E-17 0.671E-18 0.347E-17   0.120E-14 -.149E-15 -.211E-14
   0.247E-14 0.995E-13 0.177E-12   -.101E-13 -.169E-14 -.194E-14   0.700E-17 0.163E-17 0.326E-17   0.134E-14 0.132E-14 -.497E-15
   -.111E-13 0.578E-13 -.216E-14   -.112E-13 -.168E-14 0.382E-16   0.432E-17 -.154E-18 0.328E-17   0.245E-15 0.152E-14 -.227E-14
 -----------------------------------------------------------------------------------------------
   0.438E-13 0.120E-12 -.470E-12   -.188E-14 -.365E-14 0.357E-14   -.252E-16 0.454E-16 -.646E-16   -.511E-14 0.119E-14 0.472E-14
 
 
 POSITION                                       TOTAL-FORCE (eV/Angst)
 -----------------------------------------------------------------------------------
      0.00000      0.00000      0.00000        -0.000000      0.000000     -0.000000
      2.87867      2.87867      0.00000        -0.000000     -0.000000     -0.000000
      2.87867      0.00000      2.87867        -0.000000     -0.000000     -0.000000
      0.00000      2.87867      2.87867         0.000000     -0.000000      0.000000
      1.43934      1.43934      1.43934        -0.000000      0.000000      0.000000
      4.31801      1.43934      4.31801         0.000000      0.000000      0.000000
      4.31801      4.31801      1.43934         0.000000     -0.000000      0.000000
      1.43934      4.31801      4.31801         0.000000      0.000000     -0.000000
 -----------------------------------------------------------------------------------
    total drift:                                0.000000      0.000000     -0.000000


--------------------------------------------------------------------------------------------------------



  FREE ENERGIE OF THE ION-ELECTRON SYSTEM (eV)
  ---------------------------------------------------
  free  energy   TOTEN  =       -33.14184016 eV

  energy  without entropy=      -33.14184016  energy(sigma->0) =      -33.14184016
 


--------------------------------------------------------------------------------------------------------


    POTLOK:  cpu time      0.0178: real time      0.0182


--------------------------------------------------------------------------------------------------------


 writing wavefunctions
     LOOP+:  cpu time      2.5763: real time      2.7057


--------------------------------------------------------------------------------------------------------



 plasma frequency squared (from intraband transitions) (eV^2)
  --------------------------------------------------------------------------------------
       0.000       0.000       0.000
       0.000       0.000       0.000
       0.000       0.000       0.000

 electrical conductivity sigma (Mega S m-1) (frequency dependency in vasprun.xml)
  --------------------------------------------------------------------------------------
       0.000       0.000       0.000
       0.000       0.000       0.000
       0.000       0.000       0.000

 plasma frequency squared (from interband transitions, int dw w eps(2)(w)) (eV^2)
  --------------------------------------------------------------------------------------
     300.815       0.000      -0.000       0.000       0.000       0.000
      -0.000       0.000     300.815       0.000      -0.000       0.000
       0.000       0.000      -0.000       0.000     300.815       0.000
  --------------------------------------------------------------------------------------
 sumrule: sum of plasma frequencies squared should yield (valence only):     231.210

 Anomalous Hall contribution (eV) 2/pi Imag((f_n-f_m)<u_m| d/dk_a u_n> <u_m| d/dk_b u_n>^*) 
  --------------------------------------------------------------------------------------
       0.000       0.000       0.000
       0.000       0.000       0.000
       0.000       0.000       0.000

  frequency dependent IMAGINARY DIELECTRIC FUNCTION (independent particle, no local field effects) density-density
     E(ev)      X         Y         Z        XY        YZ        ZX
  --------------------------------------------------------------------------------------------------------------
    0.000000    0.000000    0.000000    0.000000    0.000000    0.000000    0.000000
    0.020955    0.112287    0.112287    0.112287   -0.000000    0.000000    0.000000
    0.041910    0.225621    0.225621    0.225621   -0.000000    0.000000    0.000000
    0.062865    0.341096    0.341096    0.341096   -0.000000    0.000000    0.000000
    0.083820    0.459910    0.459910    0.459910   -0.000000    0.000000    0.000000
    0.104775    0.583415    0.583415    0.583415   -0.000000    0.000000    0.000000
    0.125730    0.713168    0.713168    0.713168   -0.000000    0.000000    0.000000
    0.146684    0.850968    0.850968    0.850968   -0.000000    0.000000    0.000000
    0.167639    0.998837    0.998837    0.998837   -0.000000    0.000000    0.000000
    0.188594    1.158935    1.158935    1.158935   -0.000000    0.000000    0.000000
    0.209549    1.333409    1.333409    1.333409   -0.000000    0.000000    0.000000
    0.230504    1.524238    1.524238    1.524238   -0.000000    0.000000    0.000000
    0.251459    1.733141    1.733141    1.733141   -0.000000    0.000000    0.000000
    0.272414    1.961547    1.961547    1.961547   -0.000000    0.000000    0.000000
    0.293369    2.210624    2.210624    2.210624   -0.000000    0.000000    0.000000
    0.314324    2.481319    2.481319    2.481319   -0.000000    0.000000    0.000000
    0.335279    2.774405    2.774405    2.774405   -0.000000    0.000000    0.000000
    0.356234    3.090512    3.090512    3.090512   -0.000000    0.000000    0.000000
    0.377189    3.430162    3.430162    3.430162   -0.000000    0.000000    0.000000
    0.398144    3.793789    3.793789    3.793789   -0.000000    0.000000    0.000000
    0.419098    4.181753    4.181753    4.181753   -0.000000   -0.000000    0.000000
    0.440053    4.594362    4.594362    4.594362   -0.000000   -0.000000    0.000000
    0.461008    5.031871    5.031871    5.031871   -0.000000   -0.000000    0.000000
    0.481963    5.494500    5.494500    5.494500   -0.000000   -0.000000    0.000000
    0.502918    5.982431    5.982431    5.982431   -0.000000   -0.000000    0.000000
    0.523873    6.495821    6.495821    6.495821   -0.000000    0.000000    0.000000
    0.544828    7.034799    7.034799    7.034799   -0.000000    0.000000    0.000000
    0.565783    7.599474    7.599474    7.599474   -0.000000    0.000000    0.000000
    0.586738    8.189934    8.189934    8.189934   -0.000000    0.000000    0.000000
    0.607693    8.806250    8.806250    8.806250   -0.000000    0.000000    0.000000
    0.628648    9.448477    9.448477    9.448477   -0.000000    0.000000   -0.000000
    0.649603   10.116654   10.116654   10.116654   -0.000000    0.000000   -0.000000
    0.670557   10.810808   10.810808   10.810808   -0.000000    0.000000   -0.000000
    0.691512   11.530951   11.530951   11.530951   -0.000000    0.000000   -0.000000
    0.712467   12.277083   12.277083   12.277083   -0.000000    0.000000   -0.000000
    0.733422   13.049194   13.049194   13.049194   -0.000000    0.000000   -0.000000
    0.754377   13.847258   13.847258   13.847258   -0.000000    0.000000   -0.000000
    0.775332   14.671242   14.671242   14.671242   -0.000000    0.000000   -0.000000
    0.796287   15.521099   15.521099   15.521099   -0.000000    0.000000   -0.000000
    0.817242   16.396769   16.396769   16.396769   -0.000000    0.000000   -0.000000
    0.838197   17.298183   17.298183   17.298183   -0.000000    0.000000   -0.000000
    0.859152   18.225258   18.225258   18.225258   -0.000000    0.000000   -0.000000
    0.880107   19.177899   19.177899   19.177899   -0.000000    0.000000   -0.000000
    0.901062   20.155998   20.155998   20.155998   -0.000000    0.000000   -0.000000
    0.922017   21.159433   21.159433   21.159433   -0.000000    0.000000   -0.000000
    0.942971   22.188068   22.188068   22.188068   -0.000000   -0.000000   -0.000000
    0.963926   23.241752   23.241752   23.241752   -0.000000   -0.000000   -0.000000
    0.984881   24.320315   24.320315   24.320315   -0.000000   -0.000000   -0.000000
    1.005836   25.423573   25.423573   25.423573   -0.000000   -0.000000   -0.000000
    1.026791   26.551322   26.551322   26.551322   -0.000000   -0.000000   -0.000000
    1.047746   27.703335   27.703335   27.703335   -0.000000   -0.000000   -0.000000
    1.068701   28.879366   28.879366   28.879366   -0.000000   -0.000000   -0.000000
    1.089656   30.079142   30.079142   30.079142   -0.000000   -0.000000   -0.000000
    1.110611   31.302364   31.302364   31.302364   -0.000000   -0.000000   -0.000000
    1.131566   32.548704   32.548704   32.548704   -0.000000   -0.000000   -0.000000
    1.152521   33.817799   33.817799   33.817799   -0.000000    0.000000   -0.000000
    1.173476   35.109254   35.109254   35.109254   -0.000000    0.000000   -0.000000
    1.194431   36.422627   36.422627   36.422627   -0.000000    0.000000   -0.000000
    1.215385   37.757436   37.757436   37.757436   -0.000000    0.000000   -0.000000
    1.236340   39.113145   39.113145   39.113145   -0.000000    0.000000   -0.000000
    1.257295   40.489161   40.489161   40.489161   -0.000000    0.000000   -0.000000
    1.278250   41.884825   41.884825   41.884825   -0.000000    0.000000   -0.000000
    1.299205   43.299405   43.299405   43.299405   -0.000000    0.000000   -0.000000
    1.320160   44.732083   44.732083   44.732083   -0.000000    0.000000    0.000000
    1.341115   46.181945   46.181945   46.181945   -0.000000    0.000000    0.000000
    1.362070   47.647962   47.647962   47.647962   -0.000000    0.000000    0.000000
    1.383025   49.128978   49.128978   49.128978   -0.000000    0.000000    0.000000
    1.403980   50.623686   50.623686   50.623686   -0.000000    0.000000    0.000000
    1.424935   52.130601   52.130601   52.130601   -0.000000    0.000000    0.000000
    1.445890   53.648032   53.648032   53.648032   -0.000000    0.000000    0.000000
    1.466844   55.174044   55.174044   55.174044   -0.000000   -0.000000    0.000000
    1.487799   56.706409   56.706409   56.706409   -0.000000   -0.000000    0.000000
    1.508754   58.242550   58.242550   58.242550   -0.000000    0.000000    0.000000
    1.529709   59.779469   59.779469   59.779469   -0.000000    0.000000    0.000000
    1.550664   61.313648   61.313648   61.313648    0.000000    0.000000    0.000000
    1.571619   62.840929   62.840929   62.840929    0.000000    0.000000    0.000000
    1.592574   64.356345   64.356345   64.356345    0.000000    0.000000    0.000000
    1.613529   65.853903   65.853903   65.853903    0.000000    0.000000    0.000000
    1.634484   67.326308   67.326308   67.326308    0.000000    0.000000    0.000000
    1.655439   68.764600   68.764600   68.764600   -0.000000    0.000000    0.000000
    1.676394   70.157680   70.157680   70.157680   -0.000000   -0.000000    0.000000
    1.697349   71.491676   71.491676   71.491676   -0.000000   -0.000000    0.000000
    1.718304   72.749084   72.749084   72.749084   -0.000000   -0.000000    0.000000
    1.739258   73.907616   73.907616   73.907616   -0.000000   -0.000000    0.000000
    1.760213   74.938645   74.938645   74.938645   -0.000000   -0.000000    0.000000
    1.781168   75.805192   75.805192   75.805192   -0.000000   -0.000000    0.000000
    1.802123   76.459486   76.459486   76.459486   -0.000000   -0.000000    0.000000
    1.823078   76.840457   76.840457   76.840457   -0.000000   -0.000000    0.000000
    1.844033   76.872323   76.872323   76.872323   -0.000000   -0.000000    0.000000
    1.864988   76.466705   76.466705   76.466705   -0.000000    0.000000    0.000000
    1.885943   75.531714   75.531714   75.531714   -0.000000    0.000000    0.000000
    1.906898   73.990454   73.990454   73.990454   -0.000000    0.000000    0.000000
    1.927853   71.809502   71.809502   71.809502   -0.000000    0.000000    0.000000
    1.948808   69.038843   69.038843   69.038843   -0.000000    0.000000    0.000000
    1.969763   65.849256   65.849256   65.849256   -0.000000    0.000000    0.000000
    1.990718   62.512194   62.512194   62.512194   -0.000000    0.000000    0.000000
    2.011672   59.300056   59.300056   59.300056   -0.000000    0.000000    0.000000
    2.032627   56.389527   56.389527   56.389527   -0.000000    0.000000    0.000000
    2.053582   53.840681   53.840681   53.840681   -0.000000    0.000000    0.000000
    2.074537   51.633769   51.633769   51.633769   -0.000000    0.000000    0.000000
    2.095492   49.715559   49.715559   49.715559   -0.000000    0.000000    0.000000
    2.116447   48.030127   48.030127   48.030127   -0.000000    0.000000    0.000000
    2.137402   46.532285   46.532285   46.532285   -0.000000    0.000000    0.000000
    2.158357   45.189882   45.189882   45.189882   -0.000000    0.000000    0.000000
    2.179312   43.980821   43.980821   43.980821   -0.000000    0.000000    0.000000
    2.200267   42.888847   42.888847   42.888847   -0.000000    0.000000    0.000000
    2.221222   41.900677   41.900677   41.900677   -0.000000    0.000000   -0.000000
    2.242177   41.004941   41.004941   41.004941   -0.000000    0.000000   -0.000000
    2.263131   40.192071   40.192071   40.192071   -0.000000    0.000000   -0.000000
    2.284086   39.454271   39.454271   39.454271   -0.000000    0.000000   -0.000000
    2.305041   38.785314   38.785314   38.785314   -0.000000    0.000000   -0.000000
    2.325996   38.180243   38.180243   38.180243   -0.000000    0.000000   -0.000000
    2.346951   37.635078   37.635078   37.635078   -0.000000    0.000000   -0.000000
    2.367906   37.146560   37.146560   37.146560   -0.000000    0.000000   -0.000000
    2.388861   36.711949   36.711949   36.711949   -0.000000    0.000000   -0.000000
    2.409816   36.328853   36.328853   36.328853   -0.000000    0.000000   -0.000000
    2.430771   35.995087   35.995087   35.995087    0.000000   -0.000000   -0.000000
    2.451726   35.708553   35.708553   35.708553    0.000000   -0.000000   -0.000000
    2.472681   35.467131   35.467131   35.467131    0.000000   -0.000000   -0.000000
    2.493636   35.268598   35.268598   35.268598    0.000000   -0.000000   -0.000000
    2.514591   35.110590   35.110590   35.110590    0.000000   -0.000000   -0.000000
    2.535545   34.990618   34.990618   34.990618    0.000000   -0.000000   -0.000000
    2.556500   34.906193   34.906193   34.906193    0.000000   -0.000000   -0.000000
    2.577455   34.855128   34.855128   34.855128    0.000000   -0.000000   -0.000000
    2.598410   34.836015   34.836015   34.836015   -0.000000   -0.000000   -0.000000
    2.619365   34.848516   34.848516   34.848516   -0.000000   -0.000000   -0.000000
    2.640320   34.892924   34.892924   34.892924   -0.000000   -0.000000   -0.000000
    2.661275   34.969174   34.969174   34.969174   -0.000000   -0.000000   -0.000000
    2.682230   35.076230   35.076230   35.076230   -0.000000   -0.000000   -0.000000
    2.703185   35.212322   35.212322   35.212322   -0.000000   -0.000000   -0.000000
    2.724140   35.375629   35.375629   35.375629   -0.000000   -0.000000   -0.000000
    2.745095   35.564924   35.564924   35.564924   -0.000000   -0.000000   -0.000000
    2.766050   35.780059   35.780059   35.780059   -0.000000   -0.000000   -0.000000
    2.787005   36.022314   36.022314   36.022314   -0.000000    0.000000   -0.000000
    2.807959   36.294580   36.294580   36.294580   -0.000000    0.000000   -0.000000
    2.828914   36.600949   36.600949   36.600949   -0.000000    0.000000   -0.000000
    2.849869   36.944812   36.944812   36.944812   -0.000000    0.000000   -0.000000
    2.870824   37.323906   37.323906   37.323906   -0.000000    0.000000   -0.000000
    2.891779   37.721390   37.721390   37.721390   -0.000000    0.000000   -0.000000
    2.912734   38.097940   38.097940   38.097940   -0.000000    0.000000   -0.000000
    2.933689   38.400769   38.400769   38.400769   -0.000000    0.000000   -0.000000
    2.954644   38.597335   38.597335   38.597335   -0.000000   -0.000000   -0.000000
    2.975599   38.699791   38.699791   38.699791   -0.000000   -0.000000   -0.000000
    2.996554   38.746687   38.746687   38.746687   -0.000000    0.000000   -0.000000
    3.017509   38.770299   38.770299   38.770299   -0.000000    0.000000   -0.000000
    3.038464   38.784607   38.784607   38.784607   -0.000000    0.000000   -0.000000
    3.059418   38.789796   38.789796   38.789796   -0.000000    0.000000   -0.000000
    3.080373   38.779044   38.779044   38.779044   -0.000000    0.000000   -0.000000
    3.101328   38.742398   38.742398   38.742398   -0.000000    0.000000   -0.000000
    3.122283   38.668145   38.668145   38.668145   -0.000000    0.000000   -0.000000
    3.143238   38.542974   38.542974   38.542974   -0.000000   -0.000000   -0.000000
    3.164193   38.352121   38.352121   38.352121   -0.000000   -0.000000   -0.000000
    3.185148   38.080278   38.080278   38.080278   -0.000000   -0.000000   -0.000000
    3.206103   37.713027   37.713027   37.713027   -0.000000   -0.000000   -0.000000
    3.227058   37.239023   37.239023   37.239023   -0.000000   -0.000000   -0.000000
    3.248013   36.654697   36.654697   36.654697   -0.000000   -0.000000   -0.000000
    3.268968   35.970503   35.970503   35.970503   -0.000000   -0.000000   -0.000000
    3.289923   35.212739   35.212739   35.212739   -0.000000   -0.000000   -0.000000
    3.310878   34.415946   34.415946   34.415946   -0.000000   -0.000000   -0.000000
    3.331832   33.610748   33.610748   33.610748   -0.000000   -0.000000   -0.000000
    3.352787   32.817106   32.817106   32.817106   -0.000000    0.000000   -0.000000
    3.373742   32.044265   32.044265   32.044265   -0.000000    0.000000   -0.000000
    3.394697   31.291804   31.291804   31.291804   -0.000000    0.000000   -0.000000
    3.415652   30.549028   30.549028   30.549028   -0.000000    0.000000   -0.000000
    3.436607   29.793944   29.793944   29.793944   -0.000000    0.000000   -0.000000
    3.457562   28.995430   28.995430   28.995430   -0.000000    0.000000   -0.000000
    3.478517   28.124700   28.124700   28.124700   -0.000000    0.000000   -0.000000
    3.499472   27.177118   27.177118   27.177118   -0.000000    0.000000   -0.000000
    3.520427   26.187999   26.187999   26.187999   -0.000000    0.000000   -0.000000
    3.541382   25.220206   25.220206   25.220206   -0.000000    0.000000   -0.000000
    3.562337   24.331225   24.331225   24.331225   -0.000000    0.000000   -0.000000
    3.583292   23.552440   23.552440   23.552440   -0.000000    0.000000   -0.000000
    3.604246   22.891551   22.891551   22.891551   -0.000000    0.000000   -0.000000
    3.625201   22.343750   22.343750   22.343750   -0.000000    0.000000   -0.000000
    3.646156   21.900012   21.900012   21.900012   -0.000000    0.000000   -0.000000
    3.667111   21.550603   21.550603   21.550603   -0.000000   -0.000000   -0.000000
    3.688066   21.285625   21.285625   21.285625   -0.000000   -0.000000   -0.000000
    3.709021   21.094722   21.094722   21.094722   -0.000000   -0.000000   -0.000000
    3.729976   20.967629   20.967629   20.967629   -0.000000   -0.000000   -0.000000
    3.750931   20.896239   20.896239   20.896239   -0.000000   -0.000000   -0.000000
    3.771886   20.876631   20.876631   20.876631   -0.000000   -0.000000   -0.000000
    3.792841   20.908532   20.908532   20.908532   -0.000000   -0.000000   -0.000000
    3.813796   20.992069   20.992069   20.992069   -0.000000   -0.000000   -0.000000
    3.834751   21.124256   21.124256   21.124256   -0.000000   -0.000000   -0.000000
    3.855705   21.297784   21.297784   21.297784   -0.000000   -0.000000   -0.000000
    3.876660   21.503045   21.503045   21.503045   -0.000000   -0.000000   -0.000000
    3.897615   21.731415   21.731415   21.731415   -0.000000   -0.000000    0.000000
    3.918570   21.976098   21.976098   21.976098   -0.000000   -0.000000    0.000000
    3.939525   22.229567   22.229567   22.229567   -0.000000   -0.000000    0.000000
[...]
   16.386748    0.300255    0.300255    0.300255   -0.000000   -0.000000   -0.000000
   16.407703    0.302630    0.302630    0.302630   -0.000000   -0.000000   -0.000000
   16.428658    0.305008    0.305008    0.305008   -0.000000   -0.000000   -0.000000
   16.449613    0.307385    0.307385    0.307385   -0.000000   -0.000000   -0.000000
   16.470568    0.309759    0.309759    0.309759   -0.000000   -0.000000   -0.000000
   16.491523    0.312128    0.312128    0.312128   -0.000000   -0.000000   -0.000000
   16.512478    0.314493    0.314493    0.314493   -0.000000   -0.000000   -0.000000
   16.533433    0.316852    0.316852    0.316852   -0.000000   -0.000000   -0.000000
   16.554388    0.319206    0.319206    0.319206   -0.000000   -0.000000   -0.000000
   16.575343    0.321556    0.321556    0.321556   -0.000000   -0.000000   -0.000000
   16.596298    0.323899    0.323899    0.323899   -0.000000   -0.000000   -0.000000
   16.617252    0.326238    0.326238    0.326238   -0.000000   -0.000000   -0.000000
   16.638207    0.328570    0.328570    0.328570   -0.000000   -0.000000   -0.000000
   16.659162    0.330896    0.330896    0.330896   -0.000000   -0.000000   -0.000000
   16.680117    0.333216    0.333216    0.333216   -0.000000   -0.000000   -0.000000
   16.701072    0.335529    0.335529    0.335529   -0.000000   -0.000000   -0.000000
   16.722027    0.337833    0.337833    0.337833   -0.000000   -0.000000   -0.000000
   16.742982    0.340128    0.340128    0.340128   -0.000000   -0.000000   -0.000000
   16.763937    0.342412    0.342412    0.342412   -0.000000   -0.000000   -0.000000
   16.784892    0.344683    0.344683    0.344683   -0.000000   -0.000000   -0.000000
   16.805847    0.346936    0.346936    0.346936   -0.000000   -0.000000   -0.000000
   16.826802    0.349169    0.349169    0.349169   -0.000000   -0.000000   -0.000000
   16.847757    0.351379    0.351379    0.351379   -0.000000   -0.000000   -0.000000
   16.868711    0.353564    0.353564    0.353564   -0.000000   -0.000000   -0.000000
   16.889666    0.355722    0.355722    0.355722   -0.000000   -0.000000   -0.000000
   16.910621    0.357855    0.357855    0.357855   -0.000000   -0.000000   -0.000000
   16.931576    0.359963    0.359963    0.359963   -0.000000   -0.000000   -0.000000
   16.952531    0.362047    0.362047    0.362047   -0.000000   -0.000000   -0.000000
   16.973486    0.364109    0.364109    0.364109   -0.000000   -0.000000   -0.000000
   16.994441    0.366148    0.366148    0.366148   -0.000000   -0.000000   -0.000000
   17.015396    0.368166    0.368166    0.368166   -0.000000   -0.000000   -0.000000
   17.036351    0.370165    0.370165    0.370165   -0.000000   -0.000000   -0.000000
   17.057306    0.372144    0.372144    0.372144   -0.000000   -0.000000   -0.000000
   17.078261    0.374105    0.374105    0.374105   -0.000000   -0.000000   -0.000000
   17.099216    0.376049    0.376049    0.376049   -0.000000   -0.000000   -0.000000
   17.120171    0.377976    0.377976    0.377976   -0.000000   -0.000000   -0.000000
   17.141125    0.379886    0.379886    0.379886   -0.000000   -0.000000   -0.000000
   17.162080    0.381781    0.381781    0.381781   -0.000000   -0.000000   -0.000000
   17.183035    0.383661    0.383661    0.383661   -0.000000   -0.000000   -0.000000
   17.203990    0.385527    0.385527    0.385527   -0.000000   -0.000000   -0.000000
   17.224945    0.387378    0.387378    0.387378   -0.000000   -0.000000   -0.000000
   17.245900    0.389215    0.389215    0.389215   -0.000000   -0.000000   -0.000000
   17.266855    0.391039    0.391039    0.391039   -0.000000   -0.000000   -0.000000
   17.287810    0.392850    0.392850    0.392850   -0.000000   -0.000000   -0.000000
   17.308765    0.394648    0.394648    0.394648   -0.000000   -0.000000   -0.000000
   17.329720    0.396434    0.396434    0.396434   -0.000000   -0.000000   -0.000000
   17.350675    0.398208    0.398208    0.398208   -0.000000   -0.000000   -0.000000
   17.371630    0.399971    0.399971    0.399971   -0.000000   -0.000000   -0.000000
   17.392585    0.401721    0.401721    0.401721   -0.000000   -0.000000   -0.000000
   17.413539    0.403461    0.403461    0.403461   -0.000000   -0.000000   -0.000000
   17.434494    0.405189    0.405189    0.405189   -0.000000   -0.000000   -0.000000
   17.455449    0.406906    0.406906    0.406906   -0.000000   -0.000000   -0.000000
   17.476404    0.408613    0.408613    0.408613   -0.000000   -0.000000   -0.000000
   17.497359    0.410310    0.410310    0.410310   -0.000000   -0.000000   -0.000000
   17.518314    0.411996    0.411996    0.411996   -0.000000   -0.000000   -0.000000
   17.539269    0.413673    0.413673    0.413673   -0.000000   -0.000000   -0.000000
   17.560224    0.415339    0.415339    0.415339   -0.000000   -0.000000   -0.000000
   17.581179    0.416996    0.416996    0.416996   -0.000000   -0.000000   -0.000000
   17.602134    0.418643    0.418643    0.418643   -0.000000   -0.000000   -0.000000
   17.623089    0.420281    0.420281    0.420281   -0.000000   -0.000000   -0.000000
   17.644044    0.421909    0.421909    0.421909   -0.000000   -0.000000   -0.000000
   17.664998    0.423529    0.423529    0.423529   -0.000000   -0.000000   -0.000000
   17.685953    0.425140    0.425140    0.425140   -0.000000   -0.000000   -0.000000
   17.706908    0.426741    0.426741    0.426741   -0.000000   -0.000000   -0.000000
   17.727863    0.428334    0.428334    0.428334   -0.000000   -0.000000   -0.000000
   17.748818    0.429919    0.429919    0.429919   -0.000000   -0.000000   -0.000000
   17.769773    0.431495    0.431495    0.431495   -0.000000   -0.000000   -0.000000
   17.790728    0.433062    0.433062    0.433062   -0.000000   -0.000000   -0.000000
   17.811683    0.434622    0.434622    0.434622   -0.000000   -0.000000   -0.000000
   17.832638    0.436173    0.436173    0.436173   -0.000000   -0.000000   -0.000000
   17.853593    0.437716    0.437716    0.437716   -0.000000   -0.000000   -0.000000
   17.874548    0.439252    0.439252    0.439252   -0.000000   -0.000000   -0.000000
   17.895503    0.440779    0.440779    0.440779   -0.000000   -0.000000   -0.000000
   17.916458    0.442299    0.442299    0.442299   -0.000000   -0.000000   -0.000000
   17.937412    0.443811    0.443811    0.443811   -0.000000   -0.000000   -0.000000
   17.958367    0.445315    0.445315    0.445315   -0.000000   -0.000000   -0.000000
   17.979322    0.446812    0.446812    0.446812   -0.000000   -0.000000   -0.000000
   18.000277    0.448302    0.448302    0.448302   -0.000000   -0.000000   -0.000000
   18.021232    0.449784    0.449784    0.449784   -0.000000   -0.000000   -0.000000
   18.042187    0.451259    0.451259    0.451259   -0.000000   -0.000000   -0.000000
   18.063142    0.452727    0.452727    0.452727   -0.000000   -0.000000   -0.000000
   18.084097    0.454188    0.454188    0.454188   -0.000000   -0.000000   -0.000000
   18.105052    0.455641    0.455641    0.455641   -0.000000   -0.000000   -0.000000
   18.126007    0.457088    0.457088    0.457088   -0.000000   -0.000000   -0.000000
   18.146962    0.458528    0.458528    0.458528   -0.000000   -0.000000   -0.000000
   18.167917    0.459961    0.459961    0.459961   -0.000000   -0.000000   -0.000000
   18.188872    0.461387    0.461387    0.461387   -0.000000   -0.000000   -0.000000
   18.209826    0.462807    0.462807    0.462807   -0.000000   -0.000000   -0.000000
   18.230781    0.464220    0.464220    0.464220   -0.000000   -0.000000   -0.000000
   18.251736    0.465626    0.465626    0.465626   -0.000000   -0.000000   -0.000000
   18.272691    0.467026    0.467026    0.467026   -0.000000   -0.000000   -0.000000
   18.293646    0.468420    0.468420    0.468420   -0.000000   -0.000000   -0.000000
   18.314601    0.469807    0.469807    0.469807   -0.000000   -0.000000   -0.000000
   18.335556    0.471188    0.471188    0.471188   -0.000000   -0.000000   -0.000000
   18.356511    0.472562    0.472562    0.472562   -0.000000   -0.000000   -0.000000
   18.377466    0.473931    0.473931    0.473931   -0.000000   -0.000000   -0.000000
   18.398421    0.475293    0.475293    0.475293   -0.000000   -0.000000   -0.000000
   18.419376    0.476649    0.476649    0.476649   -0.000000   -0.000000   -0.000000
   18.440331    0.477999    0.477999    0.477999   -0.000000   -0.000000   -0.000000
   18.461285    0.479343    0.479343    0.479343   -0.000000   -0.000000   -0.000000
   18.482240    0.480681    0.480681    0.480681   -0.000000   -0.000000   -0.000000
   18.503195    0.482013    0.482013    0.482013   -0.000000   -0.000000   -0.000000
   18.524150    0.483339    0.483339    0.483339   -0.000000   -0.000000   -0.000000
   18.545105    0.484660    0.484660    0.484660   -0.000000   -0.000000   -0.000000
   18.566060    0.485974    0.485974    0.485974   -0.000000   -0.000000   -0.000000
   18.587015    0.487283    0.487283    0.487283   -0.000000   -0.000000   -0.000000
   18.607970    0.488587    0.488587    0.488587   -0.000000   -0.000000   -0.000000
   18.628925    0.489884    0.489884    0.489884   -0.000000   -0.000000   -0.000000
   18.649880    0.491176    0.491176    0.491176   -0.000000   -0.000000   -0.000000
   18.670835    0.492463    0.492463    0.492463   -0.000000   -0.000000   -0.000000
   18.691790    0.493744    0.493744    0.493744   -0.000000   -0.000000   -0.000000
   18.712745    0.495020    0.495020    0.495020   -0.000000   -0.000000   -0.000000
   18.733699    0.496290    0.496290    0.496290   -0.000000   -0.000000   -0.000000
   18.754654    0.497554    0.497554    0.497554   -0.000000   -0.000000   -0.000000
   18.775609    0.498814    0.498814    0.498814   -0.000000   -0.000000   -0.000000
   18.796564    0.500068    0.500068    0.500068   -0.000000   -0.000000   -0.000000
   18.817519    0.501317    0.501317    0.501317   -0.000000   -0.000000   -0.000000
   18.838474    0.502560    0.502560    0.502560   -0.000000   -0.000000   -0.000000
   18.859429    0.503799    0.503799    0.503799   -0.000000   -0.000000   -0.000000
   18.880384    0.505032    0.505032    0.505032   -0.000000   -0.000000   -0.000000
   18.901339    0.506260    0.506260    0.506260   -0.000000   -0.000000   -0.000000
   18.922294    0.507484    0.507484    0.507484   -0.000000   -0.000000   -0.000000
   18.943249    0.508702    0.508702    0.508702   -0.000000   -0.000000   -0.000000
   18.964204    0.509915    0.509915    0.509915   -0.000000   -0.000000   -0.000000
   18.985159    0.511123    0.511123    0.511123   -0.000000   -0.000000   -0.000000
   19.006113    0.512326    0.512326    0.512326   -0.000000   -0.000000   -0.000000
   19.027068    0.513524    0.513524    0.513524   -0.000000   -0.000000   -0.000000
   19.048023    0.514718    0.514718    0.514718   -0.000000   -0.000000   -0.000000
   19.068978    0.515906    0.515906    0.515906   -0.000000   -0.000000   -0.000000
   19.089933    0.517090    0.517090    0.517090   -0.000000   -0.000000   -0.000000
   19.110888    0.518269    0.518269    0.518269   -0.000000   -0.000000   -0.000000
   19.131843    0.519443    0.519443    0.519443   -0.000000   -0.000000   -0.000000
   19.152798    0.520612    0.520612    0.520612   -0.000000   -0.000000   -0.000000
   19.173753    0.521777    0.521777    0.521777   -0.000000   -0.000000   -0.000000
   19.194708    0.522937    0.522937    0.522937   -0.000000   -0.000000   -0.000000
   19.215663    0.524093    0.524093    0.524093   -0.000000   -0.000000   -0.000000
   19.236618    0.525244    0.525244    0.525244   -0.000000   -0.000000   -0.000000
   19.257572    0.526390    0.526390    0.526390   -0.000000   -0.000000   -0.000000
   19.278527    0.527532    0.527532    0.527532   -0.000000   -0.000000   -0.000000
   19.299482    0.528670    0.528670    0.528670   -0.000000   -0.000000   -0.000000
   19.320437    0.529802    0.529802    0.529802   -0.000000   -0.000000   -0.000000
   19.341392    0.530931    0.530931    0.530931   -0.000000   -0.000000   -0.000000
   19.362347    0.532055    0.532055    0.532055   -0.000000   -0.000000   -0.000000
   19.383302    0.533175    0.533175    0.533175   -0.000000   -0.000000   -0.000000
   19.404257    0.534290    0.534290    0.534290   -0.000000   -0.000000   -0.000000
   19.425212    0.535401    0.535401    0.535401   -0.000000   -0.000000   -0.000000
   19.446167    0.536507    0.536507    0.536507   -0.000000   -0.000000   -0.000000
   19.467122    0.537610    0.537610    0.537610   -0.000000   -0.000000   -0.000000
   19.488077    0.538708    0.538708    0.538708   -0.000000   -0.000000   -0.000000
   19.509032    0.539802    0.539802    0.539802   -0.000000   -0.000000   -0.000000
   19.529986    0.540891    0.540891    0.540891   -0.000000   -0.000000   -0.000000
   19.550941    0.541977    0.541977    0.541977   -0.000000   -0.000000   -0.000000
   19.571896    0.543058    0.543058    0.543058   -0.000000   -0.000000   -0.000000
   19.592851    0.544135    0.544135    0.544135   -0.000000   -0.000000   -0.000000
   19.613806    0.545208    0.545208    0.545208   -0.000000   -0.000000   -0.000000
   19.634761    0.546277    0.546277    0.546277   -0.000000   -0.000000   -0.000000
   19.655716    0.547342    0.547342    0.547342   -0.000000   -0.000000   -0.000000
   19.676671    0.548403    0.548403    0.548403   -0.000000   -0.000000   -0.000000
   19.697626    0.549460    0.549460    0.549460   -0.000000   -0.000000   -0.000000
   19.718581    0.550513    0.550513    0.550513   -0.000000   -0.000000   -0.000000
   19.739536    0.551562    0.551562    0.551562   -0.000000   -0.000000   -0.000000
   19.760491    0.552607    0.552607    0.552607   -0.000000   -0.000000   -0.000000
   19.781446    0.553648    0.553648    0.553648   -0.000000   -0.000000   -0.000000
   19.802400    0.554685    0.554685    0.554685   -0.000000   -0.000000   -0.000000
   19.823355    0.555719    0.555719    0.555719   -0.000000   -0.000000   -0.000000
   19.844310    0.556748    0.556748    0.556748   -0.000000   -0.000000   -0.000000
   19.865265    0.557774    0.557774    0.557774   -0.000000   -0.000000   -0.000000
   19.886220    0.558796    0.558796    0.558796   -0.000000   -0.000000   -0.000000
   19.907175    0.559814    0.559814    0.559814   -0.000000   -0.000000   -0.000000
   19.928130    0.560828    0.560828    0.560828   -0.000000   -0.000000   -0.000000
   19.949085    0.561838    0.561838    0.561838   -0.000000   -0.000000   -0.000000
   19.970040    0.562845    0.562845    0.562845   -0.000000   -0.000000   -0.000000
   19.990995    0.563848    0.563848    0.563848   -0.000000   -0.000000   -0.000000
   20.011950    0.564848    0.564848    0.564848   -0.000000   -0.000000   -0.000000
   20.032905    0.565844    0.565844    0.565844   -0.000000   -0.000000   -0.000000
   20.053859    0.566836    0.566836    0.566836   -0.000000   -0.000000   -0.000000
   20.074814    0.567824    0.567824    0.567824   -0.000000   -0.000000   -0.000000
   20.095769    0.568809    0.568809    0.568809   -0.000000   -0.000000   -0.000000
   20.116724    0.569790    0.569790    0.569790   -0.000000   -0.000000   -0.000000
   20.137679    0.570768    0.570768    0.570768   -0.000000   -0.000000   -0.000000
   20.158634    0.571742    0.571742    0.571742   -0.000000   -0.000000   -0.000000
   20.179589    0.572713    0.572713    0.572713   -0.000000   -0.000000   -0.000000
   20.200544    0.573680    0.573680    0.573680   -0.000000   -0.000000   -0.000000
   20.221499    0.574644    0.574644    0.574644   -0.000000   -0.000000   -0.000000
   20.242454    0.575604    0.575604    0.575604   -0.000000   -0.000000   -0.000000
   20.263409    0.576561    0.576561    0.576561   -0.000000   -0.000000   -0.000000
   20.284364    0.577514    0.577514    0.577514   -0.000000   -0.000000   -0.000000
   20.305319    0.578464    0.578464    0.578464   -0.000000   -0.000000   -0.000000
   20.326273    0.579411    0.579411    0.579411   -0.000000   -0.000000   -0.000000
   20.347228    0.580354    0.580354    0.580354   -0.000000   -0.000000   -0.000000
   20.368183    0.581294    0.581294    0.581294   -0.000000   -0.000000   -0.000000
   20.389138    0.582231    0.582231    0.582231   -0.000000   -0.000000   -0.000000
   20.410093    0.583164    0.583164    0.583164   -0.000000   -0.000000   -0.000000
   20.431048    0.584094    0.584094    0.584094   -0.000000   -0.000000   -0.000000
   20.452003    0.585020    0.585020    0.585020   -0.000000   -0.000000   -0.000000
   20.472958    0.585943    0.585943    0.585943   -0.000000   -0.000000   -0.000000
   20.493913    0.586864    0.586864    0.586864   -0.000000   -0.000000   -0.000000
   20.514868    0.587780    0.587780    0.587780   -0.000000   -0.000000   -0.000000
   20.535823    0.588694    0.588694    0.588694   -0.000000   -0.000000   -0.000000
   20.556778    0.589604    0.589604    0.589604   -0.000000   -0.000000   -0.000000
   20.577733    0.590512    0.590512    0.590512   -0.000000   -0.000000   -0.000000
   20.598687    0.591416    0.591416    0.591416   -0.000000   -0.000000   -0.000000
   20.619642    0.592316    0.592316    0.592316   -0.000000   -0.000000   -0.000000
   20.640597    0.593214    0.593214    0.593214   -0.000000   -0.000000   -0.000000
   20.661552    0.594109    0.594109    0.594109   -0.000000   -0.000000   -0.000000
   20.682507    0.595000    0.595000    0.595000   -0.000000   -0.000000   -0.000000
   20.703462    0.595889    0.595889    0.595889   -0.000000   -0.000000   -0.000000
   20.724417    0.596774    0.596774    0.596774   -0.000000   -0.000000   -0.000000
   20.745372    0.597657    0.597657    0.597657   -0.000000   -0.000000   -0.000000
   20.766327    0.598536    0.598536    0.598536   -0.000000   -0.000000   -0.000000
   20.787282    0.599412    0.599412    0.599412   -0.000000   -0.000000   -0.000000
   20.808237    0.600285    0.600285    0.600285   -0.000000   -0.000000   -0.000000
   20.829192    0.601155    0.601155    0.601155   -0.000000   -0.000000   -0.000000
   20.850146    0.602023    0.602023    0.602023   -0.000000   -0.000000   -0.000000
   20.871101    0.602887    0.602887    0.602887   -0.000000   -0.000000   -0.000000
   20.892056    0.603748    0.603748    0.603748   -0.000000   -0.000000   -0.000000
   20.913011    0.604607    0.604607    0.604607   -0.000000   -0.000000   -0.000000
   20.933966    0.605462    0.605462    0.605462   -0.000000   -0.000000   -0.000000
 
 The outermost node in the dielectric function lies at epsilon=  17.9


--------------------------------------------------------------------------------------------------------


    OPTICS:  cpu time      0.1947: real time      0.2078
    4ORBIT:  cpu time      0.0000: real time      0.0000
 BZINTS: Fermi energy:    2.338346;   32.000000 electrons
         Band energy:-0.897189E+02;  BLOECHL correction:    0.000000

 total amount of memory used by VASP MPI-rank0    47897. kBytes
=======================================================================

   base      :      30000. kBytes
   nonl-proj :      10934. kBytes
   fftplans  :       1270. kBytes
   grid      :       3203. kBytes
   one-center:         64. kBytes
   wavefun   :       2426. kBytes
 
  
  
 General timing and accounting informations for this job:
 ========================================================
  
                  Total CPU time used (sec):        4.715
                            User time (sec):        2.954
                          System time (sec):        1.761
                         Elapsed time (sec):        5.575
  
                   Maximum memory used (kb):      145380.
                   Average memory used (kb):          N/A
  
                          Minor page faults:        14280
                          Major page faults:           72
                 Voluntary context switches:         2088
