<?xml version="1.0" encoding="ISO-8859-1"?>
<modeling>
 <generator>
  <i name="program" type="string">vasp </i>
  <i name="version" type="string">6.4.3  </i>
  <i name="subversion" type="string">19Mar24 (build Aug 29 2024 15:27:20) complex                          parallel </i>
  <i name="platform" type="string">LinuxIFC </i>
  <i name="date" type="string">2025 03 19 </i>
  <i name="time" type="string">10:33:54 </i>
 </generator>
 <incar>
  <i type="string" name="SYSTEM">GaAs</i>
  <i type="string" name="PREC">Normal</i>
  <i type="int" name="IBRION">     2</i>
  <i name="ENCUT">    500.00000000</i>
  <i type="int" name="ISMEAR">    -5</i>
  <i name="SIGMA">      0.10000000</i>
  <i type="logical" name="LOPTICS"> T  </i>
 </incar>
 <primitive_cell>
  <structure name="primitive_cell" >
   <crystal>
    <varray name="basis" >
     <v>       2.87867331      -2.87867331       0.00000000 </v>
     <v>       2.87867331       0.00000000       2.87867331 </v>
     <v>       0.00000000      -2.87867331       2.87867331 </v>
    </varray>
    <i name="volume">     47.70974991 </i>
    <varray name="rec_basis" >
     <v>       0.17369112      -0.17369112      -0.17369112 </v>
     <v>       0.17369112       0.17369112       0.17369112 </v>
     <v>      -0.17369112      -0.17369112       0.17369112 </v>
    </varray>
   </crystal>
   <varray name="positions" >
    <v>       0.00000000       0.00000000       0.00000000 </v>
    <v>       0.75000000       0.75000000       0.75000000 </v>
   </varray>
  </structure>
  <varray name="primitive_index" >
   <v type="int" >        1 </v>
   <v type="int" >        5 </v>
  </varray>
 </primitive_cell>
 <kpoints>
  <generation param="Gamma">
   <v type="int" name="divisions">       5        5        5 </v>
   <v name="usershift">      0.00000000       0.00000000       0.00000000 </v>
   <v name="genvec1">      0.20000000       0.00000000       0.00000000 </v>
   <v name="genvec2">      0.00000000       0.20000000       0.00000000 </v>
   <v name="genvec3">      0.00000000       0.00000000       0.20000000 </v>
   <v name="shift">      0.00000000       0.00000000       0.00000000 </v>
  </generation>
  <varray name="kpointlist" >
   <v>       0.00000000       0.00000000       0.00000000 </v>
   <v>       0.20000000       0.00000000       0.00000000 </v>
   <v>       0.40000000       0.00000000       0.00000000 </v>
   <v>       0.20000000       0.20000000       0.00000000 </v>
   <v>       0.40000000       0.20000000       0.00000000 </v>
   <v>       0.40000000       0.40000000       0.00000000 </v>
   <v>       0.20000000       0.20000000       0.20000000 </v>
   <v>       0.40000000       0.20000000       0.20000000 </v>
   <v>       0.40000000       0.40000000       0.20000000 </v>
   <v>       0.40000000       0.40000000       0.40000000 </v>
  </varray>
  <varray name="weights" >
   <v>       0.00800000 </v>
   <v>       0.04800000 </v>
   <v>       0.04800000 </v>
   <v>       0.09600000 </v>
   <v>       0.19200000 </v>
   <v>       0.09600000 </v>
   <v>       0.06400000 </v>
   <v>       0.19200000 </v>
   <v>       0.19200000 </v>
   <v>       0.06400000 </v>
  </varray>
  <varray name="tetrahedronlist"  type="int" >
   <v type="int" >       12        7        8        8        9 </v>
   <v type="int" >       18        8        8        9        9 </v>
   <v type="int" >       24        8        9        9       10 </v>
   <v type="int" >       12        8        9        9        9 </v>
   <v type="int" >       24        9        9        9       10 </v>
   <v type="int" >       18        9        9       10       10 </v>
   <v type="int" >       24        4        5        7        8 </v>
   <v type="int" >       12        5        7        8        8 </v>
   <v type="int" >       24        5        8        8        9 </v>
   <v type="int" >       24        4        5        5        8 </v>
   <v type="int" >       24        5        5        6        8 </v>
   <v type="int" >       12        5        6        8        9 </v>
   <v type="int" >       12        9       10       10       10 </v>
   <v type="int" >       12        8        8        9       10 </v>
   <v type="int" >       12        8        9       10       10 </v>
   <v type="int" >       12        5        5        8        9 </v>
   <v type="int" >       12        5        8        9        9 </v>
   <v type="int" >       12        5        5        6        9 </v>
   <v type="int" >       12        5        6        6        9 </v>
   <v type="int" >       12        5        6        9        9 </v>
   <v type="int" >       12        5        6        8        8 </v>
   <v type="int" >       12        5        6        6        8 </v>
   <v type="int" >       12        6        8        8        9 </v>
   <v type="int" >       12        6        8        9        9 </v>
   <v type="int" >       12        6        6        8        9 </v>
   <v type="int" >       12        7        8        9       10 </v>
   <v type="int" >       12        4        5        8        9 </v>
   <v type="int" >       12        4        7        8        9 </v>
   <v type="int" >       12        4        5        6        9 </v>
   <v type="int" >       12        5        6        7        8 </v>
   <v type="int" >       12        4        5        6        7 </v>
   <v type="int" >       12        6        7        8        9 </v>
   <v type="int" >       12        2        4        7        8 </v>
   <v type="int" >       12        2        4        5        8 </v>
   <v type="int" >       12        2        3        5        8 </v>
   <v type="int" >       12        4        4        5        7 </v>
   <v type="int" >       12        2        4        4        5 </v>
   <v type="int" >       12        2        3        4        5 </v>
   <v type="int" >       12        3        4        5        5 </v>
   <v type="int" >       12        2        3        4        7 </v>
   <v type="int" >       12        3        4        5        7 </v>
   <v type="int" >       12        3        5        7        8 </v>
   <v type="int" >        6       10       10       10       10 </v>
   <v type="int" >       12        6        6        9        9 </v>
   <v type="int" >       12        6        9        9        9 </v>
   <v type="int" >       12        6        6        6        9 </v>
   <v type="int" >       12        3        5        8        8 </v>
   <v type="int" >       12        3        5        5        8 </v>
   <v type="int" >       12        3        3        5        8 </v>
   <v type="int" >       12        5        5        5        8 </v>
   <v type="int" >       12        3        5        5        5 </v>
   <v type="int" >        6        3        3        5        5 </v>
   <v type="int" >        6        5        5        8        8 </v>
   <v type="int" >       12        2        4        4        7 </v>
   <v type="int" >       12        2        2        4        4 </v>
   <v type="int" >       12        1        2        2        4 </v>
   <v type="int" >       12        1        2        4        7 </v>
  </varray>
  <i name="volumeweight">      0.00133333 </i>
 </kpoints>
 <parameters>
  <separator name="general" >
   <i type="string" name="SYSTEM">GaAs</i>
   <i type="logical" name="LCOMPAT"> F  </i>
  </separator>
  <separator name="electronic" >
   <i type="string" name="PREC">normal</i>
   <i name="ENMAX">    500.00000000</i>
   <i name="ENAUG">    462.75800000</i>
   <i name="EDIFF">      0.00010000</i>
   <i type="int" name="IALGO">    38</i>
   <i type="int" name="IWAVPR">    10</i>
   <i type="int" name="NBANDS">    24</i>
   <i type="int" name="NBANDSLOW">    -1</i>
   <i type="int" name="NBANDSHIGH">    -1</i>
   <i name="NELECT">     32.00000000</i>
   <i type="int" name="TURBO">     0</i>
   <i type="int" name="IRESTART">     0</i>
   <i type="int" name="NREBOOT">     0</i>
   <i type="int" name="NMIN">     0</i>
   <i name="EREF">      0.00000000</i>
   <separator name="electronic smearing" >
    <i type="int" name="ISMEAR">    -5</i>
    <i name="SIGMA">      0.10000000</i>
    <i name="KSPACING">      0.50000000</i>
    <i type="logical" name="KGAMMA"> T  </i>
    <i type="logical" name="KBLOWUP"> T  </i>
   </separator>
   <separator name="electronic projectors" >
    <i type="logical" name="LREAL"> F  </i>
    <v name="ROPT">      0.00000000      0.00000000</v>
    <i type="int" name="LMAXPAW">  -100</i>
    <i type="int" name="LMAXMIX">     2</i>
    <i type="logical" name="NLSPLINE"> F  </i>
   </separator>
   <separator name="electronic startup" >
    <i type="int" name="ISTART">     1</i>
    <i type="int" name="ICHARG">     0</i>
    <i type="int" name="INIWAV">     1</i>
   </separator>
   <separator name="electronic spin" >
    <i type="int" name="ISPIN">     1</i>
    <i type="logical" name="LNONCOLLINEAR"> F  </i>
    <v name="MAGMOM">      1.00000000      1.00000000      1.00000000      1.00000000      1.00000000      1.00000000      1.00000000      1.00000000</v>
    <i name="NUPDOWN">     -1.00000000</i>
    <i type="logical" name="LSORBIT"> F  </i>
    <v name="SAXIS">      0.00000000      0.00000000      1.00000000</v>
    <i type="logical" name="LSPIRAL"> F  </i>
    <v name="QSPIRAL">      0.00000000      0.00000000      0.00000000</v>
    <i type="logical" name="LZEROZ"> F  </i>
   </separator>
   <separator name="electronic exchange-correlation" >
    <i type="logical" name="LASPH"> F  </i>
   </separator>
   <separator name="electronic convergence" >
    <i type="int" name="NELM">    60</i>
    <i type="int" name="NELMDL">     0</i>
    <i type="int" name="NELMIN">     2</i>
    <i name="ENINI">    500.00000000</i>
    <separator name="electronic convergence detail" >
     <i type="logical" name="LDIAG"> T  </i>
     <i type="logical" name="LSUBROT"> F  </i>
     <i name="WEIMIN">      0.00000000</i>
     <i name="EBREAK">      0.00000104</i>
     <i name="DEPER">      0.30000000</i>
     <i type="int" name="NRMM">     4</i>
     <i name="TIME">      0.40000000</i>
    </separator>
   </separator>
   <separator name="electronic mixer" >
    <i name="AMIX">      0.40000000</i>
    <i name="BMIX">      1.00000000</i>
    <i name="AMIN">      0.10000000</i>
    <i name="AMIX_MAG">      1.60000000</i>
    <i name="BMIX_MAG">      1.00000000</i>
    <separator name="electronic mixer details" >
     <i type="int" name="IMIX">     4</i>
     <i type="logical" name="MIXFIRST"> F  </i>
     <i type="int" name="MAXMIX">   -45</i>
     <i name="WC">    100.00000000</i>
     <i type="int" name="INIMIX">     1</i>
     <i type="int" name="MIXPRE">     1</i>
     <i type="int" name="MREMOVE">     5</i>
    </separator>
   </separator>
   <separator name="electronic dipolcorrection" >
    <i type="logical" name="LDIPOL"> F  </i>
    <i type="logical" name="LMONO"> F  </i>
    <i type="int" name="IDIPOL">     0</i>
    <i name="EPSILON">      1.00000000</i>
    <v name="DIPOL">   -100.00000000   -100.00000000   -100.00000000</v>
    <i name="EFIELD">      0.00000000</i>
    <i type="logical" name="LVACPOTAV"> F  </i>
   </separator>
  </separator>
  <separator name="grids" >
   <i type="int" name="NGX">    32</i>
   <i type="int" name="NGY">    32</i>
   <i type="int" name="NGZ">    32</i>
   <i type="int" name="NGXF">    64</i>
   <i type="int" name="NGYF">    64</i>
   <i type="int" name="NGZF">    64</i>
   <i type="logical" name="ADDGRID"> F  </i>
  </separator>
  <separator name="ionic" >
   <i type="int" name="NSW">     0</i>
   <i type="int" name="IBRION">    -1</i>
   <i type="int" name="MDALGO">     0</i>
   <i type="int" name="ISIF">     2</i>
   <i name="PSTRESS">      0.00000000</i>
   <i name="EDIFFG">      0.00100000</i>
   <i type="int" name="NFREE">     1</i>
   <i name="POTIM">      0.50000000</i>
   <i name="SMASS">     -3.00000000</i>
   <i name="SCALEE">      1.00000000</i>
  </separator>
  <separator name="ionic md" >
   <i name="TEBEG">      0.00010000</i>
   <i name="TEEND">      0.00010000</i>
   <i type="int" name="NBLOCK">     1</i>
   <i type="int" name="KBLOCK">     1</i>
   <i type="int" name="NPACO">   256</i>
   <i name="APACO">     10.00000000</i>
  </separator>
  <separator name="symmetry" >
   <i type="int" name="ISYM">     2</i>
   <i name="SYMPREC">      0.00001000</i>
  </separator>
  <separator name="dos" >
   <i type="int" name="LORBIT">     0</i>
   <v name="RWIGS">     -1.00000000     -1.00000000</v>
   <i type="int" name="NEDOS">   301</i>
   <i name="EMIN">     10.00000000</i>
   <i name="EMAX">    -10.00000000</i>
   <i name="EFERMI">      0.00000000</i>
  </separator>
  <separator name="writing" >
   <i type="int" name="NWRITE">     2</i>
   <i type="logical" name="LWAVE"> T  </i>
   <i type="logical" name="LDOWNSAMPLE"> F  </i>
   <i type="logical" name="LCHARG"> T  </i>
   <i type="logical" name="LPARD"> F  </i>
   <i type="logical" name="LVTOT"> F  </i>
   <i type="logical" name="LVHAR"> F  </i>
   <i type="logical" name="LELF"> F  </i>
   <i type="logical" name="LOPTICS"> T  </i>
   <v name="STM">      0.00000000      0.00000000      0.00000000      0.00000000      0.00000000      0.00000000      0.00000000</v>
  </separator>
  <separator name="performance" >
   <i type="int" name="NPAR">     8</i>
   <i type="int" name="NSIM">     4</i>
   <i type="int" name="NBLK">    -1</i>
   <i type="logical" name="LPLANE"> T  </i>
   <i type="logical" name="LSCALAPACK"> T  </i>
   <i type="logical" name="LSCAAWARE"> F  </i>
   <i type="logical" name="LSCALU"> F  </i>
   <i type="logical" name="LASYNC"> F  </i>
   <i type="logical" name="LORBITALREAL"> F  </i>
  </separator>
  <separator name="miscellaneous" >
   <i type="int" name="IDIOT">     3</i>
   <i type="int" name="PHON_NSTRUCT">    -1</i>
   <i type="logical" name="LMUSIC"> F  </i>
   <v name="POMASS">     74.92200000     69.72300000</v>
   <v name="DARWINR">      0.00000000      0.00000000</v>
   <v name="DARWINV">      1.00000000      1.00000000</v>
   <i type="logical" name="LCORR"> T  </i>
  </separator>
  <i type="logical" name="GGA_COMPAT"> T  </i>
  <i type="logical" name="LBERRY"> F  </i>
  <i type="int" name="ICORELEVEL">     0</i>
  <i type="logical" name="LDAU"> F  </i>
  <i type="int" name="I_CONSTRAINED_M">     0</i>
  <separator name="electronic exchange-correlation" >
   <i type="string" name="GGA    ">PE</i>
   <i type="string" name="XC_C">1</i>
   <i type="int" name="VOSKOWN">     0</i>
   <i type="logical" name="LHFCALC"> F  </i>
   <i type="string" name="PRECFOCK"></i>
   <i type="logical" name="LSYMGRAD"> F  </i>
   <i type="logical" name="LHFONE"> F  </i>
   <i type="logical" name="LRHFCALC"> F  </i>
   <i type="logical" name="LTHOMAS"> F  </i>
   <i type="logical" name="LMODELHF"> F  </i>
   <i type="logical" name="LFOCKACE"> F  </i>
   <i name="ENCUT4O">     -1.00000000</i>
   <i type="int" name="EXXOEP">     0</i>
   <i type="int" name="FOURORBIT">     0</i>
   <i name="AEXX">      0.00000000</i>
   <i name="HFALPHA">      0.00000000</i>
   <i name="MCALPHA">      0.00000000</i>
   <i name="ALDAX">      1.00000000</i>
   <i name="AGGAX">      1.00000000</i>
   <i name="AMGGAX">      1.00000000</i>
   <i name="ALDAC">      1.00000000</i>
   <i name="AGGAC">      1.00000000</i>
   <i name="AMGGAC">      1.00000000</i>
   <i type="int" name="NKREDX">     1</i>
   <i type="int" name="NKREDY">     1</i>
   <i type="int" name="NKREDZ">     1</i>
   <i type="logical" name="SHIFTRED"> F  </i>
   <i type="logical" name="ODDONLY"> F  </i>
   <i type="logical" name="EVENONLY"> F  </i>
   <i type="int" name="LMAXFOCK">     0</i>
   <i type="int" name="NMAXFOCKAE">     0</i>
   <i type="logical" name="LFOCKAEDFT"> F  </i>
   <i name="HFSCREEN">      0.00000000</i>
   <i name="HFSCREENC">      0.00000000</i>
   <i type="int" name="NBANDSGWLOW">     0</i>
  </separator>
  <separator name="vdW DFT" >
   <i type="logical" name="LUSE_VDW"> F  </i>
   <i type="int" name="IVDW_NL">    -1</i>
   <i type="logical" name="LSPIN_VDW"> F  </i>
   <i name="ZAB_VDW">     -0.84910000</i>
   <i name="GAMMA_VDW">      1.39626340</i>
   <i name="ALPHA_VDW">      0.00000000</i>
   <i name="PARAM1">      0.12340000</i>
   <i name="PARAM2">      1.00000000</i>
   <i name="BPARAM">      6.30000000</i>
   <i name="CPARAM">      0.00930000</i>
  </separator>
  <separator name="model GW" >
   <i type="int" name="MODEL_GW">     0</i>
   <i name="MODEL_EPS0">     14.31292497</i>
   <i name="MODEL_ALPHA">      1.00000000</i>
  </separator>
  <separator name="linear response parameters" >
   <i type="logical" name="LEPSILON"> F  </i>
   <i type="logical" name="LRPA"> F  </i>
   <i type="logical" name="LNABLA"> F  </i>
   <i type="logical" name="LVEL"> F  </i>
   <i name="CSHIFT">      0.10000000</i>
   <i name="OMEGAMAX">     -1.00000000</i>
   <i name="DEG_THRESHOLD">      0.00200000</i>
   <i name="RTIME">     -0.10000000</i>
   <i name="WPLASMAI">      0.00000000</i>
   <v name="DFIELD">      0.00000000      0.00000000      0.00000000</v>
   <v name="WPLASMA">      0.00000000      0.00000000      0.00000000      0.00000000      0.00000000      0.00000000      0.00000000      0.00000000      0.00000000</v>
  </separator>
  <separator name="orbital magnetization" >
   <i type="logical" name="NUCIND"> F  </i>
   <v name="MAGPOS">      0.00000000      0.00000000      0.00000000</v>
   <i type="logical" name="LNICSALL"> T  </i>
   <i type="logical" name="ORBITALMAG"> F  </i>
   <i type="logical" name="LMAGBLOCH"> F  </i>
   <i type="logical" name="LCHIMAG"> F  </i>
   <i type="logical" name="LGAUGE"> T  </i>
   <i type="int" name="MAGATOM">     0</i>
   <v name="MAGDIPOL">      0.00000000      0.00000000      0.00000000</v>
   <v name="AVECCONST">      0.00000000      0.00000000      0.00000000</v>
  </separator>
  <separator name="response functions" >
   <i type="logical" name="LALL_IN_ONE"> F  </i>
   <i type="int" name="IALL_IN_ONE">    -1</i>
   <i type="int" name="NBANDS_WAVE">    -1</i>
   <i type="logical" name="LFINITE_TEMPERATURE"> F  </i>
   <i type="logical" name="LADDER"> F  </i>
   <i type="logical" name="LRPAFORCE"> F  </i>
   <i type="logical" name="LFXC"> F  </i>
   <i type="logical" name="LHARTREE"> T  </i>
   <i type="int" name="IBSE">     0</i>
   <v type="int" name="KPOINT">    -1     0     0     0</v>
   <i type="logical" name="LTCTC"> F  </i>
   <i type="logical" name="LTCTE"> F  </i>
   <i type="logical" name="LTETE"> F  </i>
   <i type="logical" name="LTRIPLET"> F  </i>
   <i type="logical" name="LFXCEPS"> F  </i>
   <i type="logical" name="LFXHEG"> F  </i>
   <i type="int" name="NATURALO">     2</i>
   <i type="logical" name="LHOLEGF"> F  </i>
   <i type="logical" name="L2ORDER"> F  </i>
   <i type="logical" name="LDMP1"> F  </i>
   <i type="logical" name="LMP2LT"> F  </i>
   <i type="logical" name="LSMP2LT"> F  </i>
   <i type="logical" name="LGWLF"> F  </i>
   <i name="ENCUTGW">     -1.60000002</i>
   <i name="ENCUTGWSOFT">     -1.60000002</i>
   <i name="ENCUTLF">     -1.00000000</i>
   <i type="logical" name="ESF_SPLINES"> F  </i>
   <i name="ESF_CONV">      0.01000000</i>
   <i type="int" name="ESF_NINTER">    15</i>
   <i type="int" name="LMAXMP2">    -1</i>
   <i name="SCISSOR">      0.00000000</i>
   <i type="int" name="NOMEGA">     0</i>
   <i type="int" name="NOMEGAR">     0</i>
   <i type="int" name="NBANDSGW">    -1</i>
   <i type="int" name="NBANDSO">    -1</i>
   <i type="int" name="NBANDSV">    -1</i>
   <i type="int" name="NELMGW">     1</i>
   <i type="int" name="NELMHF">     1</i>
   <i type="int" name="DIM">     3</i>
   <i type="int" name="IESPILON">     4</i>
   <i type="int" name="ANTIRES">     0</i>
   <i name="OMEGAMAX">    -30.00000000</i>
   <i name="OMEGAMIN">    -30.00000000</i>
   <i name="OMEGATL">   -200.00000000</i>
   <i type="int" name="OMEGAGRID">     0</i>
   <i name="CSHIFT">     -0.10000000</i>
   <i type="logical" name="LSELFENERGY"> F  </i>
   <i type="logical" name="LSPECTRAL"> F  </i>
   <i type="logical" name="LSPECTRALGW"> F  </i>
   <i type="logical" name="LSINGLES"> F  </i>
   <i type="logical" name="LFERMIGW"> F  </i>
   <i type="logical" name="ODDONLYGW"> F  </i>
   <i type="logical" name="EVENONLYGW"> F  </i>
   <i type="int" name="NKREDLFX">     1</i>
   <i type="int" name="NKREDLFY">     1</i>
   <i type="int" name="NKREDLFZ">     1</i>
   <i type="int" name="MAXMEM">  2800</i>
   <i type="int" name="TELESCOPE">     0</i>
   <i type="int" name="NTAUPAR">    -1</i>
   <i type="int" name="NOMEGAPAR">    -1</i>
   <i name="DAMP_NEWTON">      0.80000001</i>
   <i name="LAMBDA">      1.00000000</i>
  </separator>
  <separator name="External order field" >
   <i name="OFIELD_KAPPA">      0.00000000</i>
   <v name="OFIELD_K">      0.00000000      0.00000000      0.00000000</v>
   <i name="OFIELD_Q6_NEAR">      0.00000000</i>
   <i name="OFIELD_Q6_FAR">      0.00000000</i>
   <i name="OFIELD_A">      0.00000000</i>
  </separator>
  <separator name="optional k-points parameters" >
   <i type="int" name="KPOINTS_OPT_MODE">     1</i>
   <i type="logical" name="LKPOINTS_OPT"> F  </i>
  </separator>
 </parameters>
 <atominfo>
  <atoms>       8 </atoms>
  <types>       2 </types>
  <array name="atoms" >
   <dimension dim="1">ion</dimension>
   <field type="string">element</field>
   <field type="int">atomtype</field>
   <set>
    <rc><c>As</c><c>   1</c></rc>
    <rc><c>As</c><c>   1</c></rc>
    <rc><c>As</c><c>   1</c></rc>
    <rc><c>As</c><c>   1</c></rc>
    <rc><c>Ga</c><c>   2</c></rc>
    <rc><c>Ga</c><c>   2</c></rc>
    <rc><c>Ga</c><c>   2</c></rc>
    <rc><c>Ga</c><c>   2</c></rc>
   </set>
  </array>
  <array name="atomtypes" >
   <dimension dim="1">type</dimension>
   <field type="int">atomspertype</field>
   <field type="string">element</field>
   <field>mass</field>
   <field>valence</field>
   <field type="string">pseudopotential</field>
   <set>
    <rc><c>   4</c><c>As</c><c>     74.92200000</c><c>      5.00000000</c><c>  PAW_PBE As 22Sep2009                  </c></rc>
    <rc><c>   4</c><c>Ga</c><c>     69.72300000</c><c>      3.00000000</c><c>  PAW_PBE Ga 08Apr2002                  </c></rc>
   </set>
  </array>
 </atominfo>
 <structure name="initialpos" >
  <crystal>
   <varray name="basis" >
    <v>       5.75734662       0.00000000       0.00000000 </v>
    <v>       0.00000000       5.75734662       0.00000000 </v>
    <v>       0.00000000       0.00000000       5.75734662 </v>
   </varray>
   <i name="volume">    190.83899964 </i>
   <varray name="rec_basis" >
    <v>       0.17369112       0.00000000       0.00000000 </v>
    <v>       0.00000000       0.17369112       0.00000000 </v>
    <v>       0.00000000       0.00000000       0.17369112 </v>
   </varray>
  </crystal>
  <varray name="positions" >
   <v>       0.00000000       0.00000000       0.00000000 </v>
   <v>       0.50000000       0.50000000       0.00000000 </v>
   <v>       0.50000000       0.00000000       0.50000000 </v>
   <v>       0.00000000       0.50000000       0.50000000 </v>
   <v>       0.25000000       0.25000000       0.25000000 </v>
   <v>       0.75000000       0.25000000       0.75000000 </v>
   <v>       0.75000000       0.75000000       0.25000000 </v>
   <v>       0.25000000       0.75000000       0.75000000 </v>
  </varray>
 </structure>
 <calculation>
  <scstep>
   <time name="dav">    0.30    0.31</time>
   <time name="total">    0.33    0.35</time>
   <energy>
    <i name="alphaZ">     71.70364780 </i>
    <i name="ewald">   -900.11833445 </i>
    <i name="hartreedc">    -78.84130228 </i>
    <i name="XCdc">   -121.44999147 </i>
    <i name="pawpsdc">   2458.54317793 </i>
    <i name="pawaedc">  -2279.25105688 </i>
    <i name="eentropy">      0.00000000 </i>
    <i name="bandstr">   -100.36121184 </i>
    <i name="atom">    916.21963040 </i>
    <i name="e_fr_energy">    -33.55544079 </i>
    <i name="e_wo_entrp">    -33.55544079 </i>
    <i name="e_0_energy">    -33.55544079 </i>
   </energy>
  </scstep>
  <scstep>
   <time name="dav">    0.28    0.29</time>
   <time name="total">    0.31    0.32</time>
   <energy>
    <i name="e_fr_energy">    -33.24240204 </i>
    <i name="e_wo_entrp">    -33.24240204 </i>
    <i name="e_0_energy">    -33.24240204 </i>
   </energy>
  </scstep>
  <scstep>
   <time name="dav">    0.28    0.30</time>
   <time name="total">    0.32    0.33</time>
   <energy>
    <i name="e_fr_energy">    -33.15159480 </i>
    <i name="e_wo_entrp">    -33.15159480 </i>
    <i name="e_0_energy">    -33.15159480 </i>
   </energy>
  </scstep>
  <scstep>
   <time name="dav">    0.28    0.29</time>
   <time name="total">    0.31    0.32</time>
   <energy>
    <i name="e_fr_energy">    -33.14236985 </i>
    <i name="e_wo_entrp">    -33.14236985 </i>
    <i name="e_0_energy">    -33.14236985 </i>
   </energy>
  </scstep>
  <scstep>
   <time name="dav">    0.30    0.32</time>
   <time name="total">    0.34    0.35</time>
   <energy>
    <i name="e_fr_energy">    -33.14178413 </i>
    <i name="e_wo_entrp">    -33.14178413 </i>
    <i name="e_0_energy">    -33.14178413 </i>
   </energy>
  </scstep>
  <scstep>
   <time name="dav">    0.22    0.23</time>
   <time name="total">    0.24    0.25</time>
   <energy>
    <i name="alphaZ">     71.70364780 </i>
    <i name="ewald">   -900.11833445 </i>
    <i name="hartreedc">    -88.53265221 </i>
    <i name="XCdc">   -121.73877641 </i>
    <i name="pawpsdc">   1840.83640198 </i>
    <i name="pawaedc">  -1661.79285680 </i>
    <i name="eentropy">      0.00000000 </i>
    <i name="bandstr">    -89.71890046 </i>
    <i name="atom">    916.21963040 </i>
    <i name="e_fr_energy">    -33.14184016 </i>
    <i name="e_wo_entrp">    -33.14184016 </i>
    <i name="e_0_energy">    -33.14184016 </i>
   </energy>
  </scstep>
  <structure>
   <crystal>
    <varray name="basis" >
     <v>       5.75734662       0.00000000       0.00000000 </v>
     <v>       0.00000000       5.75734662       0.00000000 </v>
     <v>       0.00000000       0.00000000       5.75734662 </v>
    </varray>
    <i name="volume">    190.83899964 </i>
    <varray name="rec_basis" >
     <v>       0.17369112       0.00000000       0.00000000 </v>
     <v>       0.00000000       0.17369112       0.00000000 </v>
     <v>       0.00000000       0.00000000       0.17369112 </v>
    </varray>
   </crystal>
   <varray name="positions" >
    <v>       0.00000000       0.00000000       0.00000000 </v>
    <v>       0.50000000       0.50000000       0.00000000 </v>
    <v>       0.50000000       0.00000000       0.50000000 </v>
    <v>       0.00000000       0.50000000       0.50000000 </v>
    <v>       0.25000000       0.25000000       0.25000000 </v>
    <v>       0.75000000       0.25000000       0.75000000 </v>
    <v>       0.75000000       0.75000000       0.25000000 </v>
    <v>       0.25000000       0.75000000       0.75000000 </v>
   </varray>
  </structure>
  <varray name="forces" >
   <v>      -0.00000000       0.00000000      -0.00000000 </v>
   <v>      -0.00000000      -0.00000000      -0.00000000 </v>
   <v>      -0.00000000      -0.00000000      -0.00000000 </v>
   <v>       0.00000000      -0.00000000       0.00000000 </v>
   <v>      -0.00000000       0.00000000       0.00000000 </v>
   <v>       0.00000000       0.00000000       0.00000000 </v>
   <v>       0.00000000      -0.00000000       0.00000000 </v>
   <v>       0.00000000       0.00000000      -0.00000000 </v>
  </varray>
  <varray name="stress" >
   <v>       1.75949359       0.00000000      -0.00000000 </v>
   <v>       0.00000000       1.75949359      -0.00000000 </v>
   <v>       0.00000000       0.00000000       1.75949359 </v>
  </varray>
  <energy>
   <i name="e_fr_energy">    -33.14184016 </i>
   <i name="e_wo_entrp">    -33.14184016 </i>
   <i name="e_0_energy">    -33.14184016 </i>
  </energy>
  <time name="totalsc">    2.58    2.71</time>
  <eigenvalues>
   <array>
    <dimension dim="1">band</dimension>
    <dimension dim="2">kpoint</dimension>
    <dimension dim="3">spin</dimension>
    <field>eigene</field>
    <field>occ</field>
    <set>
     <set comment="spin 1">
      <set comment="kpoint 1">
       <r>  -10.0179    1.0000 </r>
       <r>   -7.8674    1.0000 </r>
       <r>   -7.8674    1.0000 </r>
       <r>   -7.8674    1.0000 </r>
       <r>   -4.2326    1.0000 </r>
       <r>   -4.2326    1.0000 </r>
       <r>   -4.2326    1.0000 </r>
       <r>   -0.1688    1.0000 </r>
       <r>   -0.1688    1.0000 </r>
       <r>   -0.1688    1.0000 </r>
       <r>   -0.1688    1.0000 </r>
       <r>   -0.1688    1.0000 </r>
       <r>   -0.1688    1.0000 </r>
       <r>    2.3091    1.0000 </r>
       <r>    2.3091    1.0000 </r>
       <r>    2.3091    1.0000 </r>
       <r>    2.4776    0.0000 </r>
       <r>    3.8783    0.0000 </r>
       <r>    3.8783    0.0000 </r>
       <r>    3.8783    0.0000 </r>
       <r>    4.0056    0.0000 </r>
       <r>    4.0056    0.0000 </r>
       <r>    4.0056    0.0000 </r>
       <r>    6.0544    0.0000 </r>
      </set>
      <set comment="kpoint 2">
       <r>   -9.8834    1.0000 </r>
       <r>   -8.2191    1.0000 </r>
       <r>   -7.8553    1.0000 </r>
       <r>   -7.8553    1.0000 </r>
       <r>   -4.1764    1.0000 </r>
       <r>   -4.1764    1.0000 </r>
       <r>   -3.6951    1.0000 </r>
       <r>   -0.4817    1.0000 </r>
       <r>   -0.4817    1.0000 </r>
       <r>   -0.4070    1.0000 </r>
       <r>   -0.4070    1.0000 </r>
       <r>   -0.0154    1.0000 </r>
       <r>   -0.0154    1.0000 </r>
       <r>    0.6732    1.0000 </r>
       <r>    1.8945    1.0000 </r>
       <r>    1.8945    1.0000 </r>
       <r>    3.8183    0.0000 </r>
       <r>    4.0584    0.0000 </r>
       <r>    4.4524    0.0000 </r>
       <r>    4.5679    0.0000 </r>
       <r>    4.5679    0.0000 </r>
       <r>    4.7009    0.0000 </r>
       <r>    4.7009    0.0000 </r>
       <r>    5.5999    0.0000 </r>
      </set>
      <set comment="kpoint 3">
       <r>   -9.4918    1.0000 </r>
       <r>   -8.8906    1.0000 </r>
       <r>   -7.8354    1.0000 </r>
       <r>   -7.8354    1.0000 </r>
       <r>   -4.0757    1.0000 </r>
       <r>   -4.0757    1.0000 </r>
       <r>   -2.4732    1.0000 </r>
       <r>   -0.9687    1.0000 </r>
       <r>   -0.9114    1.0000 </r>
       <r>   -0.9114    1.0000 </r>
       <r>   -0.7215    1.0000 </r>
       <r>   -0.7215    1.0000 </r>
       <r>    0.4312    1.0000 </r>
       <r>    0.4312    1.0000 </r>
       <r>    1.1188    1.0000 </r>
       <r>    1.1188    1.0000 </r>
       <r>    4.0848    0.0000 </r>
       <r>    4.6318    0.0000 </r>
       <r>    5.1926    0.0000 </r>
       <r>    5.4194    0.0000 </r>
       <r>    6.2126    0.0000 </r>
       <r>    6.2126    0.0000 </r>
       <r>    6.2184    0.0000 </r>
       <r>    6.2184    0.0000 </r>
      </set>
      <set comment="kpoint 4">
       <r>   -9.7527    1.0000 </r>
       <r>   -8.1727    1.0000 </r>
       <r>   -8.1727    1.0000 </r>
       <r>   -7.8752    1.0000 </r>
       <r>   -4.1186    1.0000 </r>
       <r>   -3.7268    1.0000 </r>
       <r>   -3.7268    1.0000 </r>
       <r>   -1.0720    1.0000 </r>
       <r>   -0.4070    1.0000 </r>
       <r>   -0.4070    1.0000 </r>
       <r>   -0.2005    1.0000 </r>
       <r>   -0.1111    1.0000 </r>
       <r>   -0.1111    1.0000 </r>
       <r>    0.0843    1.0000 </r>
       <r>    1.4491    1.0000 </r>
       <r>    2.1508    1.0000 </r>
       <r>    4.1506    0.0000 </r>
       <r>    4.1838    0.0000 </r>
       <r>    4.5658    0.0000 </r>
       <r>    4.5658    0.0000 </r>
       <r>    5.0441    0.0000 </r>
       <r>    5.0441    0.0000 </r>
       <r>    6.0138    0.0000 </r>
       <r>    6.1828    0.0000 </r>
      </set>
      <set comment="kpoint 5">
       <r>   -9.3741    1.0000 </r>
       <r>   -8.7994    1.0000 </r>
       <r>   -8.0602    1.0000 </r>
       <r>   -7.9446    1.0000 </r>
       <r>   -3.9793    1.0000 </r>
       <r>   -3.8287    1.0000 </r>
       <r>   -2.7090    1.0000 </r>
       <r>   -1.4830    1.0000 </r>
       <r>   -1.3037    1.0000 </r>
       <r>   -1.0206    1.0000 </r>
       <r>   -0.1437    1.0000 </r>
       <r>   -0.0183    1.0000 </r>
       <r>    0.0450    1.0000 </r>
       <r>    0.5676    1.0000 </r>
       <r>    0.6516    1.0000 </r>
       <r>    1.4771    1.0000 </r>
       <r>    4.8370    0.0000 </r>
       <r>    4.9621    0.0000 </r>
       <r>    5.0761    0.0000 </r>
       <r>    5.5619    0.0000 </r>
       <r>    5.6343    0.0000 </r>
       <r>    6.0756    0.0000 </r>
       <r>    6.4228    0.0000 </r>
       <r>    7.4271    0.0000 </r>
      </set>
      <set comment="kpoint 6">
       <r>   -9.0388    1.0000 </r>
       <r>   -8.5509    1.0000 </r>
       <r>   -8.5509    1.0000 </r>
       <r>   -8.2239    1.0000 </r>
       <r>   -3.6824    1.0000 </r>
       <r>   -3.2106    1.0000 </r>
       <r>   -3.2106    1.0000 </r>
       <r>   -2.3809    1.0000 </r>
       <r>   -1.2581    1.0000 </r>
       <r>   -0.7607    1.0000 </r>
       <r>   -0.7607    1.0000 </r>
       <r>   -0.1459    1.0000 </r>
       <r>    0.7629    1.0000 </r>
       <r>    0.8234    1.0000 </r>
       <r>    0.8234    1.0000 </r>
       <r>    1.5899    1.0000 </r>
       <r>    4.7546    0.0000 </r>
       <r>    4.8729    0.0000 </r>
       <r>    5.4397    0.0000 </r>
       <r>    5.4397    0.0000 </r>
       <r>    6.6954    0.0000 </r>
       <r>    6.6954    0.0000 </r>
       <r>    7.1434    0.0000 </r>
       <r>    7.2158    0.0000 </r>
      </set>
      <set comment="kpoint 7">
       <r>   -9.6267    1.0000 </r>
       <r>   -8.1517    1.0000 </r>
       <r>   -8.1517    1.0000 </r>
       <r>   -8.1517    1.0000 </r>
       <r>   -3.7849    1.0000 </r>
       <r>   -3.7849    1.0000 </r>
       <r>   -3.7849    1.0000 </r>
       <r>   -0.9356    1.0000 </r>
       <r>   -0.7772    1.0000 </r>
       <r>   -0.7772    1.0000 </r>
       <r>   -0.7772    1.0000 </r>
       <r>    0.2242    1.0000 </r>
       <r>    0.2242    1.0000 </r>
       <r>    0.2242    1.0000 </r>
       <r>    1.8496    1.0000 </r>
       <r>    1.8496    1.0000 </r>
       <r>    3.7308    0.0000 </r>
       <r>    4.3383    0.0000 </r>
       <r>    4.3383    0.0000 </r>
       <r>    4.3383    0.0000 </r>
       <r>    6.1541    0.0000 </r>
       <r>    6.1541    0.0000 </r>
       <r>    6.1541    0.0000 </r>
       <r>    6.7088    0.0000 </r>
      </set>
      <set comment="kpoint 8">
       <r>   -9.2640    1.0000 </r>
       <r>   -8.7225    1.0000 </r>
       <r>   -8.1165    1.0000 </r>
       <r>   -8.1165    1.0000 </r>
       <r>   -3.8870    1.0000 </r>
       <r>   -3.8870    1.0000 </r>
       <r>   -3.0112    1.0000 </r>
       <r>   -2.0294    1.0000 </r>
       <r>   -0.9674    1.0000 </r>
       <r>   -0.9674    1.0000 </r>
       <r>    0.0411    1.0000 </r>
       <r>    0.2589    1.0000 </r>
       <r>    0.2589    1.0000 </r>
       <r>    0.6261    1.0000 </r>
       <r>    1.1556    1.0000 </r>
       <r>    1.2235    1.0000 </r>
       <r>    4.3536    0.0000 </r>
       <r>    4.6639    0.0000 </r>
       <r>    5.1397    0.0000 </r>
       <r>    5.1397    0.0000 </r>
       <r>    6.2571    0.0000 </r>
       <r>    6.2888    0.0000 </r>
       <r>    6.9848    0.0000 </r>
       <r>    6.9848    0.0000 </r>
      </set>
      <set comment="kpoint 9">
       <r>   -8.9553    1.0000 </r>
       <r>   -8.5225    1.0000 </r>
       <r>   -8.5225    1.0000 </r>
       <r>   -8.2860    1.0000 </r>
       <r>   -3.8570    1.0000 </r>
       <r>   -3.5329    1.0000 </r>
       <r>   -3.5329    1.0000 </r>
       <r>   -2.8779    1.0000 </r>
       <r>   -0.6827    1.0000 </r>
       <r>   -0.2412    1.0000 </r>
       <r>   -0.2412    1.0000 </r>
       <r>    0.5278    1.0000 </r>
       <r>    0.8466    1.0000 </r>
       <r>    0.8856    1.0000 </r>
       <r>    0.8856    1.0000 </r>
       <r>    1.5227    1.0000 </r>
       <r>    4.1419    0.0000 </r>
       <r>    4.6813    0.0000 </r>
       <r>    4.8483    0.0000 </r>
       <r>    4.8483    0.0000 </r>
       <r>    6.5291    0.0000 </r>
       <r>    6.5291    0.0000 </r>
       <r>    7.0214    0.0000 </r>
       <r>    7.0433    0.0000 </r>
      </set>
      <set comment="kpoint 10">
       <r>   -8.7362    1.0000 </r>
       <r>   -8.4743    1.0000 </r>
       <r>   -8.4743    1.0000 </r>
       <r>   -8.4743    1.0000 </r>
       <r>   -3.9258    1.0000 </r>
       <r>   -3.9258    1.0000 </r>
       <r>   -3.9258    1.0000 </r>
       <r>   -3.5690    1.0000 </r>
       <r>    0.5079    1.0000 </r>
       <r>    0.5079    1.0000 </r>
       <r>    0.5079    1.0000 </r>
       <r>    1.0654    1.0000 </r>
       <r>    1.0654    1.0000 </r>
       <r>    1.0654    1.0000 </r>
       <r>    1.3281    1.0000 </r>
       <r>    1.3281    1.0000 </r>
       <r>    3.2728    0.0000 </r>
       <r>    3.9965    0.0000 </r>
       <r>    3.9965    0.0000 </r>
       <r>    3.9965    0.0000 </r>
       <r>    6.6964    0.0000 </r>
       <r>    6.6964    0.0000 </r>
       <r>    6.6964    0.0000 </r>
       <r>    6.9761    0.0000 </r>
      </set>
     </set>
    </set>
   </array>
  </eigenvalues>
  <separator name="orbital magnetization" >
   <v name="MAGDIPOLOUT">      0.00000000      0.00000000      0.00000000</v>
  </separator>
  <dielectricfunction comment="density-density">
   <imag>
    <array>
     <dimension dim="1">gridpoints</dimension>
     <field>energy</field>
     <field>xx</field>
     <field>yy</field>
     <field>zz</field>
     <field>xy</field>
     <field>yz</field>
     <field>zx</field>
     <set>
      <r>     0.0000     0.0000     0.0000     0.0000     0.0000     0.0000     0.0000 </r>
      <r>     0.0210     0.1123     0.1123     0.1123    -0.0000     0.0000     0.0000 </r>
      <r>     0.0419     0.2256     0.2256     0.2256    -0.0000     0.0000     0.0000 </r>
      <r>     0.0629     0.3411     0.3411     0.3411    -0.0000     0.0000     0.0000 </r>
      <r>     0.0838     0.4599     0.4599     0.4599    -0.0000     0.0000     0.0000 </r>
      <r>     0.1048     0.5834     0.5834     0.5834    -0.0000     0.0000     0.0000 </r>
      <r>     0.1257     0.7132     0.7132     0.7132    -0.0000     0.0000     0.0000 </r>
      <r>     0.1467     0.8510     0.8510     0.8510    -0.0000     0.0000     0.0000 </r>
      <r>     0.1676     0.9988     0.9988     0.9988    -0.0000     0.0000     0.0000 </r>
      <r>     0.1886     1.1589     1.1589     1.1589    -0.0000     0.0000     0.0000 </r>
      <r>     0.2095     1.3334     1.3334     1.3334    -0.0000     0.0000     0.0000 </r>
      <r>     0.2305     1.5242     1.5242     1.5242    -0.0000     0.0000     0.0000 </r>
      <r>     0.2515     1.7331     1.7331     1.7331    -0.0000     0.0000     0.0000 </r>
      <r>     0.2724     1.9615     1.9615     1.9615    -0.0000     0.0000     0.0000 </r>
      <r>     0.2934     2.2106     2.2106     2.2106    -0.0000     0.0000     0.0000 </r>
      <r>     0.3143     2.4813     2.4813     2.4813    -0.0000     0.0000     0.0000 </r>
      <r>     0.3353     2.7744     2.7744     2.7744    -0.0000     0.0000     0.0000 </r>
      <r>     0.3562     3.0905     3.0905     3.0905    -0.0000     0.0000     0.0000 </r>
      <r>     0.3772     3.4302     3.4302     3.4302    -0.0000     0.0000     0.0000 </r>
      <r>     0.3981     3.7938     3.7938     3.7938    -0.0000     0.0000     0.0000 </r>
      <r>     0.4191     4.1818     4.1818     4.1818    -0.0000    -0.0000     0.0000 </r>
      <r>     0.4401     4.5944     4.5944     4.5944    -0.0000    -0.0000     0.0000 </r>
      <r>     0.4610     5.0319     5.0319     5.0319    -0.0000    -0.0000     0.0000 </r>
      <r>     0.4820     5.4945     5.4945     5.4945    -0.0000    -0.0000     0.0000 </r>
      <r>     0.5029     5.9824     5.9824     5.9824    -0.0000    -0.0000     0.0000 </r>
      <r>     0.5239     6.4958     6.4958     6.4958    -0.0000     0.0000     0.0000 </r>
      <r>     0.5448     7.0348     7.0348     7.0348    -0.0000     0.0000     0.0000 </r>
      <r>     0.5658     7.5995     7.5995     7.5995    -0.0000     0.0000     0.0000 </r>
      <r>     0.5867     8.1899     8.1899     8.1899    -0.0000     0.0000     0.0000 </r>
      <r>     0.6077     8.8063     8.8063     8.8063    -0.0000     0.0000     0.0000 </r>
      <r>     0.6286     9.4485     9.4485     9.4485    -0.0000     0.0000    -0.0000 </r>
      <r>     0.6496    10.1167    10.1167    10.1167    -0.0000     0.0000    -0.0000 </r>
      <r>     0.6706    10.8108    10.8108    10.8108    -0.0000     0.0000    -0.0000 </r>
      <r>     0.6915    11.5310    11.5310    11.5310    -0.0000     0.0000    -0.0000 </r>
      <r>     0.7125    12.2771    12.2771    12.2771    -0.0000     0.0000    -0.0000 </r>
      <r>     0.7334    13.0492    13.0492    13.0492    -0.0000     0.0000    -0.0000 </r>
      <r>     0.7544    13.8473    13.8473    13.8473    -0.0000     0.0000    -0.0000 </r>
      <r>     0.7753    14.6712    14.6712    14.6712    -0.0000     0.0000    -0.0000 </r>
      <r>     0.7963    15.5211    15.5211    15.5211    -0.0000     0.0000    -0.0000 </r>
      <r>     0.8172    16.3968    16.3968    16.3968    -0.0000     0.0000    -0.0000 </r>
      <r>     0.8382    17.2982    17.2982    17.2982    -0.0000     0.0000    -0.0000 </r>
      <r>     0.8592    18.2253    18.2253    18.2253    -0.0000     0.0000    -0.0000 </r>
      <r>     0.8801    19.1779    19.1779    19.1779    -0.0000     0.0000    -0.0000 </r>
      <r>     0.9011    20.1560    20.1560    20.1560    -0.0000     0.0000    -0.0000 </r>
      <r>     0.9220    21.1594    21.1594    21.1594    -0.0000     0.0000    -0.0000 </r>
      <r>     0.9430    22.1881    22.1881    22.1881    -0.0000    -0.0000    -0.0000 </r>
      <r>     0.9639    23.2418    23.2418    23.2418    -0.0000    -0.0000    -0.0000 </r>
      <r>     0.9849    24.3203    24.3203    24.3203    -0.0000    -0.0000    -0.0000 </r>
      <r>     1.0058    25.4236    25.4236    25.4236    -0.0000    -0.0000    -0.0000 </r>
      <r>     1.0268    26.5513    26.5513    26.5513    -0.0000    -0.0000    -0.0000 </r>
      <r>     1.0477    27.7033    27.7033    27.7033    -0.0000    -0.0000    -0.0000 </r>
      <r>     1.0687    28.8794    28.8794    28.8794    -0.0000    -0.0000    -0.0000 </r>
      <r>     1.0897    30.0791    30.0791    30.0791    -0.0000    -0.0000    -0.0000 </r>
      <r>     1.1106    31.3024    31.3024    31.3024    -0.0000    -0.0000    -0.0000 </r>
      <r>     1.1316    32.5487    32.5487    32.5487    -0.0000    -0.0000    -0.0000 </r>
      <r>     1.1525    33.8178    33.8178    33.8178    -0.0000     0.0000    -0.0000 </r>
      <r>     1.1735    35.1093    35.1093    35.1093    -0.0000     0.0000    -0.0000 </r>
      <r>     1.1944    36.4226    36.4226    36.4226    -0.0000     0.0000    -0.0000 </r>
      <r>     1.2154    37.7574    37.7574    37.7574    -0.0000     0.0000    -0.0000 </r>
      <r>     1.2363    39.1131    39.1131    39.1131    -0.0000     0.0000    -0.0000 </r>
      <r>     1.2573    40.4892    40.4892    40.4892    -0.0000     0.0000    -0.0000 </r>
      <r>     1.2783    41.8848    41.8848    41.8848    -0.0000     0.0000    -0.0000 </r>
      <r>     1.2992    43.2994    43.2994    43.2994    -0.0000     0.0000    -0.0000 </r>
      <r>     1.3202    44.7321    44.7321    44.7321    -0.0000     0.0000     0.0000 </r>
      <r>     1.3411    46.1819    46.1819    46.1819    -0.0000     0.0000     0.0000 </r>
      <r>     1.3621    47.6480    47.6480    47.6480    -0.0000     0.0000     0.0000 </r>
      <r>     1.3830    49.1290    49.1290    49.1290    -0.0000     0.0000     0.0000 </r>
      <r>     1.4040    50.6237    50.6237    50.6237    -0.0000     0.0000     0.0000 </r>
      <r>     1.4249    52.1306    52.1306    52.1306    -0.0000     0.0000     0.0000 </r>
      <r>     1.4459    53.6480    53.6480    53.6480    -0.0000     0.0000     0.0000 </r>
      <r>     1.4668    55.1740    55.1740    55.1740    -0.0000    -0.0000     0.0000 </r>
      <r>     1.4878    56.7064    56.7064    56.7064    -0.0000    -0.0000     0.0000 </r>
      <r>     1.5088    58.2425    58.2425    58.2425    -0.0000     0.0000     0.0000 </r>
      <r>     1.5297    59.7795    59.7795    59.7795    -0.0000     0.0000     0.0000 </r>
      <r>     1.5507    61.3136    61.3136    61.3136     0.0000     0.0000     0.0000 </r>
      <r>     1.5716    62.8409    62.8409    62.8409     0.0000     0.0000     0.0000 </r>
      <r>     1.5926    64.3563    64.3563    64.3563     0.0000     0.0000     0.0000 </r>
      <r>     1.6135    65.8539    65.8539    65.8539     0.0000     0.0000     0.0000 </r>
      <r>     1.6345    67.3263    67.3263    67.3263     0.0000     0.0000     0.0000 </r>
      <r>     1.6554    68.7646    68.7646    68.7646    -0.0000     0.0000     0.0000 </r>
      <r>     1.6764    70.1577    70.1577    70.1577    -0.0000    -0.0000     0.0000 </r>
      <r>     1.6973    71.4917    71.4917    71.4917    -0.0000    -0.0000     0.0000 </r>
      <r>     1.7183    72.7491    72.7491    72.7491    -0.0000    -0.0000     0.0000 </r>
      <r>     1.7393    73.9076    73.9076    73.9076    -0.0000    -0.0000     0.0000 </r>
      <r>     1.7602    74.9386    74.9386    74.9386    -0.0000    -0.0000     0.0000 </r>
      <r>     1.7812    75.8052    75.8052    75.8052    -0.0000    -0.0000     0.0000 </r>
      <r>     1.8021    76.4595    76.4595    76.4595    -0.0000    -0.0000     0.0000 </r>
      <r>     1.8231    76.8405    76.8405    76.8405    -0.0000    -0.0000     0.0000 </r>
      <r>     1.8440    76.8723    76.8723    76.8723    -0.0000    -0.0000     0.0000 </r>
      <r>     1.8650    76.4667    76.4667    76.4667    -0.0000     0.0000     0.0000 </r>
      <r>     1.8859    75.5317    75.5317    75.5317    -0.0000     0.0000     0.0000 </r>
      <r>     1.9069    73.9905    73.9905    73.9905    -0.0000     0.0000     0.0000 </r>
      <r>     1.9279    71.8095    71.8095    71.8095    -0.0000     0.0000     0.0000 </r>
      <r>     1.9488    69.0388    69.0388    69.0388    -0.0000     0.0000     0.0000 </r>
      <r>     1.9698    65.8493    65.8493    65.8493    -0.0000     0.0000     0.0000 </r>
      <r>     1.9907    62.5122    62.5122    62.5122    -0.0000     0.0000     0.0000 </r>
      <r>     2.0117    59.3001    59.3001    59.3001    -0.0000     0.0000     0.0000 </r>
      <r>     2.0326    56.3895    56.3895    56.3895    -0.0000     0.0000     0.0000 </r>
      <r>     2.0536    53.8407    53.8407    53.8407    -0.0000     0.0000     0.0000 </r>
      <r>     2.0745    51.6338    51.6338    51.6338    -0.0000     0.0000     0.0000 </r>
      <r>     2.0955    49.7156    49.7156    49.7156    -0.0000     0.0000     0.0000 </r>
      <r>     2.1164    48.0301    48.0301    48.0301    -0.0000     0.0000     0.0000 </r>
      <r>     2.1374    46.5323    46.5323    46.5323    -0.0000     0.0000     0.0000 </r>
      <r>     2.1584    45.1899    45.1899    45.1899    -0.0000     0.0000     0.0000 </r>
      <r>     2.1793    43.9808    43.9808    43.9808    -0.0000     0.0000     0.0000 </r>
      <r>     2.2003    42.8888    42.8888    42.8888    -0.0000     0.0000     0.0000 </r>
      <r>     2.2212    41.9007    41.9007    41.9007    -0.0000     0.0000    -0.0000 </r>
      <r>     2.2422    41.0049    41.0049    41.0049    -0.0000     0.0000    -0.0000 </r>
      <r>     2.2631    40.1921    40.1921    40.1921    -0.0000     0.0000    -0.0000 </r>
      <r>     2.2841    39.4543    39.4543    39.4543    -0.0000     0.0000    -0.0000 </r>
      <r>     2.3050    38.7853    38.7853    38.7853    -0.0000     0.0000    -0.0000 </r>
      <r>     2.3260    38.1802    38.1802    38.1802    -0.0000     0.0000    -0.0000 </r>
      <r>     2.3470    37.6351    37.6351    37.6351    -0.0000     0.0000    -0.0000 </r>
      <r>     2.3679    37.1466    37.1466    37.1466    -0.0000     0.0000    -0.0000 </r>
      <r>     2.3889    36.7119    36.7119    36.7119    -0.0000     0.0000    -0.0000 </r>
      <r>     2.4098    36.3289    36.3289    36.3289    -0.0000     0.0000    -0.0000 </r>
      <r>     2.4308    35.9951    35.9951    35.9951     0.0000    -0.0000    -0.0000 </r>
      <r>     2.4517    35.7086    35.7086    35.7086     0.0000    -0.0000    -0.0000 </r>
      <r>     2.4727    35.4671    35.4671    35.4671     0.0000    -0.0000    -0.0000 </r>
      <r>     2.4936    35.2686    35.2686    35.2686     0.0000    -0.0000    -0.0000 </r>
      <r>     2.5146    35.1106    35.1106    35.1106     0.0000    -0.0000    -0.0000 </r>
      <r>     2.5355    34.9906    34.9906    34.9906     0.0000    -0.0000    -0.0000 </r>
      <r>     2.5565    34.9062    34.9062    34.9062     0.0000    -0.0000    -0.0000 </r>
      <r>     2.5775    34.8551    34.8551    34.8551     0.0000    -0.0000    -0.0000 </r>
      <r>     2.5984    34.8360    34.8360    34.8360    -0.0000    -0.0000    -0.0000 </r>
      <r>     2.6194    34.8485    34.8485    34.8485    -0.0000    -0.0000    -0.0000 </r>
      <r>     2.6403    34.8929    34.8929    34.8929    -0.0000    -0.0000    -0.0000 </r>
      <r>     2.6613    34.9692    34.9692    34.9692    -0.0000    -0.0000    -0.0000 </r>
      <r>     2.6822    35.0762    35.0762    35.0762    -0.0000    -0.0000    -0.0000 </r>
      <r>     2.7032    35.2123    35.2123    35.2123    -0.0000    -0.0000    -0.0000 </r>
      <r>     2.7241    35.3756    35.3756    35.3756    -0.0000    -0.0000    -0.0000 </r>
      <r>     2.7451    35.5649    35.5649    35.5649    -0.0000    -0.0000    -0.0000 </r>
      <r>     2.7660    35.7801    35.7801    35.7801    -0.0000    -0.0000    -0.0000 </r>
      <r>     2.7870    36.0223    36.0223    36.0223    -0.0000     0.0000    -0.0000 </r>
      <r>     2.8080    36.2946    36.2946    36.2946    -0.0000     0.0000    -0.0000 </r>
      <r>     2.8289    36.6009    36.6009    36.6009    -0.0000     0.0000    -0.0000 </r>
      <r>     2.8499    36.9448    36.9448    36.9448    -0.0000     0.0000    -0.0000 </r>
      <r>     2.8708    37.3239    37.3239    37.3239    -0.0000     0.0000    -0.0000 </r>
      <r>     2.8918    37.7214    37.7214    37.7214    -0.0000     0.0000    -0.0000 </r>
      <r>     2.9127    38.0979    38.0979    38.0979    -0.0000     0.0000    -0.0000 </r>
      <r>     2.9337    38.4008    38.4008    38.4008    -0.0000     0.0000    -0.0000 </r>
      <r>     2.9546    38.5973    38.5973    38.5973    -0.0000    -0.0000    -0.0000 </r>
      <r>     2.9756    38.6998    38.6998    38.6998    -0.0000    -0.0000    -0.0000 </r>
      <r>     2.9966    38.7467    38.7467    38.7467    -0.0000     0.0000    -0.0000 </r>
      <r>     3.0175    38.7703    38.7703    38.7703    -0.0000     0.0000    -0.0000 </r>
      <r>     3.0385    38.7846    38.7846    38.7846    -0.0000     0.0000    -0.0000 </r>
      <r>     3.0594    38.7898    38.7898    38.7898    -0.0000     0.0000    -0.0000 </r>
      <r>     3.0804    38.7790    38.7790    38.7790    -0.0000     0.0000    -0.0000 </r>
      <r>     3.1013    38.7424    38.7424    38.7424    -0.0000     0.0000    -0.0000 </r>
      <r>     3.1223    38.6681    38.6681    38.6681    -0.0000     0.0000    -0.0000 </r>
      <r>     3.1432    38.5430    38.5430    38.5430    -0.0000    -0.0000    -0.0000 </r>
      <r>     3.1642    38.3521    38.3521    38.3521    -0.0000    -0.0000    -0.0000 </r>
      <r>     3.1851    38.0803    38.0803    38.0803    -0.0000    -0.0000    -0.0000 </r>
      <r>     3.2061    37.7130    37.7130    37.7130    -0.0000    -0.0000    -0.0000 </r>
      <r>     3.2271    37.2390    37.2390    37.2390    -0.0000    -0.0000    -0.0000 </r>
      <r>     3.2480    36.6547    36.6547    36.6547    -0.0000    -0.0000    -0.0000 </r>
      <r>     3.2690    35.9705    35.9705    35.9705    -0.0000    -0.0000    -0.0000 </r>
      <r>     3.2899    35.2127    35.2127    35.2127    -0.0000    -0.0000    -0.0000 </r>
      <r>     3.3109    34.4159    34.4159    34.4159    -0.0000    -0.0000    -0.0000 </r>
      <r>     3.3318    33.6107    33.6107    33.6107    -0.0000    -0.0000    -0.0000 </r>
      <r>     3.3528    32.8171    32.8171    32.8171    -0.0000     0.0000    -0.0000 </r>
      <r>     3.3737    32.0443    32.0443    32.0443    -0.0000     0.0000    -0.0000 </r>
      <r>     3.3947    31.2918    31.2918    31.2918    -0.0000     0.0000    -0.0000 </r>
      <r>     3.4157    30.5490    30.5490    30.5490    -0.0000     0.0000    -0.0000 </r>
      <r>     3.4366    29.7939    29.7939    29.7939    -0.0000     0.0000    -0.0000 </r>
      <r>     3.4576    28.9954    28.9954    28.9954    -0.0000     0.0000    -0.0000 </r>
      <r>     3.4785    28.1247    28.1247    28.1247    -0.0000     0.0000    -0.0000 </r>
      <r>     3.4995    27.1771    27.1771    27.1771    -0.0000     0.0000    -0.0000 </r>
      <r>     3.5204    26.1880    26.1880    26.1880    -0.0000     0.0000    -0.0000 </r>
      <r>     3.5414    25.2202    25.2202    25.2202    -0.0000     0.0000    -0.0000 </r>
      <r>     3.5623    24.3312    24.3312    24.3312    -0.0000     0.0000    -0.0000 </r>
      <r>     3.5833    23.5524    23.5524    23.5524    -0.0000     0.0000    -0.0000 </r>
      <r>     3.6042    22.8916    22.8916    22.8916    -0.0000     0.0000    -0.0000 </r>
      <r>     3.6252    22.3437    22.3437    22.3437    -0.0000     0.0000    -0.0000 </r>
      <r>     3.6462    21.9000    21.9000    21.9000    -0.0000     0.0000    -0.0000 </r>
      <r>     3.6671    21.5506    21.5506    21.5506    -0.0000    -0.0000    -0.0000 </r>
      <r>     3.6881    21.2856    21.2856    21.2856    -0.0000    -0.0000    -0.0000 </r>
      <r>     3.7090    21.0947    21.0947    21.0947    -0.0000    -0.0000    -0.0000 </r>
      <r>     3.7300    20.9676    20.9676    20.9676    -0.0000    -0.0000    -0.0000 </r>
      <r>     3.7509    20.8962    20.8962    20.8962    -0.0000    -0.0000    -0.0000 </r>
      <r>     3.7719    20.8766    20.8766    20.8766    -0.0000    -0.0000    -0.0000 </r>
      <r>     3.7928    20.9085    20.9085    20.9085    -0.0000    -0.0000    -0.0000 </r>
      <r>     3.8138    20.9921    20.9921    20.9921    -0.0000    -0.0000    -0.0000 </r>
      <r>     3.8348    21.1243    21.1243    21.1243    -0.0000    -0.0000    -0.0000 </r>
      <r>     3.8557    21.2978    21.2978    21.2978    -0.0000    -0.0000    -0.0000 </r>
      <r>     3.8767    21.5030    21.5030    21.5030    -0.0000    -0.0000    -0.0000 </r>
      <r>     3.8976    21.7314    21.7314    21.7314    -0.0000    -0.0000     0.0000 </r>
      <r>     3.9186    21.9761    21.9761    21.9761    -0.0000    -0.0000     0.0000 </r>
      <r>     3.9395    22.2296    22.2296    22.2296    -0.0000    -0.0000     0.0000 </r>
      <r>     3.9605    22.4805    22.4805    22.4805    -0.0000    -0.0000     0.0000 </r>
      <r>     3.9814    22.7146    22.7146    22.7146    -0.0000     0.0000     0.0000 </r>
      <r>     4.0024    22.9209    22.9209    22.9209    -0.0000     0.0000     0.0000 </r>
      <r>     4.0233    23.0964    23.0964    23.0964    -0.0000     0.0000     0.0000 </r>
      <r>     4.0443    23.2410    23.2410    23.2410    -0.0000     0.0000     0.0000 </r>
      <r>     4.0653    23.3500    23.3500    23.3500    -0.0000     0.0000     0.0000 </r>
      <r>     4.0862    23.4107    23.4107    23.4107    -0.0000     0.0000     0.0000 </r>
      <r>     4.1072    23.4064    23.4064    23.4064    -0.0000     0.0000     0.0000 </r>
      <r>     4.1281    23.3225    23.3225    23.3225    -0.0000     0.0000     0.0000 </r>
      <r>     4.1491    23.1522    23.1522    23.1522    -0.0000    -0.0000     0.0000 </r>
      <r>     4.1700    22.8969    22.8969    22.8969    -0.0000    -0.0000     0.0000 </r>
      <r>     4.1910    22.5639    22.5639    22.5639    -0.0000    -0.0000     0.0000 </r>
      <r>     4.2119    22.1651    22.1651    22.1651    -0.0000    -0.0000     0.0000 </r>
      <r>     4.2329    21.7167    21.7167    21.7167    -0.0000    -0.0000     0.0000 </r>
      <r>     4.2538    21.2377    21.2377    21.2377    -0.0000    -0.0000     0.0000 </r>
      <r>     4.2748    20.7487    20.7487    20.7487    -0.0000    -0.0000     0.0000 </r>
      <r>     4.2958    20.2696    20.2696    20.2696    -0.0000    -0.0000     0.0000 </r>
      <r>     4.3167    19.8165    19.8165    19.8165    -0.0000    -0.0000    -0.0000 </r>
      <r>     4.3377    19.4008    19.4008    19.4008    -0.0000    -0.0000    -0.0000 </r>
      <r>     4.3586    19.0297    19.0297    19.0297    -0.0000    -0.0000    -0.0000 </r>
      <r>     4.3796    18.7068    18.7068    18.7068    -0.0000    -0.0000    -0.0000 </r>
      <r>     4.4005    18.4322    18.4322    18.4322    -0.0000    -0.0000    -0.0000 </r>
      <r>     4.4215    18.2021    18.2021    18.2021    -0.0000    -0.0000    -0.0000 </r>
      <r>     4.4424    18.0076    18.0076    18.0076    -0.0000    -0.0000    -0.0000 </r>
      <r>     4.4634    17.8353    17.8353    17.8353    -0.0000    -0.0000    -0.0000 </r>
      <r>     4.4844    17.6696    17.6696    17.6696    -0.0000    -0.0000    -0.0000 </r>
      <r>     4.5053    17.4940    17.4940    17.4940    -0.0000    -0.0000    -0.0000 </r>
      <r>     4.5263    17.2937    17.2937    17.2937    -0.0000    -0.0000    -0.0000 </r>
      <r>     4.5472    17.0583    17.0583    17.0583    -0.0000     0.0000    -0.0000 </r>
      <r>     4.5682    16.7850    16.7850    16.7850    -0.0000     0.0000    -0.0000 </r>
      <r>     4.5891    16.4792    16.4792    16.4792    -0.0000    -0.0000    -0.0000 </r>
      <r>     4.6101    16.1522    16.1522    16.1522    -0.0000    -0.0000    -0.0000 </r>
      <r>     4.6310    15.8176    15.8176    15.8176    -0.0000    -0.0000     0.0000 </r>
      <r>     4.6520    15.4897    15.4897    15.4897    -0.0000    -0.0000     0.0000 </r>
      <r>     4.6729    15.1802    15.1802    15.1802    -0.0000    -0.0000     0.0000 </r>
      <r>     4.6939    14.8971    14.8971    14.8971    -0.0000    -0.0000     0.0000 </r>
      <r>     4.7149    14.6446    14.6446    14.6446    -0.0000    -0.0000     0.0000 </r>
      <r>     4.7358    14.4234    14.4234    14.4234    -0.0000    -0.0000     0.0000 </r>
      <r>     4.7568    14.2312    14.2312    14.2312    -0.0000    -0.0000     0.0000 </r>
      <r>     4.7777    14.0631    14.0631    14.0631    -0.0000    -0.0000     0.0000 </r>
      <r>     4.7987    13.9109    13.9109    13.9109    -0.0000    -0.0000     0.0000 </r>
      <r>     4.8196    13.7640    13.7640    13.7640    -0.0000    -0.0000     0.0000 </r>
      <r>     4.8406    13.6123    13.6123    13.6123    -0.0000    -0.0000     0.0000 </r>
      <r>     4.8615    13.4506    13.4506    13.4506     0.0000    -0.0000     0.0000 </r>
      <r>     4.8825    13.2795    13.2795    13.2795     0.0000     0.0000     0.0000 </r>
      <r>     4.9035    13.1026    13.1026    13.1026     0.0000     0.0000     0.0000 </r>
      <r>     4.9244    12.9211    12.9211    12.9211     0.0000     0.0000     0.0000 </r>
      <r>     4.9454    12.7297    12.7297    12.7297     0.0000     0.0000     0.0000 </r>
      <r>     4.9663    12.5141    12.5141    12.5141     0.0000     0.0000     0.0000 </r>
      <r>     4.9873    12.2525    12.2525    12.2525     0.0000     0.0000     0.0000 </r>
      <r>     5.0082    11.9246    11.9246    11.9246     0.0000     0.0000     0.0000 </r>
      <r>     5.0292    11.5265    11.5265    11.5265     0.0000     0.0000     0.0000 </r>
      <r>     5.0501    11.0768    11.0768    11.0768     0.0000     0.0000     0.0000 </r>
      <r>     5.0711    10.6070    10.6070    10.6070     0.0000     0.0000     0.0000 </r>
      <r>     5.0920    10.1474    10.1474    10.1474     0.0000     0.0000     0.0000 </r>
      <r>     5.1130     9.7205     9.7205     9.7205     0.0000     0.0000     0.0000 </r>
      <r>     5.1340     9.3417     9.3417     9.3417     0.0000     0.0000     0.0000 </r>
      <r>     5.1549     9.0185     9.0185     9.0185     0.0000     0.0000     0.0000 </r>
      <r>     5.1759     8.7503     8.7503     8.7503     0.0000     0.0000     0.0000 </r>
      <r>     5.1968     8.5319     8.5319     8.5319     0.0000     0.0000     0.0000 </r>
      <r>     5.2178     8.3565     8.3565     8.3565     0.0000     0.0000     0.0000 </r>
      <r>     5.2387     8.2186     8.2186     8.2186     0.0000    -0.0000     0.0000 </r>
      <r>     5.2597     8.1143     8.1143     8.1143     0.0000    -0.0000     0.0000 </r>
      <r>     5.2806     8.0413     8.0413     8.0413    -0.0000    -0.0000     0.0000 </r>
      <r>     5.3016     7.9988     7.9988     7.9988    -0.0000    -0.0000     0.0000 </r>
      <r>     5.3225     7.9871     7.9871     7.9871    -0.0000    -0.0000     0.0000 </r>
      <r>     5.3435     8.0076     8.0076     8.0076    -0.0000    -0.0000     0.0000 </r>
      <r>     5.3645     8.0615     8.0615     8.0615    -0.0000    -0.0000     0.0000 </r>
      <r>     5.3854     8.1499     8.1499     8.1499    -0.0000    -0.0000     0.0000 </r>
      <r>     5.4064     8.2734     8.2734     8.2734    -0.0000    -0.0000     0.0000 </r>
      <r>     5.4273     8.4333     8.4333     8.4333    -0.0000    -0.0000     0.0000 </r>
      <r>     5.4483     8.6320     8.6320     8.6320    -0.0000    -0.0000     0.0000 </r>
      <r>     5.4692     8.8709     8.8709     8.8709    -0.0000    -0.0000     0.0000 </r>
      <r>     5.4902     9.1483     9.1483     9.1483    -0.0000    -0.0000     0.0000 </r>
      <r>     5.5111     9.4549     9.4549     9.4549    -0.0000    -0.0000     0.0000 </r>
      <r>     5.5321     9.7728     9.7728     9.7728     0.0000    -0.0000     0.0000 </r>
      <r>     5.5531    10.0797    10.0797    10.0797     0.0000    -0.0000     0.0000 </r>
      <r>     5.5740    10.3526    10.3526    10.3526     0.0000    -0.0000     0.0000 </r>
      <r>     5.5950    10.5616    10.5616    10.5616     0.0000    -0.0000     0.0000 </r>
      <r>     5.6159    10.6578    10.6578    10.6578     0.0000    -0.0000     0.0000 </r>
      <r>     5.6369    10.5808    10.5808    10.5808     0.0000    -0.0000     0.0000 </r>
      <r>     5.6578    10.2988    10.2988    10.2988     0.0000    -0.0000     0.0000 </r>
      <r>     5.6788     9.8427     9.8427     9.8427     0.0000    -0.0000     0.0000 </r>
      <r>     5.6997     9.2885     9.2885     9.2885     0.0000    -0.0000     0.0000 </r>
      <r>     5.7207     8.7101     8.7101     8.7101     0.0000    -0.0000     0.0000 </r>
      <r>     5.7416     8.1539     8.1539     8.1539     0.0000    -0.0000     0.0000 </r>
      <r>     5.7626     7.6402     7.6402     7.6402     0.0000    -0.0000     0.0000 </r>
      <r>     5.7836     7.1730     7.1730     7.1730     0.0000    -0.0000     0.0000 </r>
      <r>     5.8045     6.7490     6.7490     6.7490    -0.0000    -0.0000     0.0000 </r>
      <r>     5.8255     6.3628     6.3628     6.3628    -0.0000    -0.0000     0.0000 </r>
      <r>     5.8464     6.0098     6.0098     6.0098    -0.0000    -0.0000     0.0000 </r>
      <r>     5.8674     5.6876     5.6876     5.6876    -0.0000    -0.0000     0.0000 </r>
      <r>     5.8883     5.3964     5.3964     5.3964    -0.0000    -0.0000     0.0000 </r>
      <r>     5.9093     5.1374     5.1374     5.1374    -0.0000    -0.0000     0.0000 </r>
      <r>     5.9302     4.9104     4.9104     4.9104    -0.0000    -0.0000     0.0000 </r>
      <r>     5.9512     4.7134     4.7134     4.7134    -0.0000    -0.0000     0.0000 </r>
      <r>     5.9722     4.5436     4.5436     4.5436    -0.0000    -0.0000     0.0000 </r>
      <r>     5.9931     4.3980     4.3980     4.3980    -0.0000    -0.0000     0.0000 </r>
      <r>     6.0141     4.2750     4.2750     4.2750    -0.0000    -0.0000     0.0000 </r>
      <r>     6.0350     4.1742     4.1742     4.1742    -0.0000    -0.0000     0.0000 </r>
      <r>     6.0560     4.0954     4.0954     4.0954    -0.0000    -0.0000     0.0000 </r>
      <r>     6.0769     4.0383     4.0383     4.0383    -0.0000    -0.0000     0.0000 </r>
      <r>     6.0979     4.0030     4.0030     4.0030    -0.0000    -0.0000     0.0000 </r>
      <r>     6.1188     3.9898     3.9898     3.9898    -0.0000    -0.0000     0.0000 </r>
      <r>     6.1398     3.9994     3.9994     3.9994    -0.0000    -0.0000     0.0000 </r>
      <r>     6.1607     4.0308     4.0308     4.0308    -0.0000    -0.0000     0.0000 </r>
      <r>     6.1817     4.0778     4.0778     4.0778     0.0000    -0.0000     0.0000 </r>
      <r>     6.2027     4.1282     4.1282     4.1282     0.0000    -0.0000     0.0000 </r>
      <r>     6.2236     4.1686     4.1686     4.1686     0.0000    -0.0000     0.0000 </r>
      <r>     6.2446     4.1924     4.1924     4.1924     0.0000    -0.0000     0.0000 </r>
      <r>     6.2655     4.2017     4.2017     4.2017     0.0000     0.0000     0.0000 </r>
      <r>     6.2865     4.2030     4.2030     4.2030     0.0000     0.0000     0.0000 </r>
      <r>     6.3074     4.2019     4.2019     4.2019     0.0000     0.0000     0.0000 </r>
      <r>     6.3284     4.2014     4.2014     4.2014     0.0000     0.0000     0.0000 </r>
      <r>     6.3493     4.2028     4.2028     4.2028     0.0000     0.0000     0.0000 </r>
      <r>     6.3703     4.2063     4.2063     4.2063     0.0000     0.0000     0.0000 </r>
      <r>     6.3913     4.2121     4.2121     4.2121     0.0000     0.0000     0.0000 </r>
      <r>     6.4122     4.2200     4.2200     4.2200     0.0000     0.0000     0.0000 </r>
      <r>     6.4332     4.2300     4.2300     4.2300     0.0000     0.0000     0.0000 </r>
      <r>     6.4541     4.2413     4.2413     4.2413     0.0000     0.0000     0.0000 </r>
      <r>     6.4751     4.2520     4.2520     4.2520     0.0000     0.0000     0.0000 </r>
      <r>     6.4960     4.2595     4.2595     4.2595     0.0000    -0.0000     0.0000 </r>
      <r>     6.5170     4.2602     4.2602     4.2602     0.0000    -0.0000     0.0000 </r>
      <r>     6.5379     4.2515     4.2515     4.2515     0.0000    -0.0000     0.0000 </r>
      <r>     6.5589     4.2315     4.2315     4.2315     0.0000    -0.0000     0.0000 </r>
      <r>     6.5798     4.1992     4.1992     4.1992     0.0000    -0.0000     0.0000 </r>
      <r>     6.6008     4.1543     4.1543     4.1543     0.0000    -0.0000     0.0000 </r>
      <r>     6.6218     4.0974     4.0974     4.0974     0.0000    -0.0000     0.0000 </r>
      <r>     6.6427     4.0299     4.0299     4.0299    -0.0000    -0.0000    -0.0000 </r>
      <r>     6.6637     3.9540     3.9540     3.9540    -0.0000    -0.0000    -0.0000 </r>
      <r>     6.6846     3.8722     3.8722     3.8722    -0.0000    -0.0000    -0.0000 </r>
      <r>     6.7056     3.7874     3.7874     3.7874    -0.0000    -0.0000    -0.0000 </r>
      <r>     6.7265     3.7023     3.7023     3.7023    -0.0000    -0.0000    -0.0000 </r>
      <r>     6.7475     3.6188     3.6188     3.6188    -0.0000    -0.0000    -0.0000 </r>
      <r>     6.7684     3.5387     3.5387     3.5387    -0.0000     0.0000    -0.0000 </r>
      <r>     6.7894     3.4632     3.4632     3.4632     0.0000     0.0000    -0.0000 </r>
      <r>     6.8103     3.3931     3.3931     3.3931     0.0000     0.0000    -0.0000 </r>
      <r>     6.8313     3.3286     3.3286     3.3286     0.0000     0.0000    -0.0000 </r>
      <r>     6.8523     3.2689     3.2689     3.2689     0.0000     0.0000    -0.0000 </r>
      <r>     6.8732     3.2130     3.2130     3.2130     0.0000     0.0000    -0.0000 </r>
      <r>     6.8942     3.1599     3.1599     3.1599     0.0000     0.0000    -0.0000 </r>
      <r>     6.9151     3.1092     3.1092     3.1092     0.0000     0.0000    -0.0000 </r>
      <r>     6.9361     3.0606     3.0606     3.0606     0.0000     0.0000    -0.0000 </r>
      <r>     6.9570     3.0142     3.0142     3.0142     0.0000     0.0000    -0.0000 </r>
      <r>     6.9780     2.9701     2.9701     2.9701     0.0000     0.0000    -0.0000 </r>
      <r>     6.9989     2.9285     2.9285     2.9285     0.0000     0.0000    -0.0000 </r>
      <r>     7.0199     2.8894     2.8894     2.8894     0.0000     0.0000    -0.0000 </r>
      <r>     7.0409     2.8524     2.8524     2.8524     0.0000     0.0000     0.0000 </r>
      <r>     7.0618     2.8163     2.8163     2.8163     0.0000     0.0000     0.0000 </r>
      <r>     7.0828     2.7782     2.7782     2.7782     0.0000     0.0000     0.0000 </r>
      <r>     7.1037     2.7342     2.7342     2.7342    -0.0000     0.0000     0.0000 </r>
      <r>     7.1247     2.6806     2.6806     2.6806    -0.0000     0.0000     0.0000 </r>
      <r>     7.1456     2.6163     2.6163     2.6163    -0.0000     0.0000    -0.0000 </r>
      <r>     7.1666     2.5424     2.5424     2.5424    -0.0000     0.0000    -0.0000 </r>
      <r>     7.1875     2.4618     2.4618     2.4618    -0.0000     0.0000    -0.0000 </r>
      <r>     7.2085     2.3770     2.3770     2.3770    -0.0000     0.0000    -0.0000 </r>
      <r>     7.2294     2.2907     2.2907     2.2907    -0.0000     0.0000    -0.0000 </r>
      <r>     7.2504     2.2050     2.2050     2.2050    -0.0000     0.0000    -0.0000 </r>
      <r>     7.2714     2.1215     2.1215     2.1215    -0.0000     0.0000    -0.0000 </r>
      <r>     7.2923     2.0412     2.0412     2.0412    -0.0000     0.0000    -0.0000 </r>
      <r>     7.3133     1.9644     1.9644     1.9644    -0.0000     0.0000    -0.0000 </r>
      <r>     7.3342     1.8909     1.8909     1.8909    -0.0000     0.0000    -0.0000 </r>
      <r>     7.3552     1.8204     1.8204     1.8204    -0.0000     0.0000    -0.0000 </r>
      <r>     7.3761     1.7526     1.7526     1.7526    -0.0000     0.0000    -0.0000 </r>
      <r>     7.3971     1.6875     1.6875     1.6875    -0.0000     0.0000    -0.0000 </r>
      <r>     7.4180     1.6254     1.6254     1.6254    -0.0000     0.0000    -0.0000 </r>
      <r>     7.4390     1.5665     1.5665     1.5665    -0.0000     0.0000    -0.0000 </r>
      <r>     7.4600     1.5114     1.5114     1.5114    -0.0000     0.0000    -0.0000 </r>
      <r>     7.4809     1.4606     1.4606     1.4606    -0.0000     0.0000    -0.0000 </r>
      <r>     7.5019     1.4140     1.4140     1.4140    -0.0000     0.0000    -0.0000 </r>
      <r>     7.5228     1.3712     1.3712     1.3712    -0.0000     0.0000    -0.0000 </r>
      <r>     7.5438     1.3316     1.3316     1.3316    -0.0000    -0.0000    -0.0000 </r>
      <r>     7.5647     1.2947     1.2947     1.2947    -0.0000    -0.0000    -0.0000 </r>
      <r>     7.5857     1.2609     1.2609     1.2609    -0.0000    -0.0000    -0.0000 </r>
      <r>     7.6066     1.2306     1.2306     1.2306    -0.0000    -0.0000    -0.0000 </r>
      <r>     7.6276     1.2043     1.2043     1.2043    -0.0000    -0.0000    -0.0000 </r>
      <r>     7.6485     1.1820     1.1820     1.1820    -0.0000    -0.0000    -0.0000 </r>
      <r>     7.6695     1.1635     1.1635     1.1635    -0.0000    -0.0000    -0.0000 </r>
      <r>     7.6905     1.1477     1.1477     1.1477    -0.0000    -0.0000     0.0000 </r>
      <r>     7.7114     1.1334     1.1334     1.1334    -0.0000    -0.0000     0.0000 </r>
      <r>     7.7324     1.1194     1.1194     1.1194    -0.0000    -0.0000     0.0000 </r>
      <r>     7.7533     1.1046     1.1046     1.1046    -0.0000    -0.0000     0.0000 </r>
      <r>     7.7743     1.0883     1.0883     1.0883    -0.0000    -0.0000     0.0000 </r>
      <r>     7.7952     1.0705     1.0705     1.0705    -0.0000    -0.0000     0.0000 </r>
      <r>     7.8162     1.0512     1.0512     1.0512    -0.0000    -0.0000     0.0000 </r>
      <r>     7.8371     1.0311     1.0311     1.0311    -0.0000    -0.0000     0.0000 </r>
      <r>     7.8581     1.0106     1.0106     1.0106    -0.0000    -0.0000     0.0000 </r>
      <r>     7.8791     0.9903     0.9903     0.9903    -0.0000    -0.0000     0.0000 </r>
      <r>     7.9000     0.9707     0.9707     0.9707    -0.0000    -0.0000     0.0000 </r>
      <r>     7.9210     0.9523     0.9523     0.9523    -0.0000    -0.0000     0.0000 </r>
      <r>     7.9419     0.9353     0.9353     0.9353    -0.0000    -0.0000     0.0000 </r>
      <r>     7.9629     0.9201     0.9201     0.9201    -0.0000    -0.0000     0.0000 </r>
      <r>     7.9838     0.9071     0.9071     0.9071    -0.0000    -0.0000     0.0000 </r>
      <r>     8.0048     0.8968     0.8968     0.8968    -0.0000    -0.0000     0.0000 </r>
      <r>     8.0257     0.8894     0.8894     0.8894    -0.0000    -0.0000     0.0000 </r>
      <r>     8.0467     0.8851     0.8851     0.8851    -0.0000    -0.0000     0.0000 </r>
      <r>     8.0676     0.8842     0.8842     0.8842    -0.0000    -0.0000     0.0000 </r>
      <r>     8.0886     0.8867     0.8867     0.8867    -0.0000    -0.0000     0.0000 </r>
      <r>     8.1096     0.8925     0.8925     0.8925    -0.0000    -0.0000     0.0000 </r>
      <r>     8.1305     0.9007     0.9007     0.9007    -0.0000    -0.0000     0.0000 </r>
      <r>     8.1515     0.9098     0.9098     0.9098    -0.0000    -0.0000     0.0000 </r>
      <r>     8.1724     0.9178     0.9178     0.9178    -0.0000    -0.0000     0.0000 </r>
      <r>     8.1934     0.9225     0.9225     0.9225    -0.0000    -0.0000     0.0000 </r>
      <r>     8.2143     0.9219     0.9219     0.9219    -0.0000    -0.0000     0.0000 </r>
      <r>     8.2353     0.9144     0.9144     0.9144    -0.0000    -0.0000     0.0000 </r>
      <r>     8.2562     0.8992     0.8992     0.8992    -0.0000    -0.0000     0.0000 </r>
      <r>     8.2772     0.8767     0.8767     0.8767    -0.0000    -0.0000     0.0000 </r>
      <r>     8.2981     0.8489     0.8489     0.8489    -0.0000    -0.0000     0.0000 </r>
      <r>     8.3191     0.8190     0.8190     0.8190    -0.0000    -0.0000     0.0000 </r>
      <r>     8.3401     0.7895     0.7895     0.7895    -0.0000    -0.0000     0.0000 </r>
      <r>     8.3610     0.7617     0.7617     0.7617    -0.0000    -0.0000     0.0000 </r>
      <r>     8.3820     0.7362     0.7362     0.7362     0.0000    -0.0000     0.0000 </r>
      <r>     8.4029     0.7128     0.7128     0.7128     0.0000    -0.0000     0.0000 </r>
      <r>     8.4239     0.6913     0.6913     0.6913     0.0000    -0.0000     0.0000 </r>
      <r>     8.4448     0.6715     0.6715     0.6715     0.0000    -0.0000     0.0000 </r>
      <r>     8.4658     0.6534     0.6534     0.6534     0.0000    -0.0000     0.0000 </r>
      <r>     8.4867     0.6369     0.6369     0.6369     0.0000    -0.0000     0.0000 </r>
      <r>     8.5077     0.6218     0.6218     0.6218     0.0000    -0.0000     0.0000 </r>
      <r>     8.5287     0.6073     0.6073     0.6073     0.0000    -0.0000     0.0000 </r>
      <r>     8.5496     0.5927     0.5927     0.5927    -0.0000    -0.0000     0.0000 </r>
      <r>     8.5706     0.5776     0.5776     0.5776    -0.0000    -0.0000     0.0000 </r>
      <r>     8.5915     0.5621     0.5621     0.5621    -0.0000    -0.0000     0.0000 </r>
      <r>     8.6125     0.5469     0.5469     0.5469    -0.0000    -0.0000     0.0000 </r>
      <r>     8.6334     0.5326     0.5326     0.5326    -0.0000    -0.0000     0.0000 </r>
      <r>     8.6544     0.5194     0.5194     0.5194    -0.0000     0.0000     0.0000 </r>
      <r>     8.6753     0.5076     0.5076     0.5076    -0.0000     0.0000     0.0000 </r>
      <r>     8.6963     0.4970     0.4970     0.4970    -0.0000     0.0000     0.0000 </r>
      <r>     8.7172     0.4874     0.4874     0.4874    -0.0000     0.0000     0.0000 </r>
      <r>     8.7382     0.4784     0.4784     0.4784    -0.0000     0.0000     0.0000 </r>
      <r>     8.7592     0.4697     0.4697     0.4697    -0.0000     0.0000     0.0000 </r>
      <r>     8.7801     0.4613     0.4613     0.4613    -0.0000     0.0000     0.0000 </r>
      <r>     8.8011     0.4531     0.4531     0.4531    -0.0000     0.0000     0.0000 </r>
      <r>     8.8220     0.4453     0.4453     0.4453    -0.0000     0.0000     0.0000 </r>
      <r>     8.8430     0.4378     0.4378     0.4378    -0.0000     0.0000     0.0000 </r>
      <r>     8.8639     0.4307     0.4307     0.4307    -0.0000    -0.0000     0.0000 </r>
      <r>     8.8849     0.4241     0.4241     0.4241    -0.0000    -0.0000     0.0000 </r>
      <r>     8.9058     0.4180     0.4180     0.4180    -0.0000    -0.0000     0.0000 </r>
      <r>     8.9268     0.4125     0.4125     0.4125    -0.0000    -0.0000     0.0000 </r>
      <r>     8.9478     0.4076     0.4076     0.4076    -0.0000    -0.0000     0.0000 </r>
      <r>     8.9687     0.4032     0.4032     0.4032    -0.0000    -0.0000     0.0000 </r>
      <r>     8.9897     0.3992     0.3992     0.3992    -0.0000    -0.0000     0.0000 </r>
      <r>     9.0106     0.3951     0.3951     0.3951    -0.0000    -0.0000     0.0000 </r>
      <r>     9.0316     0.3902     0.3902     0.3902    -0.0000    -0.0000     0.0000 </r>
      <r>     9.0525     0.3837     0.3837     0.3837    -0.0000    -0.0000     0.0000 </r>
      <r>     9.0735     0.3752     0.3752     0.3752    -0.0000     0.0000     0.0000 </r>
      <r>     9.0944     0.3651     0.3651     0.3651    -0.0000     0.0000    -0.0000 </r>
      <r>     9.1154     0.3542     0.3542     0.3542    -0.0000     0.0000    -0.0000 </r>
      <r>     9.1363     0.3433     0.3433     0.3433    -0.0000     0.0000    -0.0000 </r>
      <r>     9.1573     0.3331     0.3331     0.3331    -0.0000     0.0000    -0.0000 </r>
      <r>     9.1783     0.3237     0.3237     0.3237    -0.0000     0.0000    -0.0000 </r>
      <r>     9.1992     0.3151     0.3151     0.3151    -0.0000     0.0000    -0.0000 </r>
      <r>     9.2202     0.3074     0.3074     0.3074    -0.0000     0.0000    -0.0000 </r>
      <r>     9.2411     0.3004     0.3004     0.3004     0.0000     0.0000    -0.0000 </r>
      <r>     9.2621     0.2941     0.2941     0.2941     0.0000     0.0000    -0.0000 </r>
      <r>     9.2830     0.2885     0.2885     0.2885     0.0000     0.0000    -0.0000 </r>
      <r>     9.3040     0.2833     0.2833     0.2833     0.0000     0.0000    -0.0000 </r>
      <r>     9.3249     0.2787     0.2787     0.2787    -0.0000     0.0000     0.0000 </r>
      <r>     9.3459     0.2745     0.2745     0.2745    -0.0000     0.0000     0.0000 </r>
      <r>     9.3668     0.2706     0.2706     0.2706    -0.0000     0.0000     0.0000 </r>
      <r>     9.3878     0.2671     0.2671     0.2671    -0.0000     0.0000     0.0000 </r>
      <r>     9.4088     0.2638     0.2638     0.2638    -0.0000     0.0000     0.0000 </r>
      <r>     9.4297     0.2610     0.2610     0.2610    -0.0000     0.0000     0.0000 </r>
      <r>     9.4507     0.2585     0.2585     0.2585    -0.0000     0.0000     0.0000 </r>
      <r>     9.4716     0.2563     0.2563     0.2563    -0.0000     0.0000     0.0000 </r>
      <r>     9.4926     0.2546     0.2546     0.2546    -0.0000     0.0000     0.0000 </r>
      <r>     9.5135     0.2531     0.2531     0.2531    -0.0000     0.0000     0.0000 </r>
      <r>     9.5345     0.2519     0.2519     0.2519    -0.0000     0.0000     0.0000 </r>
      <r>     9.5554     0.2509     0.2509     0.2509    -0.0000     0.0000     0.0000 </r>
      <r>     9.5764     0.2500     0.2500     0.2500    -0.0000     0.0000     0.0000 </r>
      <r>     9.5974     0.2492     0.2492     0.2492    -0.0000    -0.0000     0.0000 </r>
[...]
     <r>     6.9480     0.0602     0.0602     0.0602     0.0000     0.0000    -0.0000 </r>
     <r>     6.9580     0.0609     0.0609     0.0609     0.0000    -0.0000     0.0000 </r>
     <r>     6.9680     0.0615     0.0615     0.0615     0.0000     0.0000    -0.0000 </r>
     <r>     6.9780     0.0698     0.0698     0.0698     0.0000    -0.0000    -0.0000 </r>
     <r>     6.9880     0.1067     0.1067     0.1067     0.0000     0.0000     0.0000 </r>
     <r>     6.9980     0.1302     0.1302     0.1302    -0.0000    -0.0000    -0.0000 </r>
     <r>     7.0080     0.1378     0.1378     0.1378    -0.0000     0.0000     0.0000 </r>
     <r>     7.0180     0.1295     0.1295     0.1295     0.0000     0.0000    -0.0000 </r>
     <r>     7.0280     0.1050     0.1050     0.1050     0.0000     0.0000     0.0000 </r>
     <r>     7.0380     0.0957     0.0957     0.0957     0.0000     0.0000     0.0000 </r>
     <r>     7.0481     0.0683     0.0683     0.0683    -0.0000     0.0000     0.0000 </r>
     <r>     7.0581     0.0658     0.0658     0.0658    -0.0000     0.0000    -0.0000 </r>
     <r>     7.0681     0.0634     0.0634     0.0634     0.0000    -0.0000    -0.0000 </r>
     <r>     7.0781     0.0611     0.0611     0.0611    -0.0000    -0.0000     0.0000 </r>
     <r>     7.0881     0.0588     0.0588     0.0588     0.0000     0.0000    -0.0000 </r>
     <r>     7.0981     0.0566     0.0566     0.0566    -0.0000     0.0000    -0.0000 </r>
     <r>     7.1081     0.0544     0.0544     0.0544     0.0000     0.0000    -0.0000 </r>
     <r>     7.1181     0.0523     0.0523     0.0523     0.0000     0.0000     0.0000 </r>
     <r>     7.1281     0.0502     0.0502     0.0502     0.0000     0.0000    -0.0000 </r>
     <r>     7.1381     0.0483     0.0483     0.0483     0.0000     0.0000     0.0000 </r>
     <r>     7.1482     0.0395     0.0395     0.0395     0.0000     0.0000     0.0000 </r>
     <r>     7.1582     0.0391     0.0391     0.0391    -0.0000    -0.0000     0.0000 </r>
     <r>     7.1682     0.0387     0.0387     0.0387     0.0000     0.0000     0.0000 </r>
     <r>     7.1782     0.0383     0.0383     0.0383     0.0000     0.0000    -0.0000 </r>
     <r>     7.1882     0.0379     0.0379     0.0379     0.0000     0.0000     0.0000 </r>
     <r>     7.1982     0.0376     0.0376     0.0376    -0.0000    -0.0000    -0.0000 </r>
     <r>     7.2082     0.0372     0.0372     0.0372    -0.0000     0.0000    -0.0000 </r>
     <r>     7.2182     0.0322     0.0322     0.0322    -0.0000    -0.0000     0.0000 </r>
     <r>     7.2282     0.0311     0.0311     0.0311    -0.0000    -0.0000    -0.0000 </r>
     <r>     7.2382     0.0299     0.0299     0.0299    -0.0000    -0.0000    -0.0000 </r>
     <r>     7.2483     0.0288     0.0288     0.0288    -0.0000    -0.0000    -0.0000 </r>
     <r>     7.2583     0.0276     0.0276     0.0276    -0.0000     0.0000    -0.0000 </r>
     <r>     7.2683     0.0265     0.0265     0.0265     0.0000     0.0000    -0.0000 </r>
     <r>     7.2783     0.0253     0.0253     0.0253     0.0000     0.0000     0.0000 </r>
     <r>     7.2883     0.0241     0.0241     0.0241    -0.0000     0.0000     0.0000 </r>
     <r>     7.2983     0.0229     0.0229     0.0229     0.0000     0.0000     0.0000 </r>
     <r>     7.3083     0.0217     0.0217     0.0217    -0.0000     0.0000    -0.0000 </r>
     <r>     7.3183     0.0205     0.0205     0.0205    -0.0000     0.0000     0.0000 </r>
     <r>     7.3283     0.0192     0.0192     0.0192    -0.0000     0.0000     0.0000 </r>
     <r>     7.3383     0.0180     0.0180     0.0180    -0.0000     0.0000     0.0000 </r>
    </set>
   </array>
  </conductivity>
  <dos>
   <i name="efermi">      2.33834591 </i>
   <total>
    <array>
     <dimension dim="1">gridpoints</dimension>
     <dimension dim="2">spin</dimension>
     <field>energy</field>
     <field>total</field>
     <field>integrated</field>
     <set>
      <set comment="spin 1">
       <r>   -11.0179     0.0000     0.0000 </r>
       <r>   -10.9531     0.0000     0.0000 </r>
       <r>   -10.8883     0.0000     0.0000 </r>
       <r>   -10.8235     0.0000     0.0000 </r>
       <r>   -10.7587     0.0000     0.0000 </r>
       <r>   -10.6938     0.0000     0.0000 </r>
       <r>   -10.6290     0.0000     0.0000 </r>
       <r>   -10.5642     0.0000     0.0000 </r>
       <r>   -10.4994     0.0000     0.0000 </r>
       <r>   -10.4346     0.0000     0.0000 </r>
       <r>   -10.3698     0.0000     0.0000 </r>
       <r>   -10.3049     0.0000     0.0000 </r>
       <r>   -10.2401     0.0000     0.0000 </r>
       <r>   -10.1753     0.0000     0.0000 </r>
       <r>   -10.1105     0.0000     0.0000 </r>
       <r>   -10.0457     0.0000     0.0000 </r>
       <r>    -9.9809     0.0369     0.0005 </r>
       <r>    -9.9160     0.2790     0.0095 </r>
       <r>    -9.8512     0.7009     0.0411 </r>
       <r>    -9.7864     0.9596     0.0961 </r>
       <r>    -9.7216     1.0159     0.1607 </r>
       <r>    -9.6568     1.1139     0.2292 </r>
       <r>    -9.5920     1.2956     0.3070 </r>
       <r>    -9.5271     1.5004     0.3976 </r>
       <r>    -9.4623     2.1016     0.5076 </r>
       <r>    -9.3975     2.9429     0.6728 </r>
       <r>    -9.3327     2.8522     0.8701 </r>
       <r>    -9.2679     2.3658     1.0386 </r>
       <r>    -9.2031     2.3349     1.1903 </r>
       <r>    -9.1382     2.2912     1.3405 </r>
       <r>    -9.0734     2.2090     1.4865 </r>
       <r>    -9.0086     2.8193     1.6543 </r>
       <r>    -8.9438     1.4010     1.8002 </r>
       <r>    -8.8790     1.3407     1.8812 </r>
       <r>    -8.8142     2.8155     2.0140 </r>
       <r>    -8.7493     3.7155     2.2372 </r>
       <r>    -8.6845     4.0864     2.4866 </r>
       <r>    -8.6197     4.4419     2.7558 </r>
       <r>    -8.5549     4.9044     3.0594 </r>
       <r>    -8.4901    11.9448     3.7397 </r>
       <r>    -8.4253     5.0723     4.1244 </r>
       <r>    -8.3604     4.7274     4.4175 </r>
       <r>    -8.2956     5.2115     4.7391 </r>
       <r>    -8.2308     8.2249     5.1898 </r>
       <r>    -8.1660     8.9059     5.7250 </r>
       <r>    -8.1012     9.9458     6.3433 </r>
       <r>    -8.0364     6.9873     6.8932 </r>
       <r>    -7.9715     6.2680     7.3226 </r>
       <r>    -7.9067     5.3955     7.7087 </r>
       <r>    -7.8419     1.2024     7.9994 </r>
       <r>    -7.7771     0.0000     8.0000 </r>
       <r>    -7.7123     0.0000     8.0000 </r>
       <r>    -7.6475     0.0000     8.0000 </r>
       <r>    -7.5826     0.0000     8.0000 </r>
       <r>    -7.5178     0.0000     8.0000 </r>
       <r>    -7.4530     0.0000     8.0000 </r>
       <r>    -7.3882     0.0000     8.0000 </r>
       <r>    -7.3234     0.0000     8.0000 </r>
       <r>    -7.2586     0.0000     8.0000 </r>
       <r>    -7.1937     0.0000     8.0000 </r>
       <r>    -7.1289     0.0000     8.0000 </r>
       <r>    -7.0641     0.0000     8.0000 </r>
       <r>    -6.9993     0.0000     8.0000 </r>
       <r>    -6.9345     0.0000     8.0000 </r>
       <r>    -6.8697     0.0000     8.0000 </r>
       <r>    -6.8048     0.0000     8.0000 </r>
       <r>    -6.7400     0.0000     8.0000 </r>
       <r>    -6.6752     0.0000     8.0000 </r>
       <r>    -6.6104     0.0000     8.0000 </r>
       <r>    -6.5456     0.0000     8.0000 </r>
       <r>    -6.4808     0.0000     8.0000 </r>
       <r>    -6.4159     0.0000     8.0000 </r>
       <r>    -6.3511     0.0000     8.0000 </r>
       <r>    -6.2863     0.0000     8.0000 </r>
       <r>    -6.2215     0.0000     8.0000 </r>
       <r>    -6.1567     0.0000     8.0000 </r>
       <r>    -6.0919     0.0000     8.0000 </r>
       <r>    -6.0270     0.0000     8.0000 </r>
       <r>    -5.9622     0.0000     8.0000 </r>
       <r>    -5.8974     0.0000     8.0000 </r>
       <r>    -5.8326     0.0000     8.0000 </r>
       <r>    -5.7678     0.0000     8.0000 </r>
       <r>    -5.7030     0.0000     8.0000 </r>
       <r>    -5.6381     0.0000     8.0000 </r>
       <r>    -5.5733     0.0000     8.0000 </r>
       <r>    -5.5085     0.0000     8.0000 </r>
       <r>    -5.4437     0.0000     8.0000 </r>
       <r>    -5.3789     0.0000     8.0000 </r>
       <r>    -5.3141     0.0000     8.0000 </r>
       <r>    -5.2492     0.0000     8.0000 </r>
       <r>    -5.1844     0.0000     8.0000 </r>
       <r>    -5.1196     0.0000     8.0000 </r>
       <r>    -5.0548     0.0000     8.0000 </r>
       <r>    -4.9900     0.0000     8.0000 </r>
       <r>    -4.9252     0.0000     8.0000 </r>
       <r>    -4.8603     0.0000     8.0000 </r>
       <r>    -4.7955     0.0000     8.0000 </r>
       <r>    -4.7307     0.0000     8.0000 </r>
       <r>    -4.6659     0.0000     8.0000 </r>
       <r>    -4.6011     0.0000     8.0000 </r>
       <r>    -4.5363     0.0000     8.0000 </r>
       <r>    -4.4714     0.0000     8.0000 </r>
       <r>    -4.4066     0.0000     8.0000 </r>
       <r>    -4.3418     0.0000     8.0000 </r>
       <r>    -4.2770     0.0000     8.0000 </r>
       <r>    -4.2122     0.1542     8.0010 </r>
       <r>    -4.1474     1.8322     8.0669 </r>
       <r>    -4.0825     2.6394     8.2039 </r>
       <r>    -4.0177     5.2781     8.4583 </r>
       <r>    -3.9529     7.1049     8.8707 </r>
       <r>    -3.8881    16.6476     9.5904 </r>
       <r>    -3.8233    13.0098    10.5911 </r>
       <r>    -3.7585     7.5145    11.1832 </r>
       <r>    -3.6936     5.1995    11.6155 </r>
       <r>    -3.6288     3.8018    11.8756 </r>
       <r>    -3.5640     3.9937    12.1323 </r>
       <r>    -3.4992     3.1600    12.3549 </r>
       <r>    -3.4344     3.0867    12.5573 </r>
       <r>    -3.3696     3.0201    12.7552 </r>
       <r>    -3.3047     2.9601    12.9489 </r>
       <r>    -3.2399     2.9067    13.1390 </r>
       <r>    -3.1751     2.2633    13.3047 </r>
       <r>    -3.1103     2.2082    13.4497 </r>
       <r>    -3.0455     2.1426    13.5907 </r>
       <r>    -2.9807     2.0526    13.7270 </r>
       <r>    -2.9158     1.9322    13.8562 </r>
       <r>    -2.8510     1.8286    13.9780 </r>
       <r>    -2.7862     1.6876    14.0920 </r>
       <r>    -2.7214     1.5313    14.1964 </r>
       <r>    -2.6566     1.3980    14.2934 </r>
       <r>    -2.5918     1.1878    14.3770 </r>
       <r>    -2.5269     1.0067    14.4480 </r>
       <r>    -2.4621     0.8900    14.5083 </r>
       <r>    -2.3973     0.9593    14.5683 </r>
       <r>    -2.3325     0.7922    14.6223 </r>
       <r>    -2.2677     0.8014    14.6740 </r>
       <r>    -2.2029     0.8087    14.7262 </r>
       <r>    -2.1380     0.8140    14.7788 </r>
       <r>    -2.0732     0.8174    14.8316 </r>
       <r>    -2.0084     0.8218    14.8847 </r>
       <r>    -1.9436     0.8339    14.9383 </r>
       <r>    -1.8788     0.8490    14.9929 </r>
       <r>    -1.8140     0.8671    15.0485 </r>
       <r>    -1.7491     0.8883    15.1053 </r>
       <r>    -1.6843     0.9126    15.1637 </r>
       <r>    -1.6195     0.9399    15.2237 </r>
       <r>    -1.5547     0.9702    15.2856 </r>
       <r>    -1.4899     1.0036    15.3495 </r>
       <r>    -1.4251     0.9929    15.4147 </r>
       <r>    -1.3602     0.9644    15.4782 </r>
       <r>    -1.2954     1.7436    15.5453 </r>
       <r>    -1.2306     3.0091    15.7124 </r>
       <r>    -1.1658     3.1842    15.9130 </r>
       <r>    -1.1010     3.3778    16.1256 </r>
       <r>    -1.0362     3.5410    16.3504 </r>
       <r>    -0.9714     8.4371    16.7663 </r>
       <r>    -0.9065     6.0862    17.2486 </r>
       <r>    -0.8417     5.5989    17.6275 </r>
       <r>    -0.7769     5.0670    17.9734 </r>
       <r>    -0.7121     5.1155    18.3075 </r>
       <r>    -0.6473     4.7020    18.6231 </r>
       <r>    -0.5825     4.7392    18.9289 </r>
       <r>    -0.5176     4.8070    19.2381 </r>
       <r>    -0.4528     5.6250    19.5654 </r>
       <r>    -0.3880     5.3820    19.9382 </r>
       <r>    -0.3232     5.0721    20.2619 </r>
       <r>    -0.2584     5.0884    20.5921 </r>
       <r>    -0.1936     5.4758    20.9408 </r>
       <r>    -0.1287     6.4493    21.3153 </r>
       <r>    -0.0639     9.5876    21.8293 </r>
       <r>     0.0009     7.6736    22.4024 </r>
       <r>     0.0657     7.2682    22.8726 </r>
       <r>     0.1305     6.8572    23.3273 </r>
       <r>     0.1953     6.6272    23.7639 </r>
       <r>     0.2602     6.1248    24.1835 </r>
       <r>     0.3250     5.5700    24.5619 </r>
       <r>     0.3898     5.1294    24.9081 </r>
       <r>     0.4546     5.1602    25.2336 </r>
       <r>     0.5194     6.2020    25.6330 </r>
       <r>     0.5842     6.3860    26.0119 </r>
       <r>     0.6491     4.9103    26.3710 </r>
       <r>     0.7139     5.8170    26.7277 </r>
       <r>     0.7787     7.4427    27.1412 </r>
       <r>     0.8435     9.9445    27.6826 </r>
       <r>     0.9083     6.3377    28.2045 </r>
       <r>     0.9731     5.4712    28.5874 </r>
       <r>     1.0380     4.5684    28.9130 </r>
       <r>     1.1028     3.5478    29.1901 </r>
       <r>     1.1676     2.2572    29.3522 </r>
       <r>     1.2324     2.5475    29.5039 </r>
       <r>     1.2972     3.7372    29.7071 </r>
       <r>     1.3620     5.6003    30.0286 </r>
       <r>     1.4269     5.9023    30.3865 </r>
       <r>     1.4917     5.9340    30.7810 </r>
       <r>     1.5565     4.9255    31.1615 </r>
       <r>     1.6213     1.9641    31.3659 </r>
       <r>     1.6861     1.7139    31.4851 </r>
       <r>     1.7509     1.4668    31.5881 </r>
       <r>     1.8158     1.2228    31.6753 </r>
       <r>     1.8806     1.0122    31.7470 </r>
       <r>     1.9454     1.1176    31.8153 </r>
       <r>     2.0102     1.0730    31.8875 </r>
       <r>     2.0750     0.8026    31.9495 </r>
       <r>     2.1398     0.3063    31.9867 </r>
       <r>     2.2047     0.0870    31.9970 </r>
       <r>     2.2695     0.0125    31.9998 </r>
       <r>     2.3343     0.0000    32.0000 </r>
       <r>     2.3991     0.0000    32.0000 </r>
       <r>     2.4639     0.0000    32.0000 </r>
       <r>     2.5287     0.0002    32.0000 </r>
       <r>     2.5936     0.0009    32.0000 </r>
       <r>     2.6584     0.0022    32.0001 </r>
       <r>     2.7232     0.0040    32.0003 </r>
       <r>     2.7880     0.0064    32.0007 </r>
       <r>     2.8528     0.0093    32.0012 </r>
       <r>     2.9176     0.0128    32.0019 </r>
       <r>     2.9825     0.0168    32.0028 </r>
       <r>     3.0473     0.0214    32.0041 </r>
       <r>     3.1121     0.0266    32.0056 </r>
       <r>     3.1769     0.0323    32.0075 </r>
       <r>     3.2417     0.0386    32.0098 </r>
       <r>     3.3065     0.4143    32.0325 </r>
       <r>     3.3714     0.1992    32.0443 </r>
       <r>     3.4362     0.2344    32.0584 </r>
       <r>     3.5010     0.2730    32.0748 </r>
       <r>     3.5658     0.3151    32.0938 </r>
       <r>     3.6306     0.3605    32.1157 </r>
       <r>     3.6954     0.4094    32.1406 </r>
       <r>     3.7603     0.4786    32.1690 </r>
       <r>     3.8251     0.6978    32.2060 </r>
       <r>     3.8899     1.0228    32.2621 </r>
       <r>     3.9547     1.3667    32.3392 </r>
       <r>     4.0195     2.9092    32.4974 </r>
       <r>     4.0843     2.7915    32.6568 </r>
       <r>     4.1492     3.7100    32.8593 </r>
       <r>     4.2140     4.1014    33.1133 </r>
       <r>     4.2788     4.4209    33.3898 </r>
       <r>     4.3436     4.6702    33.6848 </r>
       <r>     4.4084     5.1538    34.0009 </r>
       <r>     4.4732     6.1680    34.3624 </r>
       <r>     4.5381     6.8945    34.7920 </r>
       <r>     4.6029     7.1232    35.2570 </r>
       <r>     4.6677    10.9768    35.7186 </r>
       <r>     4.7325     8.9021    36.3653 </r>
       <r>     4.7973     8.1235    36.9207 </r>
       <r>     4.8621     7.7487    37.4188 </r>
       <r>     4.9270     6.4793    37.8755 </r>
       <r>     4.9918     5.4266    38.2503 </r>
       <r>     5.0566     5.7699    38.6137 </r>
       <r>     5.1214     7.2032    39.0785 </r>
       <r>     5.1862     4.4559    39.4615 </r>
       <r>     5.2510     3.9271    39.7258 </r>
       <r>     5.3159     3.6827    39.9722 </r>
       <r>     5.3807     3.4772    40.2040 </r>
       <r>     5.4455     2.9659    40.4218 </r>
       <r>     5.5103     2.5482    40.6011 </r>
       <r>     5.5751     1.2605    40.7388 </r>
       <r>     5.6399     1.7537    40.8273 </r>
       <r>     5.7048     1.9300    40.9467 </r>
       <r>     5.7696     2.1037    41.0775 </r>
       <r>     5.8344     2.2749    41.2194 </r>
       <r>     5.8992     2.4436    41.3723 </r>
       <r>     5.9640     2.6097    41.5361 </r>
       <r>     6.0288     2.8046    41.7108 </r>
       <r>     6.0937     4.3177    41.9237 </r>
       <r>     6.1585     5.1804    42.2286 </r>
       <r>     6.2233     5.4024    42.5831 </r>
       <r>     6.2881     4.8727    42.9100 </r>
       <r>     6.3529     5.5358    43.2481 </r>
       <r>     6.4177     6.0240    43.6237 </r>
       <r>     6.4826     5.9487    44.0045 </r>
       <r>     6.5474     8.1506    44.4374 </r>
       <r>     6.6122     6.3332    44.9053 </r>
       <r>     6.6770     4.8016    45.2646 </r>
       <r>     6.7418     3.3705    45.5147 </r>
       <r>     6.8066     3.0257    45.6975 </r>
       <r>     6.8715     3.5073    45.9088 </r>
       <r>     6.9363     4.0748    46.1541 </r>
       <r>     7.0011    13.1180    46.5889 </r>
       <r>     7.0659     5.1167    47.2095 </r>
       <r>     7.1307     3.9218    47.5019 </r>
       <r>     7.1955     2.7123    47.6969 </r>
       <r>     7.2604     1.6920    47.8349 </r>
       <r>     7.3252     1.1441    47.9268 </r>
       <r>     7.3900     0.6029    47.9833 </r>
       <r>     7.4548     0.0000    48.0000 </r>
       <r>     7.5196     0.0000    48.0000 </r>
       <r>     7.5844     0.0000    48.0000 </r>
       <r>     7.6493     0.0000    48.0000 </r>
       <r>     7.7141     0.0000    48.0000 </r>
       <r>     7.7789     0.0000    48.0000 </r>
       <r>     7.8437     0.0000    48.0000 </r>
       <r>     7.9085     0.0000    48.0000 </r>
       <r>     7.9733     0.0000    48.0000 </r>
       <r>     8.0382     0.0000    48.0000 </r>
       <r>     8.1030     0.0000    48.0000 </r>
       <r>     8.1678     0.0000    48.0000 </r>
       <r>     8.2326     0.0000    48.0000 </r>
       <r>     8.2974     0.0000    48.0000 </r>
       <r>     8.3622     0.0000    48.0000 </r>
       <r>     8.4271     0.0000    48.0000 </r>
      </set>
     </set>
    </array>
   </total>
  </dos>
 </calculation>
 <structure name="finalpos" >
  <crystal>
   <varray name="basis" >
    <v>       5.75734662       0.00000000       0.00000000 </v>
    <v>       0.00000000       5.75734662       0.00000000 </v>
    <v>       0.00000000       0.00000000       5.75734662 </v>
   </varray>
   <i name="volume">    190.83899964 </i>
   <varray name="rec_basis" >
    <v>       0.17369112       0.00000000       0.00000000 </v>
    <v>       0.00000000       0.17369112       0.00000000 </v>
    <v>       0.00000000       0.00000000       0.17369112 </v>
   </varray>
  </crystal>
  <varray name="positions" >
   <v>       0.00000000       0.00000000       0.00000000 </v>
   <v>       0.50000000       0.50000000       0.00000000 </v>
   <v>       0.50000000       0.00000000       0.50000000 </v>
   <v>       0.00000000       0.50000000       0.50000000 </v>
   <v>       0.25000000       0.25000000       0.25000000 </v>
   <v>       0.75000000       0.25000000       0.75000000 </v>
   <v>       0.75000000       0.75000000       0.25000000 </v>
   <v>       0.25000000       0.75000000       0.75000000 </v>
  </varray>
 </structure>
</modeling>
