GaAs                                    
   4.50000000000000     
     1.162882    0.000000    0.000000
     0.000000    1.162882    0.000000
     0.000000    0.000000    1.162882
   As   Ga
     4     4
Direct
  0.000000  0.000000  0.000000
  0.500000  0.500000  0.000000
  0.500000  0.000000  0.500000
  0.000000  0.500000  0.500000
  0.250000  0.250000  0.250000
  0.750000  0.250000  0.750000
  0.750000  0.750000  0.250000
  0.250000  0.750000  0.750000
 
   60   60   60
 -59.211     -52.865     -35.085     -9.3180      19.698      47.109      69.024      83.180      89.059      87.580    
  80.590      70.370      59.217      48.975      40.125      32.624      26.397      21.329      17.269      14.047    
  11.500      9.4929      7.9182      6.6940      5.7544      5.0445      4.5185      4.1409      3.8867      3.7400    
  3.6920      3.7400      3.8867      4.1409      4.5185      5.0445      5.7544      6.6940      7.9182      9.4929    
  11.500      14.047      17.269      21.329      26.397      32.624      40.125      48.975      59.217      70.370    
  80.590      87.580      89.059      83.180      69.024      47.109      19.698     -9.3180     -35.085     -52.865    
 -52.865     -46.726     -29.536     -4.6461      23.335      49.694      70.658      84.041      89.355      87.510    
  80.327      70.050      58.936      48.771      39.983      32.533      26.346      21.309      17.271      14.065    
  11.529      9.5289      7.9589      6.7379      5.8003      5.0914      4.5660      4.1886      3.9345      3.7879    
  3.7400      3.7879      3.9345      4.1886      4.5660      5.0914      5.8003      6.7379      7.9589      9.5289    
  11.529      14.065      17.271      21.309      26.346      32.533      39.983      48.771      58.936      70.050    
  80.327      87.510      89.355      84.041      70.658      49.694      23.335     -4.6461     -29.536     -46.726    
 -35.085     -29.536     -14.017      8.3851      33.438      56.824      75.107      86.315      90.043      87.186    
  79.484      69.073      58.096      48.159      39.558      32.259      26.192      21.248      17.278      14.120    
  11.616      9.6383      8.0831      6.8716      5.9401      5.2347      4.7111      4.3346      4.0810      3.9345    
  3.8867      3.9345      4.0810      4.3346      4.7111      5.2347      5.9401      6.8716      8.0831      9.6383    
  11.616      14.120      17.278      21.248      26.192      32.259      39.558      48.159      58.096      69.073    
  79.484      87.186      90.043      86.315      75.107      56.824      33.438      8.3851     -14.017     -29.536    
 -9.3180     -4.6461      8.3851      27.091      47.803      66.799      81.137      89.162      90.597      86.307    
  77.915      67.394      56.712      47.149      38.856      31.807      25.939      21.147      17.291      14.213    
  11.765      9.8254      8.2960      7.1018      6.1812      5.4823      4.9621      4.5874      4.3346      4.1886    
  4.1409      4.1886      4.3346      4.5874      4.9621      5.4823      6.1812      7.1018      8.2960      9.8254    
  11.765      14.213      17.291      21.147      25.939      31.807      38.856      47.149      56.712      67.394    
  77.915      86.307      90.597      89.162      81.137      66.799      47.803      27.091      8.3851     -4.6461    
  19.698      23.335      33.438      47.803      63.437      77.318      87.090      91.469      90.326      84.497    
  75.460      64.993      54.814      45.761      37.889      31.183      25.591      21.012      17.314      14.350    
  11.982      10.098      8.6072      7.4393      6.5360      5.8477      5.3336      4.9621      4.7111      4.5660    
  4.5185      4.5660      4.7111      4.9621      5.3336      5.8477      6.5360      7.4393      8.6072      10.098    
  11.982      14.350      17.314      21.012      25.591      31.183      37.889      45.761      54.814      64.993    
  75.460      84.497      90.326      91.469      87.090      77.318      63.437      47.803      33.438      23.335    
  47.109      49.694      56.824      66.799      77.318      86.083      91.331      92.163      88.599      81.446    
  72.033      61.917      52.455      44.030      36.681      30.407      25.160      20.851      17.355      14.538    
  12.276      10.468      9.0309      7.9009      7.0233      6.3516      5.8477      5.4823      5.2347      5.0914    
  5.0445      5.0914      5.2347      5.4823      5.8477      6.3516      7.0233      7.9009      9.0309      10.468    
  12.276      14.538      17.355      20.851      25.160      30.407      36.681      44.030      52.455      61.917    
  72.033      81.446      88.599      92.163      91.331      86.083      77.318      66.799      56.824      49.694    
  69.024      70.658      75.107      81.137      87.090      91.331      92.649      90.494      85.033      77.041    
  67.695      58.315      49.708      42.010      35.272      29.505      24.669      20.680      17.428      14.791    
  12.663      10.952      9.5876      8.5102      7.6697      7.0233      6.5360      6.1812      5.9401      5.8003    
  5.7544      5.8003      5.9401      6.1812      6.5360      7.0233      7.6697      8.5102      9.5876      10.952    
  12.663      14.791      17.428      20.680      24.669      29.505      35.272      42.010      49.708      58.315    
  67.695      77.041      85.033      90.494      92.649      91.331      87.090      81.137      75.107      70.658    
  83.180      84.041      86.315      89.162      91.469      92.163      90.494      86.216      79.615      71.432    
  62.694      54.341      46.665      39.768      33.714      28.516      24.143      20.521      17.551      15.129    
  13.162      11.575      10.305      9.2986      8.5102      7.9009      7.4393      7.1018      6.8716      6.7379    
  6.6940      6.7379      6.8716      7.1018      7.4393      7.9009      8.5102      9.2986      10.305      11.575    
  13.162      15.129      17.551      20.521      24.143      28.516      33.714      39.768      46.665      54.341    
  62.694      71.432      79.615      86.216      90.494      92.163      91.469      89.162      86.315      84.041    
  89.059      89.355      90.043      90.597      90.326      88.599      85.033      79.615      72.720      65.041    
  57.386      50.134      43.432      37.388      32.066      27.486      23.619      20.402      17.749      15.574    
  13.802      12.368      11.218      10.305      9.5876      9.0309      8.6072      8.2960      8.0831      7.9589    
  7.9182      7.9589      8.0831      8.2960      8.6072      9.0309      9.5876      10.305      11.218      12.368    
  13.802      15.574      17.749      20.402      23.619      27.486      32.066      37.388      43.432      50.134    
  57.386      65.041      72.720      79.615      85.033      88.599      90.326      90.597      90.043      89.355    
  87.580      87.510      87.186      86.307      84.497      81.446      77.041      71.432      65.041      58.449    
  51.990      45.836      40.124      34.957      30.398      26.465      23.135      20.353      18.051      16.159    
  14.616      13.368      12.368      11.575      10.952      10.468      10.098      9.8254      9.6383      9.5289    
  9.4929      9.5289      9.6383      9.8254      10.098      10.468      10.952      11.575      12.368      13.368    
  14.616      16.159      18.051      20.353      23.135      26.465      30.398      34.957      40.124      45.836    
  51.990      58.449      65.041      71.432      77.041      81.446      84.497      86.307      87.186      87.510    
  80.590      80.327      79.484      77.915      75.460      72.033      67.695      62.694      57.386      51.990    
  46.675      41.587      36.852      32.563      28.775      25.504      22.730      20.410      18.491      16.918    
  15.641      14.616      13.802      13.162      12.663      12.276      11.982      11.765      11.616      11.529    
  11.500      11.529      11.616      11.765      11.982      12.276      12.663      13.162      13.802      14.616    
  15.641      16.918      18.491      20.410      22.730      25.504      28.775      32.563      36.852      41.587    
  46.675      51.990      57.386      62.694      67.695      72.033      75.460      77.915      79.484      80.327    
  70.370      70.050      69.073      67.394      64.993      61.917      58.315      54.341      50.134      45.836    
  41.587      37.512      33.719      30.286      27.258      24.649      22.443      20.607      19.102      17.886    
  16.918      16.159      15.574      15.129      14.791      14.538      14.350      14.213      14.120      14.065    
  14.047      14.065      14.120      14.213      14.350      14.538      14.791      15.129      15.574      16.159    
  16.918      17.886      19.102      20.607      22.443      24.649      27.258      30.286      33.719      37.512    
  41.587      45.836      50.134      54.341      58.315      61.917      64.993      67.394      69.073      70.050    
  59.217      58.936      58.096      56.712      54.814      52.455      49.708      46.665      43.432      40.124    
  36.852      33.719      30.812      28.194      25.900      23.941      22.308      20.978      19.920      19.102    
  18.491      18.051      17.749      17.551      17.428      17.355      17.314      17.291      17.278      17.271    
  17.269      17.271      17.278      17.291      17.314      17.355      17.428      17.551      17.749      18.051    
  18.491      19.102      19.920      20.978      22.308      23.941      25.900      28.194      30.812      33.719    
  36.852      40.124      43.432      46.665      49.708      52.455      54.814      56.712      58.096      58.936    
  48.975      48.771      48.159      47.149      45.761      44.030      42.010      39.768      37.388      34.957    
  32.563      30.286      28.194      26.335      24.738      23.414      22.357      21.552      20.978      20.607    
  20.410      20.353      20.402      20.521      20.680      20.851      21.012      21.147      21.248      21.309    
  21.329      21.309      21.248      21.147      21.012      20.851      20.680      20.521      20.402      20.353    
  20.410      20.607      20.978      21.552      22.357      23.414      24.738      26.335      28.194      30.286    
  32.563      34.957      37.388      39.768      42.010      44.030      45.761      47.149      48.159      48.771    
  40.125      39.983      39.558      38.856      37.889      36.681      35.272      33.714      32.066      30.398    
  28.775      27.258      25.900      24.738      23.797      23.088      22.611      22.357      22.308      22.443    
  22.730      23.135      23.619      24.143      24.669      25.160      25.591      25.939      26.192      26.346    
  26.397      26.346      26.192      25.939      25.591      25.160      24.669      24.143      23.619      23.135    
  22.730      22.443      22.308      22.357      22.611      23.088      23.797      24.738      25.900      27.258    
  28.775      30.398      32.066      33.714      35.272      36.681      37.889      38.856      39.558      39.983    
  32.624      32.533      32.259      31.807      31.183      30.407      29.505      28.516      27.486      26.465    
  25.504      24.649      23.941      23.414      23.088      22.978      23.088      23.414      23.941      24.649    
  25.504      26.465      27.486      28.516      29.505      30.407      31.183      31.807      32.259      32.533    
  32.624      32.533      32.259      31.807      31.183      30.407      29.505      28.516      27.486      26.465    
  25.504      24.649      23.941      23.414      23.088      22.978      23.088      23.414      23.941      24.649    
  25.504      26.465      27.486      28.516      29.505      30.407      31.183      31.807      32.259      32.533    
  26.397      26.346      26.192      25.939      25.591      25.160      24.669      24.143      23.619      23.135    
  22.730      22.443      22.308      22.357      22.611      23.088      23.797      24.738      25.900      27.258    
  28.775      30.398      32.066      33.714      35.272      36.681      37.889      38.856      39.558      39.983    
  40.125      39.983      39.558      38.856      37.889      36.681      35.272      33.714      32.066      30.398    
  28.775      27.258      25.900      24.738      23.797      23.088      22.611      22.357      22.308      22.443    
  22.730      23.135      23.619      24.143      24.669      25.160      25.591      25.939      26.192      26.346    
  21.329      21.309      21.248      21.147      21.012      20.851      20.680      20.521      20.402      20.353    
  20.410      20.607      20.978      21.552      22.357      23.414      24.738      26.335      28.194      30.286    
  32.563      34.957      37.388      39.768      42.010      44.030      45.761      47.149      48.159      48.771    
  48.975      48.771      48.159      47.149      45.761      44.030      42.010      39.768      37.388      34.957    
  32.563      30.286      28.194      26.335      24.738      23.414      22.357      21.552      20.978      20.607    
  20.410      20.353      20.402      20.521      20.680      20.851      21.012      21.147      21.248      21.309    
  17.269      17.271      17.278      17.291      17.314      17.355      17.428      17.551      17.749      18.051    
  18.491      19.102      19.920      20.978      22.308      23.941      25.900      28.194      30.812      33.719    
  36.852      40.124      43.432      46.665      49.708      52.455      54.814      56.712      58.096      58.936    
  59.217      58.936      58.096      56.712      54.814      52.455      49.708      46.665      43.432      40.124    
  36.852      33.719      30.812      28.194      25.900      23.941      22.308      20.978      19.920      19.102    
  18.491      18.051      17.749      17.551      17.428      17.355      17.314      17.291      17.278      17.271    
  14.047      14.065      14.120      14.213      14.350      14.538      14.791      15.129      15.574      16.159    
  16.918      17.886      19.102      20.607      22.443      24.649      27.258      30.286      33.719      37.512    
  41.587      45.836      50.134      54.341      58.315      61.917      64.993      67.394      69.073      70.050    
  70.370      70.050      69.073      67.394      64.993      61.917      58.315      54.341      50.134      45.836    
  41.587      37.512      33.719      30.286      27.258      24.649      22.443      20.607      19.102      17.886    
  16.918      16.159      15.574      15.129      14.791      14.538      14.350      14.213      14.120      14.065    
  11.500      11.529      11.616      11.765      11.982      12.276      12.663      13.162      13.802      14.616    
  15.641      16.918      18.491      20.410      22.730      25.504      28.775      32.563      36.852      41.587    
  46.675      51.990      57.386      62.694      67.695      72.033      75.460      77.915      79.484      80.327    
  80.590      80.327      79.484      77.915      75.460      72.033      67.695      62.694      57.386      51.990    
  46.675      41.587      36.852      32.563      28.775      25.504      22.730      20.410      18.491      16.918    
  15.641      14.616      13.802      13.162      12.663      12.276      11.982      11.765      11.616      11.529    
  9.4929      9.5289      9.6383      9.8254      10.098      10.468      10.952      11.575      12.368      13.368    
  14.616      16.159      18.051      20.353      23.135      26.465      30.398      34.957      40.124      45.836    
  51.990      58.449      65.041      71.432      77.041      81.446      84.497      86.307      87.186      87.510    
  87.580      87.510      87.186      86.307      84.497      81.446      77.041      71.432      65.041      58.449    
  51.990      45.836      40.124      34.957      30.398      26.465      23.135      20.353      18.051      16.159    
  14.616      13.368      12.368      11.575      10.952      10.468      10.098      9.8254      9.6383      9.5289    
  7.9182      7.9589      8.0831      8.2960      8.6072      9.0309      9.5876      10.305      11.218      12.368    
  13.802      15.574      17.749      20.402      23.619      27.486      32.066      37.388      43.432      50.134    
  57.386      65.041      72.720      79.615      85.033      88.599      90.326      90.597      90.043      89.355    
  89.059      89.355      90.043      90.597      90.326      88.599      85.033      79.615      72.720      65.041    
  57.386      50.134      43.432      37.388      32.066      27.486      23.619      20.402      17.749      15.574    
  13.802      12.368      11.218      10.305      9.5876      9.0309      8.6072      8.2960      8.0831      7.9589    
  6.6940      6.7379      6.8716      7.1018      7.4393      7.9009      8.5102      9.2986      10.305      11.575    
  13.162      15.129      17.551      20.521      24.143      28.516      33.714      39.768      46.665      54.341    
  62.694      71.432      79.615      86.216      90.494      92.163      91.469      89.162      86.315      84.041    
  83.180      84.041      86.315      89.162      91.469      92.163      90.494      86.216      79.615      71.432    
  62.694      54.341      46.665      39.768      33.714      28.516      24.143      20.521      17.551      15.129    
  13.162      11.575      10.305      9.2986      8.5102      7.9009      7.4393      7.1018      6.8716      6.7379    
  5.7544      5.8003      5.9401      6.1812      6.5360      7.0233      7.6697      8.5102      9.5876      10.952    
  12.663      14.791      17.428      20.680      24.669      29.505      35.272      42.010      49.708      58.315    
  67.695      77.041      85.033      90.494      92.649      91.331      87.090      81.137      75.107      70.658    
  69.024      70.658      75.107      81.137      87.090      91.331      92.649      90.494      85.033      77.041    
  67.695      58.315      49.708      42.010      35.272      29.505      24.669      20.680      17.428      14.791    
  12.663      10.952      9.5876      8.5102      7.6697      7.0233      6.5360      6.1812      5.9401      5.8003    
  5.0445      5.0914      5.2347      5.4823      5.8477      6.3516      7.0233      7.9009      9.0309      10.468    
  12.276      14.538      17.355      20.851      25.160      30.407      36.681      44.030      52.455      61.917    
  72.033      81.446      88.599      92.163      91.331      86.083      77.318      66.799      56.824      49.694    
  47.109      49.694      56.824      66.799      77.318      86.083      91.331      92.163      88.599      81.446    
  72.033      61.917      52.455      44.030      36.681      30.407      25.160      20.851      17.355      14.538    
  12.276      10.468      9.0309      7.9009      7.0233      6.3516      5.8477      5.4823      5.2347      5.0914    
  4.5185      4.5660      4.7111      4.9621      5.3336      5.8477      6.5360      7.4393      8.6072      10.098    
  11.982      14.350      17.314      21.012      25.591      31.183      37.889      45.761      54.814      64.993    
  75.460      84.497      90.326      91.469      87.090      77.318      63.437      47.803      33.438      23.335    
  19.698      23.335      33.438      47.803      63.437      77.318      87.090      91.469      90.326      84.497    
  75.460      64.993      54.814      45.761      37.889      31.183      25.591      21.012      17.314      14.350    
  11.982      10.098      8.6072      7.4393      6.5360      5.8477      5.3336      4.9621      4.7111      4.5660    
  4.1409      4.1886      4.3346      4.5874      4.9621      5.4823      6.1812      7.1018      8.2960      9.8254    
  11.765      14.213      17.291      21.147      25.939      31.807      38.856      47.149      56.712      67.394    
  77.915      86.307      90.597      89.162      81.137      66.799      47.803      27.091      8.3851     -4.6461    
 -9.3180     -4.6461      8.3851      27.091      47.803      66.799      81.137      89.162      90.597      86.307    
  77.915      67.394      56.712      47.149      38.856      31.807      25.939      21.147      17.291      14.213    
  11.765      9.8254      8.2960      7.1018      6.1812      5.4823      4.9621      4.5874      4.3346      4.1886    
  3.8867      3.9345      4.0810      4.3346      4.7111      5.2347      5.9401      6.8716      8.0831      9.6383    
  11.616      14.120      17.278      21.248      26.192      32.259      39.558      48.159      58.096      69.073    
  79.484      87.186      90.043      86.315      75.107      56.824      33.438      8.3851     -14.017     -29.536    
 -35.085     -29.536     -14.017      8.3851      33.438      56.824      75.107      86.315      90.043      87.186    
  79.484      69.073      58.096      48.159      39.558      32.259      26.192      21.248      17.278      14.120    
  11.616      9.6383      8.0831      6.8716      5.9401      5.2347      4.7111      4.3346      4.0810      3.9345    
  3.7400      3.7879      3.9345      4.1886      4.5660      5.0914      5.8003      6.7379      7.9589      9.5289    
  11.529      14.065      17.271      21.309      26.346      32.533      39.983      48.771      58.936      70.050    
  80.327      87.510      89.355      84.041      70.658      49.694      23.335     -4.6461     -29.536     -46.726    
 -52.865     -46.726     -29.536     -4.6461      23.335      49.694      70.658      84.041      89.355      87.510    
  80.327      70.050      58.936      48.771      39.983      32.533      26.346      21.309      17.271      14.065    
  11.529      9.5289      7.9589      6.7379      5.8003      5.0914      4.5660      4.1886      3.9345      3.7879    
  3.6920      3.7400      3.8867      4.1409      4.5185      5.0445      5.7544      6.6940      7.9182      9.4929    
  11.500      14.047      17.269      21.329      26.397      32.624      40.125      48.975      59.217      70.370    
  80.590      87.580      89.059      83.180      69.024      47.109      19.698     -9.3180     -35.085     -52.865    
 -59.211     -52.865     -35.085     -9.3180      19.698      47.109      69.024      83.180      89.059      87.580    
  80.590      70.370      59.217      48.975      40.125      32.624      26.397      21.329      17.269      14.047    
  11.500      9.4929      7.9182      6.6940      5.7544      5.0445      4.5185      4.1409      3.8867      3.7400    
  3.7400      3.7879      3.9345      4.1886      4.5660      5.0914      5.8003      6.7379      7.9589      9.5289    
  11.529      14.065      17.271      21.309      26.346      32.533      39.983      48.771      58.936      70.050    
  80.327      87.510      89.355      84.041      70.658      49.694      23.335     -4.6461     -29.536     -46.726    
 -52.865     -46.726     -29.536     -4.6461      23.335      49.694      70.658      84.041      89.355      87.510    
  80.327      70.050      58.936      48.771      39.983      32.533      26.346      21.309      17.271      14.065    
  11.529      9.5289      7.9589      6.7379      5.8003      5.0914      4.5660      4.1886      3.9345      3.7879    
  3.8867      3.9345      4.0810      4.3346      4.7111      5.2347      5.9401      6.8716      8.0831      9.6383    
  11.616      14.120      17.278      21.248      26.192      32.259      39.558      48.159      58.096      69.073    
  79.484      87.186      90.043      86.315      75.107      56.824      33.438      8.3851     -14.017     -29.536    
 -35.085     -29.536     -14.017      8.3851      33.438      56.824      75.107      86.315      90.043      87.186    
  79.484      69.073      58.096      48.159      39.558      32.259      26.192      21.248      17.278      14.120    
  11.616      9.6383      8.0831      6.8716      5.9401      5.2347      4.7111      4.3346      4.0810      3.9345    
  4.1409      4.1886      4.3346      4.5874      4.9621      5.4823      6.1812      7.1018      8.2960      9.8254    
  11.765      14.213      17.291      21.147      25.939      31.807      38.856      47.149      56.712      67.394    
  77.915      86.307      90.597      89.162      81.137      66.799      47.803      27.091      8.3851     -4.6461    
 -9.3180     -4.6461      8.3851      27.091      47.803      66.799      81.137      89.162      90.597      86.307    
  77.915      67.394      56.712      47.149      38.856      31.807      25.939      21.147      17.291      14.213    
  11.765      9.8254      8.2960      7.1018      6.1812      5.4823      4.9621      4.5874      4.3346      4.1886    
  4.5185      4.5660      4.7111      4.9621      5.3336      5.8477      6.5360      7.4393      8.6072      10.098    
  11.982      14.350      17.314      21.012      25.591      31.183      37.889      45.761      54.814      64.993    
  75.460      84.497      90.326      91.469      87.090      77.318      63.437      47.803      33.438      23.335    
  19.698      23.335      33.438      47.803      63.437      77.318      87.090      91.469      90.326      84.497    
  75.460      64.993      54.814      45.761      37.889      31.183      25.591      21.012      17.314      14.350    
  11.982      10.098      8.6072      7.4393      6.5360      5.8477      5.3336      4.9621      4.7111      4.5660    
  5.0445      5.0914      5.2347      5.4823      5.8477      6.3516      7.0233      7.9009      9.0309      10.468    
  12.276      14.538      17.355      20.851      25.160      30.407      36.681      44.030      52.455      61.917    
  72.033      81.446      88.599      92.163      91.331      86.083      77.318      66.799      56.824      49.694    
  47.109      49.694      56.824      66.799      77.318      86.083      91.331      92.163      88.599      81.446    
  72.033      61.917      52.455      44.030      36.681      30.407      25.160      20.851      17.355      14.538    
  12.276      10.468      9.0309      7.9009      7.0233      6.3516      5.8477      5.4823      5.2347      5.0914    
  5.7544      5.8003      5.9401      6.1812      6.5360      7.0233      7.6697      8.5102      9.5876      10.952    
  12.663      14.791      17.428      20.680      24.669      29.505      35.272      42.010      49.708      58.315    
  67.695      77.041      85.033      90.494      92.649      91.331      87.090      81.137      75.107      70.658    
  69.024      70.658      75.107      81.137      87.090      91.331      92.649      90.494      85.033      77.041    
  67.695      58.315      49.708      42.010      35.272      29.505      24.669      20.680      17.428      14.791    
  12.663      10.952      9.5876      8.5102      7.6697      7.0233      6.5360      6.1812      5.9401      5.8003    
  6.6940      6.7379      6.8716      7.1018      7.4393      7.9009      8.5102      9.2986      10.305      11.575    
  13.162      15.129      17.551      20.521      24.143      28.516      33.714      39.768      46.665      54.341    
  62.694      71.432      79.615      86.216      90.494      92.163      91.469      89.162      86.315      84.041    
  83.180      84.041      86.315      89.162      91.469      92.163      90.494      86.216      79.615      71.432    
  62.694      54.341      46.665      39.768      33.714      28.516      24.143      20.521      17.551      15.129    
  13.162      11.575      10.305      9.2986      8.5102      7.9009      7.4393      7.1018      6.8716      6.7379    
  7.9182      7.9589      8.0831      8.2960      8.6072      9.0309      9.5876      10.305      11.218      12.368    
  13.802      15.574      17.749      20.402      23.619      27.486      32.066      37.388      43.432      50.134    
  57.386      65.041      72.720      79.615      85.033      88.599      90.326      90.597      90.043      89.355    
  89.059      89.355      90.043      90.597      90.326      88.599      85.033      79.615      72.720      65.041    
  57.386      50.134      43.432      37.388      32.066      27.486      23.619      20.402      17.749      15.574    
  13.802      12.368      11.218      10.305      9.5876      9.0309      8.6072      8.2960      8.0831      7.9589    
  9.4929      9.5289      9.6383      9.8254      10.098      10.468      10.952      11.575      12.368      13.368    
  14.616      16.159      18.051      20.353      23.135      26.465      30.398      34.957      40.124      45.836    
  51.990      58.449      65.041      71.432      77.041      81.446      84.497      86.307      87.186      87.510    
  87.580      87.510      87.186      86.307      84.497      81.446      77.041      71.432      65.041      58.449    
  51.990      45.836      40.124      34.957      30.398      26.465      23.135      20.353      18.051      16.159    
  14.616      13.368      12.368      11.575      10.952      10.468      10.098      9.8254      9.6383      9.5289    
  11.500      11.529      11.616      11.765      11.982      12.276      12.663      13.162      13.802      14.616    
  15.641      16.918      18.491      20.410      22.730      25.504      28.775      32.563      36.852      41.587    
  46.675      51.990      57.386      62.694      67.695      72.033      75.460      77.915      79.484      80.327    