GaAs                                    
   4.50000000000000     
     1.162882    0.000000    0.000000
     0.000000    1.162882    0.000000
     0.000000    0.000000    1.162882
   As   Ga
     4     4
Direct
  0.000000  0.000000  0.000000
  0.500000  0.500000  0.000000
  0.500000  0.000000  0.500000
  0.000000  0.500000  0.500000
  0.250000  0.250000  0.250000
  0.750000  0.250000  0.750000
  0.750000  0.750000  0.250000
  0.250000  0.750000  0.750000
 
   60   60   60
 -.59211300651E+02 -.52865091439E+02 -.35085402517E+02 -.93179834065E+01 0.19698337371E+02
 0.47108684254E+02 0.69023602132E+02 0.83179873768E+02 0.89059404831E+02 0.87579656628E+02
 0.80589742012E+02 0.70369719187E+02 0.59216556997E+02 0.48975301778E+02 0.40125037980E+02
 0.32623929949E+02 0.26396662417E+02 0.21328968850E+02 0.17269076703E+02 0.14046931786E+02
 0.11500326703E+02 0.94928893118E+01 0.79181575288E+01 0.66939710179E+01 0.57544486703E+01
 0.50445393572E+01 0.45185383690E+01 0.41409215633E+01 0.38866888857E+01 0.37399678032E+01
 0.36920022646E+01 0.37399678032E+01 0.38866888857E+01 0.41409215633E+01 0.45185383690E+01
 0.50445393572E+01 0.57544486703E+01 0.66939710179E+01 0.79181575288E+01 0.94928893118E+01
 0.11500326703E+02 0.14046931786E+02 0.17269076703E+02 0.21328968850E+02 0.26396662417E+02
 0.32623929949E+02 0.40125037980E+02 0.48975301778E+02 0.59216556997E+02 0.70369719187E+02
 0.80589742012E+02 0.87579656628E+02 0.89059404831E+02 0.83179873768E+02 0.69023602132E+02
 0.47108684254E+02 0.19698337371E+02 -.93179834065E+01 -.35085402517E+02 -.52865091439E+02
 -.52865091439E+02 -.46726395028E+02 -.29535813910E+02 -.46461218007E+01 0.23335432797E+02
 0.49694027301E+02 0.70658352879E+02 0.84041306788E+02 0.89354836371E+02 0.87509910718E+02
 0.80327490988E+02 0.70050291419E+02 0.58935807960E+02 0.48770594463E+02 0.39983083409E+02
 0.32532626700E+02 0.26345501842E+02 0.21308570189E+02 0.17271230348E+02 0.14064919751E+02
 0.11529091782E+02 0.95288733921E+01 0.79589294180E+01 0.67378515830E+01 0.58002519487E+01
 0.50914369389E+01 0.45659958370E+01 0.41886454783E+01 0.39345489175E+01 0.37879055921E+01
 0.37399678032E+01 0.37879055921E+01 0.39345489175E+01 0.41886454783E+01 0.45659958370E+01
 0.50914369389E+01 0.58002519487E+01 0.67378515830E+01 0.79589294180E+01 0.95288733921E+01
 0.11529091782E+02 0.14064919751E+02 0.17271230348E+02 0.21308570189E+02 0.26345501842E+02
 0.32532626700E+02 0.39983083409E+02 0.48770594463E+02 0.58935807960E+02 0.70050291419E+02
 0.80327490988E+02 0.87509910718E+02 0.89354836371E+02 0.84041306788E+02 0.70658352879E+02
 0.49694027301E+02 0.23335432797E+02 -.46461218007E+01 -.29535813910E+02 -.46726395028E+02
 -.35085402517E+02 -.29535813910E+02 -.14016717980E+02 0.83851152242E+01 0.33437666042E+02
 0.56823954081E+02 0.75107049912E+02 0.86314680905E+02 0.90043495861E+02 0.87186153107E+02
 0.79483812573E+02 0.69072519306E+02 0.58096004275E+02 0.48158854096E+02 0.39558376250E+02
 0.32259230343E+02 0.26192252876E+02 0.21247561275E+02 0.17278022440E+02 0.14119511222E+02
 0.11616401444E+02 0.96382513340E+01 0.80830590638E+01 0.68716433992E+01 0.59400790126E+01
 0.52347410940E+01 0.47111076388E+01 0.43346273150E+01 0.40809627814E+01 0.39345489175E+01
 0.38866888857E+01 0.39345489175E+01 0.40809627814E+01 0.43346273150E+01 0.47111076388E+01
 0.52347410940E+01 0.59400790126E+01 0.68716433992E+01 0.80830590638E+01 0.96382513340E+01
 0.11616401444E+02 0.14119511222E+02 0.17278022440E+02 0.21247561275E+02 0.26192252876E+02
 0.32259230343E+02 0.39558376250E+02 0.48158854096E+02 0.58096004275E+02 0.69072519306E+02
 0.79483812573E+02 0.87186153107E+02 0.90043495861E+02 0.86314680905E+02 0.75107049912E+02
 0.56823954081E+02 0.33437666042E+02 0.83851152242E+01 -.14016717980E+02 -.29535813910E+02
 -.93179834065E+01 -.46461218007E+01 0.83851152242E+01 0.27090972087E+02 0.47803257853E+02
 0.66798797623E+02 0.81136700662E+02 0.89162129988E+02 0.90596984108E+02 0.86307163613E+02
 0.77914816256E+02 0.67394238860E+02 0.56711672668E+02 0.47149040714E+02 0.38855982995E+02
 0.31806621254E+02 0.25938664336E+02 0.21147269720E+02 0.17290961068E+02 0.14212899984E+02
 0.11765464130E+02 0.98253742623E+01 0.82960109374E+01 0.71017935242E+01 0.61811744043E+01
 0.54822991133E+01 0.49621492844E+01 0.45874189775E+01 0.43346273150E+01 0.41886454783E+01
 0.41409215633E+01 0.41886454783E+01 0.43346273150E+01 0.45874189775E+01 0.49621492844E+01
 0.54822991133E+01 0.61811744043E+01 0.71017935242E+01 0.82960109374E+01 0.98253742623E+01
 0.11765464130E+02 0.14212899984E+02 0.17290961068E+02 0.21147269720E+02 0.25938664336E+02
 0.31806621254E+02 0.38855982995E+02 0.47149040714E+02 0.56711672668E+02 0.67394238860E+02
 0.77914816256E+02 0.86307163613E+02 0.90596984108E+02 0.89162129988E+02 0.81136700662E+02
 0.66798797623E+02 0.47803257853E+02 0.27090972087E+02 0.83851152242E+01 -.46461218007E+01
 0.19698337371E+02 0.23335432797E+02 0.33437666042E+02 0.47803257853E+02 0.63436754665E+02
 0.77317998496E+02 0.87089588399E+02 0.91469130787E+02 0.90326412094E+02 0.84496825061E+02
 0.75460390819E+02 0.64992971497E+02 0.54814322465E+02 0.45761073531E+02 0.37888759225E+02
 0.31183290032E+02 0.25590536553E+02 0.21012031525E+02 0.17314031962E+02 0.14349704141E+02
 0.11982233889E+02 0.10097892342E+02 0.86071973511E+01 0.74393445684E+01 0.65359773228E+01
 0.58476878064E+01 0.53335895822E+01 0.49621492844E+01 0.47111076388E+01 0.45659958370E+01
 0.45185383690E+01 0.45659958370E+01 0.47111076388E+01 0.49621492844E+01 0.53335895822E+01
 0.58476878064E+01 0.65359773228E+01 0.74393445684E+01 0.86071973511E+01 0.10097892342E+02
 0.11982233889E+02 0.14349704141E+02 0.17314031962E+02 0.21012031525E+02 0.25590536553E+02
 0.31183290032E+02 0.37888759225E+02 0.45761073531E+02 0.54814322465E+02 0.64992971497E+02
 0.75460390819E+02 0.84496825061E+02 0.90326412094E+02 0.91469130787E+02 0.87089588399E+02
 0.77317998496E+02 0.63436754665E+02 0.47803257853E+02 0.33437666042E+02 0.23335432797E+02
 0.47108684254E+02 0.49694027301E+02 0.56823954081E+02 0.66798797623E+02 0.77317998496E+02
 0.86082649609E+02 0.91331332914E+02 0.92162523394E+02 0.88599207805E+02 0.81446394464E+02
 0.72033210624E+02 0.61917359110E+02 0.52455245313E+02 0.44030284997E+02 0.36681368707E+02
 0.30406672090E+02 0.25160325412E+02 0.20851177861E+02 0.17355224483E+02 0.14538171959E+02
 0.12276416779E+02 0.10467667987E+02 0.90308927559E+01 0.79009375165E+01 0.70232905041E+01
 0.63515960974E+01 0.58476878064E+01 0.54822991133E+01 0.52347410940E+01 0.50914369389E+01
 0.50445393572E+01 0.50914369389E+01 0.52347410940E+01 0.54822991133E+01 0.58476878064E+01
 0.63515960974E+01 0.70232905041E+01 0.79009375165E+01 0.90308927559E+01 0.10467667987E+02
 0.12276416779E+02 0.14538171959E+02 0.17355224483E+02 0.20851177861E+02 0.25160325412E+02
 0.30406672090E+02 0.36681368707E+02 0.44030284997E+02 0.52455245313E+02 0.61917359110E+02
 0.72033210624E+02 0.81446394464E+02 0.88599207805E+02 0.92162523394E+02 0.91331332914E+02
 0.86082649609E+02 0.77317998496E+02 0.66798797623E+02 0.56823954081E+02 0.49694027301E+02
 0.69023602132E+02 0.70658352879E+02 0.75107049912E+02 0.81136700662E+02 0.87089588399E+02
 0.91331332914E+02 0.92649232076E+02 0.90494313341E+02 0.85033168789E+02 0.77040801376E+02
 0.67694902306E+02 0.58315221506E+02 0.49707732665E+02 0.42009579579E+02 0.35272381988E+02
 0.29504875353E+02 0.24668534264E+02 0.20680264880E+02 0.17427746184E+02 0.14791445934E+02
 0.12662786257E+02 0.10952121945E+02 0.95875987177E+01 0.85102019290E+01 0.76697080885E+01
 0.70232905041E+01 0.65359773228E+01 0.61811744043E+01 0.59400790126E+01 0.58002519487E+01
 0.57544486703E+01 0.58002519487E+01 0.59400790126E+01 0.61811744043E+01 0.65359773228E+01
 0.70232905041E+01 0.76697080885E+01 0.85102019290E+01 0.95875987177E+01 0.10952121945E+02
 0.12662786257E+02 0.14791445934E+02 0.17427746184E+02 0.20680264880E+02 0.24668534264E+02
 0.29504875353E+02 0.35272381988E+02 0.42009579579E+02 0.49707732665E+02 0.58315221506E+02
 0.67694902306E+02 0.77040801376E+02 0.85033168789E+02 0.90494313341E+02 0.92649232076E+02
 0.91331332914E+02 0.87089588399E+02 0.81136700662E+02 0.75107049912E+02 0.70658352879E+02
 0.83179873768E+02 0.84041306788E+02 0.86314680905E+02 0.89162129988E+02 0.91469130787E+02
 0.92162523394E+02 0.90494313341E+02 0.86215809943E+02 0.79614825489E+02 0.71431949310E+02
 0.62693690657E+02 0.54340991141E+02 0.46664522871E+02 0.39768269010E+02 0.33713530855E+02
 0.28516115441E+02 0.24143438510E+02 0.20521223963E+02 0.17550619957E+02 0.15128507393E+02
 0.13162309685E+02 0.11575374360E+02 0.10305071897E+02 0.92985880387E+01 0.85102019290E+01
 0.79009375165E+01 0.74393445684E+01 0.71017935242E+01 0.68716433992E+01 0.67378515830E+01
 0.66939710179E+01 0.67378515830E+01 0.68716433992E+01 0.71017935242E+01 0.74393445684E+01
 0.79009375165E+01 0.85102019290E+01 0.92985880387E+01 0.10305071897E+02 0.11575374360E+02
 0.13162309685E+02 0.15128507393E+02 0.17550619957E+02 0.20521223963E+02 0.24143438510E+02
 0.28516115441E+02 0.33713530855E+02 0.39768269010E+02 0.46664522871E+02 0.54340991141E+02
 0.62693690657E+02 0.71431949310E+02 0.79614825489E+02 0.86215809943E+02 0.90494313341E+02
 0.92162523394E+02 0.91469130787E+02 0.89162129988E+02 0.86314680905E+02 0.84041306788E+02
 0.89059404831E+02 0.89354836371E+02 0.90043495861E+02 0.90596984108E+02 0.90326412094E+02
 0.88599207805E+02 0.85033168789E+02 0.79614825489E+02 0.72719756377E+02 0.65041163004E+02
 0.57385882176E+02 0.50133704010E+02 0.43432162552E+02 0.37388003128E+02 0.32066467972E+02
 0.27486255654E+02 0.23619495775E+02 0.20401600365E+02 0.17748549952E+02 0.15574387828E+02
 0.13802433592E+02 0.12368409270E+02 0.11218270895E+02 0.10305071897E+02 0.95875987177E+01
 0.90308927559E+01 0.86071973511E+01 0.82960109374E+01 0.80830590638E+01 0.79589294180E+01
 0.79181575288E+01 0.79589294180E+01 0.80830590638E+01 0.82960109374E+01 0.86071973511E+01
 0.90308927559E+01 0.95875987177E+01 0.10305071897E+02 0.11218270895E+02 0.12368409270E+02
 0.13802433592E+02 0.15574387828E+02 0.17748549952E+02 0.20401600365E+02 0.23619495775E+02
 0.27486255654E+02 0.32066467972E+02 0.37388003128E+02 0.43432162552E+02 0.50133704010E+02
 0.57385882176E+02 0.65041163004E+02 0.72719756377E+02 0.79614825489E+02 0.85033168789E+02
 0.88599207805E+02 0.90326412094E+02 0.90596984108E+02 0.90043495861E+02 0.89354836371E+02
 0.87579656628E+02 0.87509910718E+02 0.87186153107E+02 0.86307163613E+02 0.84496825061E+02
 0.81446394464E+02 0.77040801376E+02 0.71431949310E+02 0.65041163004E+02 0.58448914746E+02
 0.51990456151E+02 0.45836165976E+02 0.40123867133E+02 0.34956881330E+02 0.30398022552E+02
 0.26465329945E+02 0.23135070902E+02 0.20353176575E+02 0.18051035791E+02 0.16159415657E+02
 0.14616252354E+02 0.13368131749E+02 0.12368409270E+02 0.11575374360E+02 0.10952121945E+02
 0.10467667987E+02 0.10097892342E+02 0.98253742623E+01 0.96382513340E+01 0.95288733921E+01
 0.94928893118E+01 0.95288733921E+01 0.96382513340E+01 0.98253742623E+01 0.10097892342E+02
 0.10467667987E+02 0.10952121945E+02 0.11575374360E+02 0.12368409270E+02 0.13368131749E+02
 0.14616252354E+02 0.16159415657E+02 0.18051035791E+02 0.20353176575E+02 0.23135070902E+02
 0.26465329945E+02 0.30398022552E+02 0.34956881330E+02 0.40123867133E+02 0.45836165976E+02
 0.51990456151E+02 0.58448914746E+02 0.65041163004E+02 0.71431949310E+02 0.77040801376E+02
 0.81446394464E+02 0.84496825061E+02 0.86307163613E+02 0.87186153107E+02 0.87509910718E+02
 0.80589742012E+02 0.80327490988E+02 0.79483812573E+02 0.77914816256E+02 0.75460390819E+02
 0.72033210624E+02 0.67694902306E+02 0.62693690657E+02 0.57385882176E+02 0.51990456151E+02
 0.46674589782E+02 0.41586884913E+02 0.36851831042E+02 0.32562701977E+02 0.28774886538E+02
 0.25503780713E+02 0.22729914525E+02 0.20410181963E+02 0.18490860409E+02 0.16917746953E+02
 0.15641104871E+02 0.14616252354E+02 0.13802433592E+02 0.13162309685E+02 0.12662786257E+02
 0.12276416779E+02 0.11982233889E+02 0.11765464130E+02 0.11616401444E+02 0.11529091782E+02
 0.11500326703E+02 0.11529091782E+02 0.11616401444E+02 0.11765464130E+02 0.11982233889E+02
 0.12276416779E+02 0.12662786257E+02 0.13162309685E+02 0.13802433592E+02 0.14616252354E+02
 0.15641104871E+02 0.16917746953E+02 0.18490860409E+02 0.20410181963E+02 0.22729914525E+02
 0.25503780713E+02 0.28774886538E+02 0.32562701977E+02 0.36851831042E+02 0.41586884913E+02
 0.46674589782E+02 0.51990456151E+02 0.57385882176E+02 0.62693690657E+02 0.67694902306E+02
 0.72033210624E+02 0.75460390819E+02 0.77914816256E+02 0.79483812573E+02 0.80327490988E+02
 0.70369719187E+02 0.70050291419E+02 0.69072519306E+02 0.67394238860E+02 0.64992971497E+02
 0.61917359110E+02 0.58315221506E+02 0.54340991141E+02 0.50133704010E+02 0.45836165976E+02
 0.41586884913E+02 0.37512398625E+02 0.33719226799E+02 0.30286029472E+02 0.27258394349E+02
 0.24648833924E+02 0.22442610793E+02 0.20607286258E+02 0.19102352939E+02 0.17885941402E+02
 0.16917746953E+02 0.16159415657E+02 0.15574387828E+02 0.15128507393E+02 0.14791445934E+02
 0.14538171959E+02 0.14349704141E+02 0.14212899984E+02 0.14119511222E+02 0.14064919751E+02
 0.14046931786E+02 0.14064919751E+02 0.14119511222E+02 0.14212899984E+02 0.14349704141E+02
 0.14538171959E+02 0.14791445934E+02 0.15128507393E+02 0.15574387828E+02 0.16159415657E+02
 0.16917746953E+02 0.17885941402E+02 0.19102352939E+02 0.20607286258E+02 0.22442610793E+02
 0.24648833924E+02 0.27258394349E+02 0.30286029472E+02 0.33719226799E+02 0.37512398625E+02
 0.41586884913E+02 0.45836165976E+02 0.50133704010E+02 0.54340991141E+02 0.58315221506E+02
 0.61917359110E+02 0.64992971497E+02 0.67394238860E+02 0.69072519306E+02 0.70050291419E+02
 0.59216556997E+02 0.58935807960E+02 0.58096004275E+02 0.56711672668E+02 0.54814322465E+02
 0.52455245313E+02 0.49707732665E+02 0.46664522871E+02 0.43432162552E+02 0.40123867133E+02
 0.36851831042E+02 0.33719226799E+02 0.30812299708E+02 0.28193855355E+02 0.25900000402E+02
 0.23941351629E+02 0.22308231320E+02 0.20977723022E+02 0.19920004241E+02 0.19102352939E+02
 0.18490860409E+02 0.18051035791E+02 0.17748549952E+02 0.17550619957E+02 0.17427746184E+02
 0.17355224483E+02 0.17314031962E+02 0.17290961068E+02 0.17278022440E+02 0.17271230348E+02
 0.17269076703E+02 0.17271230348E+02 0.17278022440E+02 0.17290961068E+02 0.17314031962E+02
 0.17355224483E+02 0.17427746184E+02 0.17550619957E+02 0.17748549952E+02 0.18051035791E+02
 0.18490860409E+02 0.19102352939E+02 0.19920004241E+02 0.20977723022E+02 0.22308231320E+02
 0.23941351629E+02 0.25900000402E+02 0.28193855355E+02 0.30812299708E+02 0.33719226799E+02
 0.36851831042E+02 0.40123867133E+02 0.43432162552E+02 0.46664522871E+02 0.49707732665E+02
 0.52455245313E+02 0.54814322465E+02 0.56711672668E+02 0.58096004275E+02 0.58935807960E+02
 0.48975301778E+02 0.48770594463E+02 0.48158854096E+02 0.47149040714E+02 0.45761073531E+02
 0.44030284997E+02 0.42009579579E+02 0.39768269010E+02 0.37388003128E+02 0.34956881330E+02
 0.32562701977E+02 0.30286029472E+02 0.28193855355E+02 0.26334970875E+02 0.24738161104E+02
 0.23413588302E+02 0.22356545072E+02 0.21551908457E+02 0.20977723022E+02 0.20607286258E+02
 0.20410181963E+02 0.20353176575E+02 0.20401600365E+02 0.20521223963E+02 0.20680264880E+02
 0.20851177861E+02 0.21012031525E+02 0.21147269720E+02 0.21247561275E+02 0.21308570189E+02
 0.21328968850E+02 0.21308570189E+02 0.21247561275E+02 0.21147269720E+02 0.21012031525E+02
 0.20851177861E+02 0.20680264880E+02 0.20521223963E+02 0.20401600365E+02 0.20353176575E+02
 0.20410181963E+02 0.20607286258E+02 0.20977723022E+02 0.21551908457E+02 0.22356545072E+02
 0.23413588302E+02 0.24738161104E+02 0.26334970875E+02 0.28193855355E+02 0.30286029472E+02
 0.32562701977E+02 0.34956881330E+02 0.37388003128E+02 0.39768269010E+02 0.42009579579E+02
 0.44030284997E+02 0.45761073531E+02 0.47149040714E+02 0.48158854096E+02 0.48770594463E+02
 0.40125037980E+02 0.39983083409E+02 0.39558376250E+02 0.38855982995E+02 0.37888759225E+02
 0.36681368707E+02 0.35272381988E+02 0.33713530855E+02 0.32066467972E+02 0.30398022552E+02
 0.28774886538E+02 0.27258394349E+02 0.25900000402E+02 0.24738161104E+02 0.23797203190E+02
 0.23088184804E+02 0.22610994568E+02 0.22356545072E+02 0.22308231320E+02 0.22442610793E+02
 0.22729914525E+02 0.23135070902E+02 0.23619495775E+02 0.24143438510E+02 0.24668534264E+02
 0.25160325412E+02 0.25590536553E+02 0.25938664336E+02 0.26192252876E+02 0.26345501842E+02
 0.26396662417E+02 0.26345501842E+02 0.26192252876E+02 0.25938664336E+02 0.25590536553E+02
 0.25160325412E+02 0.24668534264E+02 0.24143438510E+02 0.23619495775E+02 0.23135070902E+02
 0.22729914525E+02 0.22442610793E+02 0.22308231320E+02 0.22356545072E+02 0.22610994568E+02
 0.23088184804E+02 0.23797203190E+02 0.24738161104E+02 0.25900000402E+02 0.27258394349E+02
 0.28774886538E+02 0.30398022552E+02 0.32066467972E+02 0.33713530855E+02 0.35272381988E+02
 0.36681368707E+02 0.37888759225E+02 0.38855982995E+02 0.39558376250E+02 0.39983083409E+02
 0.32623929949E+02 0.32532626700E+02 0.32259230343E+02 0.31806621254E+02 0.31183290032E+02
 0.30406672090E+02 0.29504875353E+02 0.28516115441E+02 0.27486255654E+02 0.26465329945E+02
 0.25503780713E+02 0.24648833924E+02 0.23941351629E+02 0.23413588302E+02 0.23088184804E+02
 0.22978291692E+02 0.23088184804E+02 0.23413588302E+02 0.23941351629E+02 0.24648833924E+02
 0.25503780713E+02 0.26465329945E+02 0.27486255654E+02 0.28516115441E+02 0.29504875353E+02
 0.30406672090E+02 0.31183290032E+02 0.31806621254E+02 0.32259230343E+02 0.32532626700E+02
 0.32623929949E+02 0.32532626700E+02 0.32259230343E+02 0.31806621254E+02 0.31183290032E+02
 0.30406672090E+02 0.29504875353E+02 0.28516115441E+02 0.27486255654E+02 0.26465329945E+02
 0.25503780713E+02 0.24648833924E+02 0.23941351629E+02 0.23413588302E+02 0.23088184804E+02
 0.22978291692E+02 0.23088184804E+02 0.23413588302E+02 0.23941351629E+02 0.24648833924E+02
 0.25503780713E+02 0.26465329945E+02 0.27486255654E+02 0.28516115441E+02 0.29504875353E+02
 0.30406672090E+02 0.31183290032E+02 0.31806621254E+02 0.32259230343E+02 0.32532626700E+02
 0.26396662417E+02 0.26345501842E+02 0.26192252876E+02 0.25938664336E+02 0.25590536553E+02
 0.25160325412E+02 0.24668534264E+02 0.24143438510E+02 0.23619495775E+02 0.23135070902E+02
 0.22729914525E+02 0.22442610793E+02 0.22308231320E+02 0.22356545072E+02 0.22610994568E+02
 0.23088184804E+02 0.23797203190E+02 0.24738161104E+02 0.25900000402E+02 0.27258394349E+02
 0.28774886538E+02 0.30398022552E+02 0.32066467972E+02 0.33713530855E+02 0.35272381988E+02
 0.36681368707E+02 0.37888759225E+02 0.38855982995E+02 0.39558376250E+02 0.39983083409E+02
 0.40125037980E+02 0.39983083409E+02 0.39558376250E+02 0.38855982995E+02 0.37888759225E+02
 0.36681368707E+02 0.35272381988E+02 0.33713530855E+02 0.32066467972E+02 0.30398022552E+02
 0.28774886538E+02 0.27258394349E+02 0.25900000402E+02 0.24738161104E+02 0.23797203190E+02
 0.23088184804E+02 0.22610994568E+02 0.22356545072E+02 0.22308231320E+02 0.22442610793E+02
 0.22729914525E+02 0.23135070902E+02 0.23619495775E+02 0.24143438510E+02 0.24668534264E+02
 0.25160325412E+02 0.25590536553E+02 0.25938664336E+02 0.26192252876E+02 0.26345501842E+02
 0.21328968850E+02 0.21308570189E+02 0.21247561275E+02 0.21147269720E+02 0.21012031525E+02
 0.20851177861E+02 0.20680264880E+02 0.20521223963E+02 0.20401600365E+02 0.20353176575E+02
 0.20410181963E+02 0.20607286258E+02 0.20977723022E+02 0.21551908457E+02 0.22356545072E+02
 0.23413588302E+02 0.24738161104E+02 0.26334970875E+02 0.28193855355E+02 0.30286029472E+02
 0.32562701977E+02 0.34956881330E+02 0.37388003128E+02 0.39768269010E+02 0.42009579579E+02
 0.44030284997E+02 0.45761073531E+02 0.47149040714E+02 0.48158854096E+02 0.48770594463E+02
 0.48975301778E+02 0.48770594463E+02 0.48158854096E+02 0.47149040714E+02 0.45761073531E+02
 0.44030284997E+02 0.42009579579E+02 0.39768269010E+02 0.37388003128E+02 0.34956881330E+02
 0.32562701977E+02 0.30286029472E+02 0.28193855355E+02 0.26334970875E+02 0.24738161104E+02
 0.23413588302E+02 0.22356545072E+02 0.21551908457E+02 0.20977723022E+02 0.20607286258E+02
 0.20410181963E+02 0.20353176575E+02 0.20401600365E+02 0.20521223963E+02 0.20680264880E+02
 0.20851177861E+02 0.21012031525E+02 0.21147269720E+02 0.21247561275E+02 0.21308570189E+02
 0.17269076703E+02 0.17271230348E+02 0.17278022440E+02 0.17290961068E+02 0.17314031962E+02
 0.17355224483E+02 0.17427746184E+02 0.17550619957E+02 0.17748549952E+02 0.18051035791E+02
 0.18490860409E+02 0.19102352939E+02 0.19920004241E+02 0.20977723022E+02 0.22308231320E+02
 0.23941351629E+02 0.25900000402E+02 0.28193855355E+02 0.30812299708E+02 0.33719226799E+02
 0.36851831042E+02 0.40123867133E+02 0.43432162552E+02 0.46664522871E+02 0.49707732665E+02
 0.52455245313E+02 0.54814322465E+02 0.56711672668E+02 0.58096004275E+02 0.58935807960E+02
 0.59216556997E+02 0.58935807960E+02 0.58096004275E+02 0.56711672668E+02 0.54814322465E+02
 0.52455245313E+02 0.49707732665E+02 0.46664522871E+02 0.43432162552E+02 0.40123867133E+02
 0.36851831042E+02 0.33719226799E+02 0.30812299708E+02 0.28193855355E+02 0.25900000402E+02
 0.23941351629E+02 0.22308231320E+02 0.20977723022E+02 0.19920004241E+02 0.19102352939E+02
 0.18490860409E+02 0.18051035791E+02 0.17748549952E+02 0.17550619957E+02 0.17427746184E+02
 0.17355224483E+02 0.17314031962E+02 0.17290961068E+02 0.17278022440E+02 0.17271230348E+02
 0.14046931786E+02 0.14064919751E+02 0.14119511222E+02 0.14212899984E+02 0.14349704141E+02
 0.14538171959E+02 0.14791445934E+02 0.15128507393E+02 0.15574387828E+02 0.16159415657E+02
 0.16917746953E+02 0.17885941402E+02 0.19102352939E+02 0.20607286258E+02 0.22442610793E+02
 0.24648833924E+02 0.27258394349E+02 0.30286029472E+02 0.33719226799E+02 0.37512398625E+02
 0.41586884913E+02 0.45836165976E+02 0.50133704010E+02 0.54340991141E+02 0.58315221506E+02
 0.61917359110E+02 0.64992971497E+02 0.67394238860E+02 0.69072519306E+02 0.70050291419E+02
 0.70369719187E+02 0.70050291419E+02 0.69072519306E+02 0.67394238860E+02 0.64992971497E+02
 0.61917359110E+02 0.58315221506E+02 0.54340991141E+02 0.50133704010E+02 0.45836165976E+02
 0.41586884913E+02 0.37512398625E+02 0.33719226799E+02 0.30286029472E+02 0.27258394349E+02
 0.24648833924E+02 0.22442610793E+02 0.20607286258E+02 0.19102352939E+02 0.17885941402E+02
 0.16917746953E+02 0.16159415657E+02 0.15574387828E+02 0.15128507393E+02 0.14791445934E+02
 0.14538171959E+02 0.14349704141E+02 0.14212899984E+02 0.14119511222E+02 0.14064919751E+02
 0.11500326703E+02 0.11529091782E+02 0.11616401444E+02 0.11765464130E+02 0.11982233889E+02
 0.12276416779E+02 0.12662786257E+02 0.13162309685E+02 0.13802433592E+02 0.14616252354E+02
 0.15641104871E+02 0.16917746953E+02 0.18490860409E+02 0.20410181963E+02 0.22729914525E+02
 0.25503780713E+02 0.28774886538E+02 0.32562701977E+02 0.36851831042E+02 0.41586884913E+02
 0.46674589782E+02 0.51990456151E+02 0.57385882176E+02 0.62693690657E+02 0.67694902306E+02
 0.72033210624E+02 0.75460390819E+02 0.77914816256E+02 0.79483812573E+02 0.80327490988E+02
 0.80589742012E+02 0.80327490988E+02 0.79483812573E+02 0.77914816256E+02 0.75460390819E+02
 0.72033210624E+02 0.67694902306E+02 0.62693690657E+02 0.57385882176E+02 0.51990456151E+02
 0.46674589782E+02 0.41586884913E+02 0.36851831042E+02 0.32562701977E+02 0.28774886538E+02
 0.25503780713E+02 0.22729914525E+02 0.20410181963E+02 0.18490860409E+02 0.16917746953E+02
 0.15641104871E+02 0.14616252354E+02 0.13802433592E+02 0.13162309685E+02 0.12662786257E+02
 0.12276416779E+02 0.11982233889E+02 0.11765464130E+02 0.11616401444E+02 0.11529091782E+02
 0.94928893118E+01 0.95288733921E+01 0.96382513340E+01 0.98253742623E+01 0.10097892342E+02
 0.10467667987E+02 0.10952121945E+02 0.11575374360E+02 0.12368409270E+02 0.13368131749E+02
 0.14616252354E+02 0.16159415657E+02 0.18051035791E+02 0.20353176575E+02 0.23135070902E+02
 0.26465329945E+02 0.30398022552E+02 0.34956881330E+02 0.40123867133E+02 0.45836165976E+02
 0.51990456151E+02 0.58448914746E+02 0.65041163004E+02 0.71431949310E+02 0.77040801376E+02
 0.81446394464E+02 0.84496825061E+02 0.86307163613E+02 0.87186153107E+02 0.87509910718E+02
 0.87579656628E+02 0.87509910718E+02 0.87186153107E+02 0.86307163613E+02 0.84496825061E+02
 0.81446394464E+02 0.77040801376E+02 0.71431949310E+02 0.65041163004E+02 0.58448914746E+02
 0.51990456151E+02 0.45836165976E+02 0.40123867133E+02 0.34956881330E+02 0.30398022552E+02
 0.26465329945E+02 0.23135070902E+02 0.20353176575E+02 0.18051035791E+02 0.16159415657E+02
 0.14616252354E+02 0.13368131749E+02 0.12368409270E+02 0.11575374360E+02 0.10952121945E+02
 0.10467667987E+02 0.10097892342E+02 0.98253742623E+01 0.96382513340E+01 0.95288733921E+01
 0.79181575288E+01 0.79589294180E+01 0.80830590638E+01 0.82960109374E+01 0.86071973511E+01
 0.90308927559E+01 0.95875987177E+01 0.10305071897E+02 0.11218270895E+02 0.12368409270E+02
 0.13802433592E+02 0.15574387828E+02 0.17748549952E+02 0.20401600365E+02 0.23619495775E+02
 0.27486255654E+02 0.32066467972E+02 0.37388003128E+02 0.43432162552E+02 0.50133704010E+02
 0.57385882176E+02 0.65041163004E+02 0.72719756377E+02 0.79614825489E+02 0.85033168789E+02
 0.88599207805E+02 0.90326412094E+02 0.90596984108E+02 0.90043495861E+02 0.89354836371E+02
 0.89059404831E+02 0.89354836371E+02 0.90043495861E+02 0.90596984108E+02 0.90326412094E+02
 0.88599207805E+02 0.85033168789E+02 0.79614825489E+02 0.72719756377E+02 0.65041163004E+02
 0.57385882176E+02 0.50133704010E+02 0.43432162552E+02 0.37388003128E+02 0.32066467972E+02
 0.27486255654E+02 0.23619495775E+02 0.20401600365E+02 0.17748549952E+02 0.15574387828E+02
 0.13802433592E+02 0.12368409270E+02 0.11218270895E+02 0.10305071897E+02 0.95875987177E+01
 0.90308927559E+01 0.86071973511E+01 0.82960109374E+01 0.80830590638E+01 0.79589294180E+01
 0.66939710179E+01 0.67378515830E+01 0.68716433992E+01 0.71017935242E+01 0.74393445684E+01
 0.79009375165E+01 0.85102019290E+01 0.92985880387E+01 0.10305071897E+02 0.11575374360E+02
 0.13162309685E+02 0.15128507393E+02 0.17550619957E+02 0.20521223963E+02 0.24143438510E+02
 0.28516115441E+02 0.33713530855E+02 0.39768269010E+02 0.46664522871E+02 0.54340991141E+02
 0.62693690657E+02 0.71431949310E+02 0.79614825489E+02 0.86215809943E+02 0.90494313341E+02
 0.92162523394E+02 0.91469130787E+02 0.89162129988E+02 0.86314680905E+02 0.84041306788E+02
 0.83179873768E+02 0.84041306788E+02 0.86314680905E+02 0.89162129988E+02 0.91469130787E+02
 0.92162523394E+02 0.90494313341E+02 0.86215809943E+02 0.79614825489E+02 0.71431949310E+02
 0.62693690657E+02 0.54340991141E+02 0.46664522871E+02 0.39768269010E+02 0.33713530855E+02
 0.28516115441E+02 0.24143438510E+02 0.20521223963E+02 0.17550619957E+02 0.15128507393E+02
 0.13162309685E+02 0.11575374360E+02 0.10305071897E+02 0.92985880387E+01 0.85102019290E+01
 0.79009375165E+01 0.74393445684E+01 0.71017935242E+01 0.68716433992E+01 0.67378515830E+01
 0.57544486703E+01 0.58002519487E+01 0.59400790126E+01 0.61811744043E+01 0.65359773228E+01
 0.70232905041E+01 0.76697080885E+01 0.85102019290E+01 0.95875987177E+01 0.10952121945E+02
 0.12662786257E+02 0.14791445934E+02 0.17427746184E+02 0.20680264880E+02 0.24668534264E+02
 0.29504875353E+02 0.35272381988E+02 0.42009579579E+02 0.49707732665E+02 0.58315221506E+02
 0.67694902306E+02 0.77040801376E+02 0.85033168789E+02 0.90494313341E+02 0.92649232076E+02
 0.91331332914E+02 0.87089588399E+02 0.81136700662E+02 0.75107049912E+02 0.70658352879E+02
 0.69023602132E+02 0.70658352879E+02 0.75107049912E+02 0.81136700662E+02 0.87089588399E+02
 0.91331332914E+02 0.92649232076E+02 0.90494313341E+02 0.85033168789E+02 0.77040801376E+02
 0.67694902306E+02 0.58315221506E+02 0.49707732665E+02 0.42009579579E+02 0.35272381988E+02
 0.29504875353E+02 0.24668534264E+02 0.20680264880E+02 0.17427746184E+02 0.14791445934E+02
 0.12662786257E+02 0.10952121945E+02 0.95875987177E+01 0.85102019290E+01 0.76697080885E+01
 0.70232905041E+01 0.65359773228E+01 0.61811744043E+01 0.59400790126E+01 0.58002519487E+01
 0.50445393572E+01 0.50914369389E+01 0.52347410940E+01 0.54822991133E+01 0.58476878064E+01
 0.63515960974E+01 0.70232905041E+01 0.79009375165E+01 0.90308927559E+01 0.10467667987E+02
 0.12276416779E+02 0.14538171959E+02 0.17355224483E+02 0.20851177861E+02 0.25160325412E+02
 0.30406672090E+02 0.36681368707E+02 0.44030284997E+02 0.52455245313E+02 0.61917359110E+02
 0.72033210624E+02 0.81446394464E+02 0.88599207805E+02 0.92162523394E+02 0.91331332914E+02
 0.86082649609E+02 0.77317998496E+02 0.66798797623E+02 0.56823954081E+02 0.49694027301E+02
 0.47108684254E+02 0.49694027301E+02 0.56823954081E+02 0.66798797623E+02 0.77317998496E+02
 0.86082649609E+02 0.91331332914E+02 0.92162523394E+02 0.88599207805E+02 0.81446394464E+02
 0.72033210624E+02 0.61917359110E+02 0.52455245313E+02 0.44030284997E+02 0.36681368707E+02
 0.30406672090E+02 0.25160325412E+02 0.20851177861E+02 0.17355224483E+02 0.14538171959E+02
 0.12276416779E+02 0.10467667987E+02 0.90308927559E+01 0.79009375165E+01 0.70232905041E+01
 0.63515960974E+01 0.58476878064E+01 0.54822991133E+01 0.52347410940E+01 0.50914369389E+01
 0.45185383690E+01 0.45659958370E+01 0.47111076388E+01 0.49621492844E+01 0.53335895822E+01
 0.58476878064E+01 0.65359773228E+01 0.74393445684E+01 0.86071973511E+01 0.10097892342E+02
 0.11982233889E+02 0.14349704141E+02 0.17314031962E+02 0.21012031525E+02 0.25590536553E+02
 0.31183290032E+02 0.37888759225E+02 0.45761073531E+02 0.54814322465E+02 0.64992971497E+02
 0.75460390819E+02 0.84496825061E+02 0.90326412094E+02 0.91469130787E+02 0.87089588399E+02
 0.77317998496E+02 0.63436754665E+02 0.47803257853E+02 0.33437666042E+02 0.23335432797E+02
 0.19698337371E+02 0.23335432797E+02 0.33437666042E+02 0.47803257853E+02 0.63436754665E+02
 0.77317998496E+02 0.87089588399E+02 0.91469130787E+02 0.90326412094E+02 0.84496825061E+02
 0.75460390819E+02 0.64992971497E+02 0.54814322465E+02 0.45761073531E+02 0.37888759225E+02
 0.31183290032E+02 0.25590536553E+02 0.21012031525E+02 0.17314031962E+02 0.14349704141E+02
 0.11982233889E+02 0.10097892342E+02 0.86071973511E+01 0.74393445684E+01 0.65359773228E+01
 0.58476878064E+01 0.53335895822E+01 0.49621492844E+01 0.47111076388E+01 0.45659958370E+01