   8   8   0   0
  0.1791244E+02  0.5232970E-09  0.5232970E-09  0.5232970E-09  0.5000000E-15
  1.000000000000000E-004
  CAR 
 GaAs                                    
     11.49457188    -10.71188223  301      4.98299185      1.00000000
    -10.712  0.0000E+00  0.0000E+00
    -10.638  0.0000E+00  0.0000E+00
    -10.564  0.0000E+00  0.0000E+00
    -10.490  0.0000E+00  0.0000E+00
    -10.416  0.0000E+00  0.0000E+00
    -10.342  0.0000E+00  0.0000E+00
    -10.268  0.0000E+00  0.0000E+00
    -10.194  0.0000E+00  0.0000E+00
    -10.120  0.0000E+00  0.0000E+00
    -10.046  0.0000E+00  0.0000E+00
     -9.972  0.0000E+00  0.0000E+00
     -9.898  0.0000E+00  0.0000E+00
     -9.824  0.0000E+00  0.0000E+00
     -9.750  0.0000E+00  0.0000E+00
     -9.676  0.6996E-02  0.6277E-04
     -9.602  0.9838E-01  0.3310E-02
     -9.528  0.2956E+00  0.1724E-01
     -9.454  0.5332E+00  0.4842E-01
     -9.379  0.6684E+00  0.9355E-01
     -9.305  0.7014E+00  0.1448E+00
     -9.231  0.7354E+00  0.1977E+00
     -9.157  0.8101E+00  0.2546E+00
     -9.083  0.9125E+00  0.3183E+00
     -9.009  0.1021E+01  0.3899E+00
     -8.935  0.1266E+01  0.4710E+00
     -8.861  0.1754E+01  0.5836E+00
     -8.787  0.2118E+01  0.7277E+00
     -8.713  0.1874E+01  0.8774E+00
     -8.639  0.1613E+01  0.1006E+01
     -8.565  0.1534E+01  0.1121E+01
     -8.491  0.1516E+01  0.1234E+01
     -8.417  0.1485E+01  0.1345E+01
     -8.343  0.1441E+01  0.1453E+01
     -8.269  0.2033E+01  0.1562E+01
     -8.195  0.1581E+01  0.1696E+01
     -8.121  0.8491E+00  0.1792E+01
     -8.047  0.9069E+00  0.1852E+01
     -7.973  0.1506E+01  0.1941E+01
     -7.899  0.2133E+01  0.2078E+01
     -7.825  0.2269E+01  0.2241E+01
     -7.751  0.2355E+01  0.2426E+01
     -7.677  0.2371E+01  0.2593E+01
     -7.603  0.2568E+01  0.2776E+01
     -7.529  0.2729E+01  0.2973E+01
     -7.455  0.5221E+01  0.3301E+01
     -7.381  0.4609E+01  0.3672E+01
     -7.307  0.3647E+01  0.3977E+01
     -7.233  0.3221E+01  0.4213E+01
     -7.159  0.2745E+01  0.4409E+01
     -7.085  0.2948E+01  0.4620E+01
     -7.011  0.3181E+01  0.4846E+01
     -6.937  0.5909E+01  0.5203E+01
     -6.863  0.4824E+01  0.5574E+01
     -6.789  0.5311E+01  0.5948E+01
     -6.715  0.5441E+01  0.6351E+01
     -6.641  0.3880E+01  0.6722E+01
     -6.567  0.3640E+01  0.7000E+01
     -6.493  0.3410E+01  0.7261E+01
     -6.419  0.3191E+01  0.7506E+01
     -6.345  0.2905E+01  0.7736E+01
     -6.271  0.1846E+01  0.7978E+01
     -6.197  0.0000E+00  0.8000E+01
     -6.123  0.0000E+00  0.8000E+01
     -6.049  0.0000E+00  0.8000E+01
     -5.975  0.0000E+00  0.8000E+01
     -5.900  0.0000E+00  0.8000E+01
     -5.826  0.0000E+00  0.8000E+01
     -5.752  0.0000E+00  0.8000E+01
     -5.678  0.0000E+00  0.8000E+01
     -5.604  0.0000E+00  0.8000E+01
     -5.530  0.0000E+00  0.8000E+01
     -5.456  0.0000E+00  0.8000E+01
     -5.382  0.0000E+00  0.8000E+01
     -5.308  0.0000E+00  0.8000E+01
     -5.234  0.0000E+00  0.8000E+01
     -5.160  0.0000E+00  0.8000E+01
     -5.086  0.0000E+00  0.8000E+01
     -5.012  0.0000E+00  0.8000E+01
     -4.938  0.0000E+00  0.8000E+01
     -4.864  0.0000E+00  0.8000E+01
     -4.790  0.0000E+00  0.8000E+01
     -4.716  0.0000E+00  0.8000E+01
     -4.642  0.0000E+00  0.8000E+01
     -4.568  0.0000E+00  0.8000E+01
     -4.494  0.0000E+00  0.8000E+01
     -4.420  0.0000E+00  0.8000E+01
     -4.346  0.0000E+00  0.8000E+01
     -4.272  0.0000E+00  0.8000E+01
     -4.198  0.0000E+00  0.8000E+01
     -4.124  0.0000E+00  0.8000E+01
     -4.050  0.0000E+00  0.8000E+01
     -3.976  0.0000E+00  0.8000E+01
     -3.902  0.0000E+00  0.8000E+01
     -3.828  0.0000E+00  0.8000E+01
     -3.754  0.0000E+00  0.8000E+01
     -3.680  0.0000E+00  0.8000E+01
     -3.606  0.0000E+00  0.8000E+01
     -3.532  0.0000E+00  0.8000E+01
     -3.458  0.0000E+00  0.8000E+01
     -3.384  0.0000E+00  0.8000E+01
     -3.310  0.0000E+00  0.8000E+01
     -3.236  0.0000E+00  0.8000E+01
     -3.162  0.0000E+00  0.8000E+01
     -3.088  0.1875E-03  0.8000E+01
     -3.014  0.3863E+00  0.8010E+01
     -2.940  0.2757E+01  0.8159E+01
     -2.866  0.2928E+01  0.8341E+01
     -2.792  0.4480E+01  0.8611E+01
     -2.718  0.8833E+01  0.9094E+01
     -2.644  0.6794E+01  0.9814E+01
     -2.570  0.6111E+01  0.1027E+02
     -2.495  0.6096E+01  0.1072E+02
     -2.421  0.6411E+01  0.1119E+02
     -2.347  0.4614E+01  0.1158E+02
     -2.273  0.3582E+01  0.1188E+02
     -2.199  0.3159E+01  0.1210E+02
     -2.125  0.2080E+01  0.1228E+02
     -2.051  0.2027E+01  0.1244E+02
     -1.977  0.1977E+01  0.1258E+02
     -1.903  0.1929E+01  0.1273E+02
     -1.829  0.1884E+01  0.1287E+02
     -1.755  0.1842E+01  0.1301E+02
     -1.681  0.1802E+01  0.1314E+02
     -1.607  0.1766E+01  0.1327E+02
     -1.533  0.1465E+01  0.1340E+02
     -1.459  0.1449E+01  0.1350E+02
     -1.385  0.1430E+01  0.1361E+02
     -1.311  0.1415E+01  0.1372E+02
     -1.237  0.1388E+01  0.1382E+02
     -1.163  0.1361E+01  0.1392E+02
     -1.089  0.1334E+01  0.1402E+02
     -1.015  0.1305E+01  0.1412E+02
     -0.941  0.1275E+01  0.1422E+02
     -0.867  0.1245E+01  0.1431E+02
     -0.793  0.1214E+01  0.1440E+02
     -0.719  0.1248E+01  0.1449E+02
     -0.645  0.1201E+01  0.1458E+02
     -0.571  0.1165E+01  0.1467E+02
     -0.497  0.1140E+01  0.1475E+02
     -0.423  0.1183E+01  0.1484E+02
     -0.349  0.2335E+01  0.1495E+02
     -0.275  0.2157E+01  0.1512E+02
     -0.201  0.2030E+01  0.1527E+02
     -0.127  0.1916E+01  0.1541E+02
     -0.053  0.2017E+01  0.1556E+02
      0.021  0.2127E+01  0.1571E+02
      0.095  0.3426E+01  0.1588E+02
      0.169  0.3520E+01  0.1614E+02
      0.243  0.3433E+01  0.1641E+02
      0.317  0.3004E+01  0.1663E+02
      0.391  0.3642E+01  0.1688E+02
      0.465  0.4327E+01  0.1717E+02
      0.539  0.4726E+01  0.1751E+02
      0.613  0.4792E+01  0.1787E+02
      0.687  0.4797E+01  0.1822E+02
      0.761  0.4741E+01  0.1857E+02
      0.835  0.3858E+01  0.1889E+02
      0.909  0.4083E+01  0.1918E+02
      0.984  0.3338E+01  0.1949E+02
      1.058  0.2902E+01  0.1970E+02
      1.132  0.2962E+01  0.1992E+02
      1.206  0.3085E+01  0.2014E+02
      1.280  0.3446E+01  0.2038E+02
      1.354  0.3500E+01  0.2066E+02
      1.428  0.5181E+01  0.2097E+02
      1.502  0.6066E+01  0.2139E+02
      1.576  0.6507E+01  0.2187E+02
      1.650  0.7610E+01  0.2241E+02
      1.724  0.6506E+01  0.2294E+02
      1.798  0.5330E+01  0.2337E+02
      1.872  0.4349E+01  0.2373E+02
      1.946  0.3404E+01  0.2401E+02
      2.020  0.3046E+01  0.2424E+02
      2.094  0.2864E+01  0.2446E+02
      2.168  0.2875E+01  0.2467E+02
      2.242  0.3513E+01  0.2491E+02
      2.316  0.4230E+01  0.2519E+02
      2.390  0.6567E+01  0.2557E+02
      2.464  0.4575E+01  0.2595E+02
      2.538  0.5120E+01  0.2633E+02
      2.612  0.4608E+01  0.2667E+02
      2.686  0.5440E+01  0.2703E+02
      2.760  0.6996E+01  0.2746E+02
      2.834  0.5617E+01  0.2793E+02
      2.908  0.4112E+01  0.2825E+02
      2.982  0.3678E+01  0.2854E+02
      3.056  0.3247E+01  0.2879E+02
      3.130  0.2742E+01  0.2906E+02
      3.204  0.1951E+01  0.2921E+02
      3.278  0.1774E+01  0.2934E+02
      3.352  0.1669E+01  0.2947E+02
      3.426  0.2019E+01  0.2960E+02
      3.500  0.2787E+01  0.2978E+02
      3.574  0.3999E+01  0.3005E+02
      3.648  0.4043E+01  0.3033E+02
      3.722  0.4419E+01  0.3065E+02
      3.796  0.4770E+01  0.3097E+02
      3.870  0.2938E+01  0.3126E+02
      3.944  0.1344E+01  0.3139E+02
      4.018  0.1191E+01  0.3148E+02
      4.092  0.1044E+01  0.3156E+02
      4.166  0.9031E+00  0.3164E+02
      4.240  0.7689E+00  0.3170E+02
      4.314  0.7449E+00  0.3175E+02
      4.389  0.7594E+00  0.3181E+02
      4.463  0.7189E+00  0.3186E+02
      4.537  0.6235E+00  0.3191E+02
      4.611  0.4732E+00  0.3196E+02
      4.685  0.2679E+00  0.3198E+02
      4.759  0.8437E-01  0.3199E+02
      4.833  0.3317E-01  0.3200E+02
      4.907  0.5442E-02  0.3200E+02
      4.981  0.0000E+00  0.3200E+02
      5.055  0.0000E+00  0.3200E+02
      5.129  0.0000E+00  0.3200E+02
      5.203  0.0000E+00  0.3200E+02
      5.277  0.0000E+00  0.3200E+02
      5.351  0.0000E+00  0.3200E+02
      5.425  0.0000E+00  0.3200E+02
      5.499  0.0000E+00  0.3200E+02
      5.573  0.0000E+00  0.3200E+02
      5.647  0.0000E+00  0.3200E+02
      5.721  0.0000E+00  0.3200E+02
      5.795  0.0000E+00  0.3200E+02
      5.869  0.0000E+00  0.3200E+02
      5.943  0.1822E+00  0.3200E+02
      6.017  0.2288E+00  0.3202E+02
      6.091  0.2864E+00  0.3204E+02
      6.165  0.3550E+00  0.3206E+02
      6.239  0.4345E+00  0.3209E+02
      6.313  0.5250E+00  0.3213E+02
      6.387  0.6288E+00  0.3217E+02
      6.461  0.7023E+00  0.3222E+02
      6.535  0.7576E+00  0.3227E+02
      6.609  0.8488E+00  0.3233E+02
      6.683  0.9760E+00  0.3240E+02
      6.757  0.1298E+01  0.3248E+02
      6.831  0.2596E+01  0.3262E+02
      6.905  0.3023E+01  0.3284E+02
      6.979  0.2343E+01  0.3302E+02
      7.053  0.2542E+01  0.3321E+02
      7.127  0.2755E+01  0.3340E+02
      7.201  0.3019E+01  0.3362E+02
      7.275  0.3279E+01  0.3385E+02
      7.349  0.3802E+01  0.3410E+02
      7.423  0.6049E+01  0.3458E+02
      7.497  0.5469E+01  0.3501E+02
      7.571  0.5948E+01  0.3545E+02
      7.645  0.3869E+01  0.3581E+02
      7.719  0.4482E+01  0.3612E+02
      7.793  0.7112E+01  0.3655E+02
      7.868  0.5159E+01  0.3702E+02
      7.942  0.4232E+01  0.3733E+02
      8.016  0.5343E+01  0.3770E+02
      8.090  0.5706E+01  0.3811E+02
      8.164  0.4979E+01  0.3854E+02
      8.238  0.4801E+01  0.3890E+02
      8.312  0.4557E+01  0.3924E+02
      8.386  0.3726E+01  0.3956E+02
      8.460  0.3533E+01  0.3983E+02
      8.534  0.3245E+01  0.4008E+02
      8.608  0.3156E+01  0.4032E+02
      8.682  0.3205E+01  0.4055E+02
      8.756  0.2776E+01  0.4078E+02
      8.830  0.2378E+01  0.4097E+02
      8.904  0.1764E+01  0.4112E+02
      8.978  0.2331E+01  0.4127E+02
      9.052  0.3243E+01  0.4147E+02
      9.126  0.4100E+01  0.4174E+02
      9.200  0.1272E+02  0.4234E+02
      9.274  0.8031E+01  0.4311E+02
      9.348  0.5870E+01  0.4360E+02
      9.422  0.4849E+01  0.4398E+02
      9.496  0.4458E+01  0.4432E+02
      9.570  0.4180E+01  0.4464E+02
      9.644  0.3965E+01  0.4494E+02
      9.718  0.4228E+01  0.4526E+02
      9.792  0.4030E+01  0.4553E+02
      9.866  0.5010E+01  0.4588E+02
      9.940  0.4392E+01  0.4621E+02
     10.014  0.4327E+01  0.4653E+02
     10.088  0.4175E+01  0.4685E+02
     10.162  0.3937E+01  0.4715E+02
     10.236  0.3345E+01  0.4743E+02
     10.310  0.2340E+01  0.4764E+02
     10.384  0.3342E+01  0.4784E+02
     10.458  0.7571E+00  0.4799E+02
     10.532  0.0000E+00  0.4800E+02
     10.606  0.0000E+00  0.4800E+02
     10.680  0.0000E+00  0.4800E+02
     10.754  0.0000E+00  0.4800E+02
     10.828  0.0000E+00  0.4800E+02
     10.902  0.0000E+00  0.4800E+02
     10.976  0.0000E+00  0.4800E+02
     11.050  0.0000E+00  0.4800E+02
     11.124  0.0000E+00  0.4800E+02
     11.198  0.0000E+00  0.4800E+02
     11.273  0.0000E+00  0.4800E+02
     11.347  0.0000E+00  0.4800E+02
     11.421  0.0000E+00  0.4800E+02
     11.495  0.0000E+00  0.4800E+02
