       N       E                     dE             d eps       ncg     rms          rms(c)
DAV:   1    -0.291972905330E+02   -0.29197E+02   -0.26104E+00   544   0.733E+00    0.262E+00
DAV:   2    -0.291371926789E+02    0.60098E-01   -0.14416E-01   496   0.171E+00    0.158E+00
DAV:   3    -0.291166595508E+02    0.20533E-01   -0.97011E-02   512   0.117E+00    0.207E-01
DAV:   4    -0.291155657666E+02    0.10938E-02   -0.47468E-03   512   0.329E-01    0.118E-01
DAV:   5    -0.291153546482E+02    0.21112E-03   -0.85216E-04   552   0.113E-01    0.428E-02
DAV:   6    -0.291153574068E+02   -0.27586E-05   -0.25690E-05   264   0.259E-02
   1 F= -.29115357E+02 E0= -.29115357E+02  d E =0.000000E+00
 imaginary and real dielectric function
