<?xml version="1.0" encoding="ISO-8859-1"?>
<modeling>
 <generator>
  <i name="program" type="string">vasp </i>
  <i name="version" type="string">6.4.3  </i>
  <i name="subversion" type="string">19Mar24 (build Aug 29 2024 15:27:20) complex                          parallel </i>
  <i name="platform" type="string">LinuxIFC </i>
  <i name="date" type="string">2025 03 19 </i>
  <i name="time" type="string">11:28:07 </i>
 </generator>
 <incar>
  <i type="string" name="SYSTEM">GaAs</i>
  <i type="string" name="PREC">Normal</i>
  <i type="int" name="IBRION">     2</i>
  <i name="ENCUT">    500.00000000</i>
  <i type="int" name="ISMEAR">    -5</i>
  <i name="SIGMA">      0.10000000</i>
  <i type="logical" name="LOPTICS"> T  </i>
 </incar>
 <primitive_cell>
  <structure name="primitive_cell" >
   <crystal>
    <varray name="basis" >
     <v>       2.61648496      -2.61648496       0.00000000 </v>
     <v>       2.61648496       0.00000000       2.61648496 </v>
     <v>       0.00000000      -2.61648496       2.61648496 </v>
    </varray>
    <i name="volume">     35.82487850 </i>
    <varray name="rec_basis" >
     <v>       0.19109607      -0.19109607      -0.19109607 </v>
     <v>       0.19109607       0.19109607       0.19109607 </v>
     <v>      -0.19109607      -0.19109607       0.19109607 </v>
    </varray>
   </crystal>
   <varray name="positions" >
    <v>       0.00000000       0.00000000       0.00000000 </v>
    <v>       0.75000000       0.75000000       0.75000000 </v>
   </varray>
  </structure>
  <varray name="primitive_index" >
   <v type="int" >        1 </v>
   <v type="int" >        5 </v>
  </varray>
 </primitive_cell>
 <kpoints>
  <generation param="Gamma">
   <v type="int" name="divisions">       5        5        5 </v>
   <v name="usershift">      0.00000000       0.00000000       0.00000000 </v>
   <v name="genvec1">      0.20000000       0.00000000       0.00000000 </v>
   <v name="genvec2">      0.00000000       0.20000000       0.00000000 </v>
   <v name="genvec3">      0.00000000       0.00000000       0.20000000 </v>
   <v name="shift">      0.00000000       0.00000000       0.00000000 </v>
  </generation>
  <varray name="kpointlist" >
   <v>       0.00000000       0.00000000       0.00000000 </v>
   <v>       0.20000000       0.00000000       0.00000000 </v>
   <v>       0.40000000       0.00000000       0.00000000 </v>
   <v>       0.20000000       0.20000000       0.00000000 </v>
   <v>       0.40000000       0.20000000       0.00000000 </v>
   <v>       0.40000000       0.40000000       0.00000000 </v>
   <v>       0.20000000       0.20000000       0.20000000 </v>
   <v>       0.40000000       0.20000000       0.20000000 </v>
   <v>       0.40000000       0.40000000       0.20000000 </v>
   <v>       0.40000000       0.40000000       0.40000000 </v>
  </varray>
  <varray name="weights" >
   <v>       0.00800000 </v>
   <v>       0.04800000 </v>
   <v>       0.04800000 </v>
   <v>       0.09600000 </v>
   <v>       0.19200000 </v>
   <v>       0.09600000 </v>
   <v>       0.06400000 </v>
   <v>       0.19200000 </v>
   <v>       0.19200000 </v>
   <v>       0.06400000 </v>
  </varray>
  <varray name="tetrahedronlist"  type="int" >
   <v type="int" >       12        7        8        8        9 </v>
   <v type="int" >       18        8        8        9        9 </v>
   <v type="int" >       24        8        9        9       10 </v>
   <v type="int" >       12        8        9        9        9 </v>
   <v type="int" >       24        9        9        9       10 </v>
   <v type="int" >       18        9        9       10       10 </v>
   <v type="int" >       24        4        5        7        8 </v>
   <v type="int" >       12        5        7        8        8 </v>
   <v type="int" >       24        5        8        8        9 </v>
   <v type="int" >       24        4        5        5        8 </v>
   <v type="int" >       24        5        5        6        8 </v>
   <v type="int" >       12        5        6        8        9 </v>
   <v type="int" >       12        9       10       10       10 </v>
   <v type="int" >       12        8        8        9       10 </v>
   <v type="int" >       12        8        9       10       10 </v>
   <v type="int" >       12        5        5        8        9 </v>
   <v type="int" >       12        5        8        9        9 </v>
   <v type="int" >       12        5        5        6        9 </v>
   <v type="int" >       12        5        6        6        9 </v>
   <v type="int" >       12        5        6        9        9 </v>
   <v type="int" >       12        5        6        8        8 </v>
   <v type="int" >       12        5        6        6        8 </v>
   <v type="int" >       12        6        8        8        9 </v>
   <v type="int" >       12        6        8        9        9 </v>
   <v type="int" >       12        6        6        8        9 </v>
   <v type="int" >       12        7        8        9       10 </v>
   <v type="int" >       12        4        5        8        9 </v>
   <v type="int" >       12        4        7        8        9 </v>
   <v type="int" >       12        4        5        6        9 </v>
   <v type="int" >       12        5        6        7        8 </v>
   <v type="int" >       12        4        5        6        7 </v>
   <v type="int" >       12        6        7        8        9 </v>
   <v type="int" >       12        2        4        7        8 </v>
   <v type="int" >       12        2        4        5        8 </v>
   <v type="int" >       12        2        3        5        8 </v>
   <v type="int" >       12        4        4        5        7 </v>
   <v type="int" >       12        2        4        4        5 </v>
   <v type="int" >       12        2        3        4        5 </v>
   <v type="int" >       12        3        4        5        5 </v>
   <v type="int" >       12        2        3        4        7 </v>
   <v type="int" >       12        3        4        5        7 </v>
   <v type="int" >       12        3        5        7        8 </v>
   <v type="int" >        6       10       10       10       10 </v>
   <v type="int" >       12        6        6        9        9 </v>
   <v type="int" >       12        6        9        9        9 </v>
   <v type="int" >       12        6        6        6        9 </v>
   <v type="int" >       12        3        5        8        8 </v>
   <v type="int" >       12        3        5        5        8 </v>
   <v type="int" >       12        3        3        5        8 </v>
   <v type="int" >       12        5        5        5        8 </v>
   <v type="int" >       12        3        5        5        5 </v>
   <v type="int" >        6        3        3        5        5 </v>
   <v type="int" >        6        5        5        8        8 </v>
   <v type="int" >       12        2        4        4        7 </v>
   <v type="int" >       12        2        2        4        4 </v>
   <v type="int" >       12        1        2        2        4 </v>
   <v type="int" >       12        1        2        4        7 </v>
  </varray>
  <i name="volumeweight">      0.00133333 </i>
 </kpoints>
 <parameters>
  <separator name="general" >
   <i type="string" name="SYSTEM">GaAs</i>
   <i type="logical" name="LCOMPAT"> F  </i>
  </separator>
  <separator name="electronic" >
   <i type="string" name="PREC">normal</i>
   <i name="ENMAX">    500.00000000</i>
   <i name="ENAUG">    462.75800000</i>
   <i name="EDIFF">      0.00010000</i>
   <i type="int" name="IALGO">    38</i>
   <i type="int" name="IWAVPR">    10</i>
   <i type="int" name="NBANDS">    24</i>
   <i type="int" name="NBANDSLOW">    -1</i>
   <i type="int" name="NBANDSHIGH">    -1</i>
   <i name="NELECT">     32.00000000</i>
   <i type="int" name="TURBO">     0</i>
   <i type="int" name="IRESTART">     0</i>
   <i type="int" name="NREBOOT">     0</i>
   <i type="int" name="NMIN">     0</i>
   <i name="EREF">      0.00000000</i>
   <separator name="electronic smearing" >
    <i type="int" name="ISMEAR">    -5</i>
    <i name="SIGMA">      0.10000000</i>
    <i name="KSPACING">      0.50000000</i>
    <i type="logical" name="KGAMMA"> T  </i>
    <i type="logical" name="KBLOWUP"> T  </i>
   </separator>
   <separator name="electronic projectors" >
    <i type="logical" name="LREAL"> F  </i>
    <v name="ROPT">      0.00000000      0.00000000</v>
    <i type="int" name="LMAXPAW">  -100</i>
    <i type="int" name="LMAXMIX">     2</i>
    <i type="logical" name="NLSPLINE"> F  </i>
   </separator>
   <separator name="electronic startup" >
    <i type="int" name="ISTART">     1</i>
    <i type="int" name="ICHARG">     0</i>
    <i type="int" name="INIWAV">     1</i>
   </separator>
   <separator name="electronic spin" >
    <i type="int" name="ISPIN">     1</i>
    <i type="logical" name="LNONCOLLINEAR"> F  </i>
    <v name="MAGMOM">      1.00000000      1.00000000      1.00000000      1.00000000      1.00000000      1.00000000      1.00000000      1.00000000</v>
    <i name="NUPDOWN">     -1.00000000</i>
    <i type="logical" name="LSORBIT"> F  </i>
    <v name="SAXIS">      0.00000000      0.00000000      1.00000000</v>
    <i type="logical" name="LSPIRAL"> F  </i>
    <v name="QSPIRAL">      0.00000000      0.00000000      0.00000000</v>
    <i type="logical" name="LZEROZ"> F  </i>
   </separator>
   <separator name="electronic exchange-correlation" >
    <i type="logical" name="LASPH"> F  </i>
   </separator>
   <separator name="electronic convergence" >
    <i type="int" name="NELM">    60</i>
    <i type="int" name="NELMDL">     0</i>
    <i type="int" name="NELMIN">     2</i>
    <i name="ENINI">    500.00000000</i>
    <separator name="electronic convergence detail" >
     <i type="logical" name="LDIAG"> T  </i>
     <i type="logical" name="LSUBROT"> F  </i>
     <i name="WEIMIN">      0.00000000</i>
     <i name="EBREAK">      0.00000104</i>
     <i name="DEPER">      0.30000000</i>
     <i type="int" name="NRMM">     4</i>
     <i name="TIME">      0.40000000</i>
    </separator>
   </separator>
   <separator name="electronic mixer" >
    <i name="AMIX">      0.40000000</i>
    <i name="BMIX">      1.00000000</i>
    <i name="AMIN">      0.10000000</i>
    <i name="AMIX_MAG">      1.60000000</i>
    <i name="BMIX_MAG">      1.00000000</i>
    <separator name="electronic mixer details" >
     <i type="int" name="IMIX">     4</i>
     <i type="logical" name="MIXFIRST"> F  </i>
     <i type="int" name="MAXMIX">   -45</i>
     <i name="WC">    100.00000000</i>
     <i type="int" name="INIMIX">     1</i>
     <i type="int" name="MIXPRE">     1</i>
     <i type="int" name="MREMOVE">     5</i>
    </separator>
   </separator>
   <separator name="electronic dipolcorrection" >
    <i type="logical" name="LDIPOL"> F  </i>
    <i type="logical" name="LMONO"> F  </i>
    <i type="int" name="IDIPOL">     0</i>
    <i name="EPSILON">      1.00000000</i>
    <v name="DIPOL">   -100.00000000   -100.00000000   -100.00000000</v>
    <i name="EFIELD">      0.00000000</i>
    <i type="logical" name="LVACPOTAV"> F  </i>
   </separator>
  </separator>
  <separator name="grids" >
   <i type="int" name="NGX">    30</i>
   <i type="int" name="NGY">    30</i>
   <i type="int" name="NGZ">    30</i>
   <i type="int" name="NGXF">    60</i>
   <i type="int" name="NGYF">    60</i>
   <i type="int" name="NGZF">    60</i>
   <i type="logical" name="ADDGRID"> F  </i>
  </separator>
  <separator name="ionic" >
   <i type="int" name="NSW">     0</i>
   <i type="int" name="IBRION">    -1</i>
   <i type="int" name="MDALGO">     0</i>
   <i type="int" name="ISIF">     2</i>
   <i name="PSTRESS">      0.00000000</i>
   <i name="EDIFFG">      0.00100000</i>
   <i type="int" name="NFREE">     1</i>
   <i name="POTIM">      0.50000000</i>
   <i name="SMASS">     -3.00000000</i>
   <i name="SCALEE">      1.00000000</i>
  </separator>
  <separator name="ionic md" >
   <i name="TEBEG">      0.00010000</i>
   <i name="TEEND">      0.00010000</i>
   <i type="int" name="NBLOCK">     1</i>
   <i type="int" name="KBLOCK">     1</i>
   <i type="int" name="NPACO">   256</i>
   <i name="APACO">     10.00000000</i>
  </separator>
  <separator name="symmetry" >
   <i type="int" name="ISYM">     2</i>
   <i name="SYMPREC">      0.00001000</i>
  </separator>
  <separator name="dos" >
   <i type="int" name="LORBIT">     0</i>
   <v name="RWIGS">     -1.00000000     -1.00000000</v>
   <i type="int" name="NEDOS">   301</i>
   <i name="EMIN">     10.00000000</i>
   <i name="EMAX">    -10.00000000</i>
   <i name="EFERMI">      0.00000000</i>
  </separator>
  <separator name="writing" >
   <i type="int" name="NWRITE">     2</i>
   <i type="logical" name="LWAVE"> T  </i>
   <i type="logical" name="LDOWNSAMPLE"> F  </i>
   <i type="logical" name="LCHARG"> T  </i>
   <i type="logical" name="LPARD"> F  </i>
   <i type="logical" name="LVTOT"> F  </i>
   <i type="logical" name="LVHAR"> F  </i>
   <i type="logical" name="LELF"> F  </i>
   <i type="logical" name="LOPTICS"> T  </i>
   <v name="STM">      0.00000000      0.00000000      0.00000000      0.00000000      0.00000000      0.00000000      0.00000000</v>
  </separator>
  <separator name="performance" >
   <i type="int" name="NPAR">     8</i>
   <i type="int" name="NSIM">     4</i>
   <i type="int" name="NBLK">    -1</i>
   <i type="logical" name="LPLANE"> T  </i>
   <i type="logical" name="LSCALAPACK"> T  </i>
   <i type="logical" name="LSCAAWARE"> F  </i>
   <i type="logical" name="LSCALU"> F  </i>
   <i type="logical" name="LASYNC"> F  </i>
   <i type="logical" name="LORBITALREAL"> F  </i>
  </separator>
  <separator name="miscellaneous" >
   <i type="int" name="IDIOT">     3</i>
   <i type="int" name="PHON_NSTRUCT">    -1</i>
   <i type="logical" name="LMUSIC"> F  </i>
   <v name="POMASS">     74.92200000     69.72300000</v>
   <v name="DARWINR">      0.00000000      0.00000000</v>
   <v name="DARWINV">      1.00000000      1.00000000</v>
   <i type="logical" name="LCORR"> T  </i>
  </separator>
  <i type="logical" name="GGA_COMPAT"> T  </i>
  <i type="logical" name="LBERRY"> F  </i>
  <i type="int" name="ICORELEVEL">     0</i>
  <i type="logical" name="LDAU"> F  </i>
  <i type="int" name="I_CONSTRAINED_M">     0</i>
  <separator name="electronic exchange-correlation" >
   <i type="string" name="GGA    ">PE</i>
   <i type="string" name="XC_C">1</i>
   <i type="int" name="VOSKOWN">     0</i>
   <i type="logical" name="LHFCALC"> F  </i>
   <i type="string" name="PRECFOCK"></i>
   <i type="logical" name="LSYMGRAD"> F  </i>
   <i type="logical" name="LHFONE"> F  </i>
   <i type="logical" name="LRHFCALC"> F  </i>
   <i type="logical" name="LTHOMAS"> F  </i>
   <i type="logical" name="LMODELHF"> F  </i>
   <i type="logical" name="LFOCKACE"> F  </i>
   <i name="ENCUT4O">     -1.00000000</i>
   <i type="int" name="EXXOEP">     0</i>
   <i type="int" name="FOURORBIT">     0</i>
   <i name="AEXX">      0.00000000</i>
   <i name="HFALPHA">      0.00000000</i>
   <i name="MCALPHA">      0.00000000</i>
   <i name="ALDAX">      1.00000000</i>
   <i name="AGGAX">      1.00000000</i>
   <i name="AMGGAX">      1.00000000</i>
   <i name="ALDAC">      1.00000000</i>
   <i name="AGGAC">      1.00000000</i>
   <i name="AMGGAC">      1.00000000</i>
   <i type="int" name="NKREDX">     1</i>
   <i type="int" name="NKREDY">     1</i>
   <i type="int" name="NKREDZ">     1</i>
   <i type="logical" name="SHIFTRED"> F  </i>
   <i type="logical" name="ODDONLY"> F  </i>
   <i type="logical" name="EVENONLY"> F  </i>
   <i type="int" name="LMAXFOCK">     0</i>
   <i type="int" name="NMAXFOCKAE">     0</i>
   <i type="logical" name="LFOCKAEDFT"> F  </i>
   <i name="HFSCREEN">      0.00000000</i>
   <i name="HFSCREENC">      0.00000000</i>
   <i type="int" name="NBANDSGWLOW">     0</i>
  </separator>
  <separator name="vdW DFT" >
   <i type="logical" name="LUSE_VDW"> F  </i>
   <i type="int" name="IVDW_NL">    -1</i>
   <i type="logical" name="LSPIN_VDW"> F  </i>
   <i name="ZAB_VDW">     -0.84910000</i>
   <i name="GAMMA_VDW">      1.39626340</i>
   <i name="ALPHA_VDW">      0.00000000</i>
   <i name="PARAM1">      0.12340000</i>
   <i name="PARAM2">      1.00000000</i>
   <i name="BPARAM">      6.30000000</i>
   <i name="CPARAM">      0.00930000</i>
  </separator>
  <separator name="model GW" >
   <i type="int" name="MODEL_GW">     0</i>
   <i name="MODEL_EPS0">     10.74746355</i>
   <i name="MODEL_ALPHA">      1.00000000</i>
  </separator>
  <separator name="linear response parameters" >
   <i type="logical" name="LEPSILON"> F  </i>
   <i type="logical" name="LRPA"> F  </i>
   <i type="logical" name="LNABLA"> F  </i>
   <i type="logical" name="LVEL"> F  </i>
   <i name="CSHIFT">      0.10000000</i>
   <i name="OMEGAMAX">     -1.00000000</i>
   <i name="DEG_THRESHOLD">      0.00200000</i>
   <i name="RTIME">     -0.10000000</i>
   <i name="WPLASMAI">      0.00000000</i>
   <v name="DFIELD">      0.00000000      0.00000000      0.00000000</v>
   <v name="WPLASMA">      0.00000000      0.00000000      0.00000000      0.00000000      0.00000000      0.00000000      0.00000000      0.00000000      0.00000000</v>
  </separator>
  <separator name="orbital magnetization" >
   <i type="logical" name="NUCIND"> F  </i>
   <v name="MAGPOS">      0.00000000      0.00000000      0.00000000</v>
   <i type="logical" name="LNICSALL"> T  </i>
   <i type="logical" name="ORBITALMAG"> F  </i>
   <i type="logical" name="LMAGBLOCH"> F  </i>
   <i type="logical" name="LCHIMAG"> F  </i>
   <i type="logical" name="LGAUGE"> T  </i>
   <i type="int" name="MAGATOM">     0</i>
   <v name="MAGDIPOL">      0.00000000      0.00000000      0.00000000</v>
   <v name="AVECCONST">      0.00000000      0.00000000      0.00000000</v>
  </separator>
  <separator name="response functions" >
   <i type="logical" name="LALL_IN_ONE"> F  </i>
   <i type="int" name="IALL_IN_ONE">    -1</i>
   <i type="int" name="NBANDS_WAVE">    -1</i>
   <i type="logical" name="LFINITE_TEMPERATURE"> F  </i>
   <i type="logical" name="LADDER"> F  </i>
   <i type="logical" name="LRPAFORCE"> F  </i>
   <i type="logical" name="LFXC"> F  </i>
   <i type="logical" name="LHARTREE"> T  </i>
   <i type="int" name="IBSE">     0</i>
   <v type="int" name="KPOINT">    -1     0     0     0</v>
   <i type="logical" name="LTCTC"> F  </i>
   <i type="logical" name="LTCTE"> F  </i>
   <i type="logical" name="LTETE"> F  </i>
   <i type="logical" name="LTRIPLET"> F  </i>
   <i type="logical" name="LFXCEPS"> F  </i>
   <i type="logical" name="LFXHEG"> F  </i>
   <i type="int" name="NATURALO">     2</i>
   <i type="logical" name="LHOLEGF"> F  </i>
   <i type="logical" name="L2ORDER"> F  </i>
   <i type="logical" name="LDMP1"> F  </i>
   <i type="logical" name="LMP2LT"> F  </i>
   <i type="logical" name="LSMP2LT"> F  </i>
   <i type="logical" name="LGWLF"> F  </i>
   <i name="ENCUTGW">     -1.60000002</i>
   <i name="ENCUTGWSOFT">     -1.60000002</i>
   <i name="ENCUTLF">     -1.00000000</i>
   <i type="logical" name="ESF_SPLINES"> F  </i>
   <i name="ESF_CONV">      0.01000000</i>
   <i type="int" name="ESF_NINTER">    15</i>
   <i type="int" name="LMAXMP2">    -1</i>
   <i name="SCISSOR">      0.00000000</i>
   <i type="int" name="NOMEGA">     0</i>
   <i type="int" name="NOMEGAR">     0</i>
   <i type="int" name="NBANDSGW">    -1</i>
   <i type="int" name="NBANDSO">    -1</i>
   <i type="int" name="NBANDSV">    -1</i>
   <i type="int" name="NELMGW">     1</i>
   <i type="int" name="NELMHF">     1</i>
   <i type="int" name="DIM">     3</i>
   <i type="int" name="IESPILON">     4</i>
   <i type="int" name="ANTIRES">     0</i>
   <i name="OMEGAMAX">    -30.00000000</i>
   <i name="OMEGAMIN">    -30.00000000</i>
   <i name="OMEGATL">   -200.00000000</i>
   <i type="int" name="OMEGAGRID">     0</i>
   <i name="CSHIFT">     -0.10000000</i>
   <i type="logical" name="LSELFENERGY"> F  </i>
   <i type="logical" name="LSPECTRAL"> F  </i>
   <i type="logical" name="LSPECTRALGW"> F  </i>
   <i type="logical" name="LSINGLES"> F  </i>
   <i type="logical" name="LFERMIGW"> F  </i>
   <i type="logical" name="ODDONLYGW"> F  </i>
   <i type="logical" name="EVENONLYGW"> F  </i>
   <i type="int" name="NKREDLFX">     1</i>
   <i type="int" name="NKREDLFY">     1</i>
   <i type="int" name="NKREDLFZ">     1</i>
   <i type="int" name="MAXMEM">  2800</i>
   <i type="int" name="TELESCOPE">     0</i>
   <i type="int" name="NTAUPAR">    -1</i>
   <i type="int" name="NOMEGAPAR">    -1</i>
   <i name="DAMP_NEWTON">      0.80000001</i>
   <i name="LAMBDA">      1.00000000</i>
  </separator>
  <separator name="External order field" >
   <i name="OFIELD_KAPPA">      0.00000000</i>
   <v name="OFIELD_K">      0.00000000      0.00000000      0.00000000</v>
   <i name="OFIELD_Q6_NEAR">      0.00000000</i>
   <i name="OFIELD_Q6_FAR">      0.00000000</i>
   <i name="OFIELD_A">      0.00000000</i>
  </separator>
  <separator name="optional k-points parameters" >
   <i type="int" name="KPOINTS_OPT_MODE">     1</i>
   <i type="logical" name="LKPOINTS_OPT"> F  </i>
  </separator>
 </parameters>
 <atominfo>
  <atoms>       8 </atoms>
  <types>       2 </types>
  <array name="atoms" >
   <dimension dim="1">ion</dimension>
   <field type="string">element</field>
   <field type="int">atomtype</field>
   <set>
    <rc><c>As</c><c>   1</c></rc>
    <rc><c>As</c><c>   1</c></rc>
    <rc><c>As</c><c>   1</c></rc>
    <rc><c>As</c><c>   1</c></rc>
    <rc><c>Ga</c><c>   2</c></rc>
    <rc><c>Ga</c><c>   2</c></rc>
    <rc><c>Ga</c><c>   2</c></rc>
    <rc><c>Ga</c><c>   2</c></rc>
   </set>
  </array>
  <array name="atomtypes" >
   <dimension dim="1">type</dimension>
   <field type="int">atomspertype</field>
   <field type="string">element</field>
   <field>mass</field>
   <field>valence</field>
   <field type="string">pseudopotential</field>
   <set>
    <rc><c>   4</c><c>As</c><c>     74.92200000</c><c>      5.00000000</c><c>  PAW_PBE As 22Sep2009                  </c></rc>
    <rc><c>   4</c><c>Ga</c><c>     69.72300000</c><c>      3.00000000</c><c>  PAW_PBE Ga 08Apr2002                  </c></rc>
   </set>
  </array>
 </atominfo>
 <structure name="initialpos" >
  <crystal>
   <varray name="basis" >
    <v>       5.23296993       0.00000000       0.00000000 </v>
    <v>       0.00000000       5.23296993       0.00000000 </v>
    <v>       0.00000000       0.00000000       5.23296993 </v>
   </varray>
   <i name="volume">    143.29951399 </i>
   <varray name="rec_basis" >
    <v>       0.19109607       0.00000000       0.00000000 </v>
    <v>       0.00000000       0.19109607       0.00000000 </v>
    <v>       0.00000000       0.00000000       0.19109607 </v>
   </varray>
  </crystal>
  <varray name="positions" >
   <v>       0.00000000       0.00000000       0.00000000 </v>
   <v>       0.50000000       0.50000000       0.00000000 </v>
   <v>       0.50000000       0.00000000       0.50000000 </v>
   <v>       0.00000000       0.50000000       0.50000000 </v>
   <v>       0.25000000       0.25000000       0.25000000 </v>
   <v>       0.75000000       0.25000000       0.75000000 </v>
   <v>       0.75000000       0.75000000       0.25000000 </v>
   <v>       0.25000000       0.75000000       0.75000000 </v>
  </varray>
 </structure>
 <calculation>
  <scstep>
   <time name="dav">    0.25    0.26</time>
   <time name="total">    0.28    0.29</time>
   <energy>
    <i name="alphaZ">     95.49126884 </i>
    <i name="ewald">   -990.31588622 </i>
    <i name="hartreedc">    -72.81247015 </i>
    <i name="XCdc">   -118.33661155 </i>
    <i name="pawpsdc">   2672.86546478 </i>
    <i name="pawaedc">  -2495.31421687 </i>
    <i name="eentropy">      0.00000000 </i>
    <i name="bandstr">    -36.99446976 </i>
    <i name="atom">    916.21963040 </i>
    <i name="e_fr_energy">    -29.19729053 </i>
    <i name="e_wo_entrp">    -29.19729053 </i>
    <i name="e_0_energy">    -29.19729053 </i>
   </energy>
  </scstep>
  <scstep>
   <time name="dav">    0.23    0.24</time>
   <time name="total">    0.26    0.27</time>
   <energy>
    <i name="e_fr_energy">    -29.13719268 </i>
    <i name="e_wo_entrp">    -29.13719268 </i>
    <i name="e_0_energy">    -29.13719268 </i>
   </energy>
  </scstep>
  <scstep>
   <time name="dav">    0.23    0.24</time>
   <time name="total">    0.26    0.27</time>
   <energy>
    <i name="e_fr_energy">    -29.11665955 </i>
    <i name="e_wo_entrp">    -29.11665955 </i>
    <i name="e_0_energy">    -29.11665955 </i>
   </energy>
  </scstep>
  <scstep>
   <time name="dav">    0.23    0.24</time>
   <time name="total">    0.26    0.27</time>
   <energy>
    <i name="e_fr_energy">    -29.11556577 </i>
    <i name="e_wo_entrp">    -29.11556577 </i>
    <i name="e_0_energy">    -29.11556577 </i>
   </energy>
  </scstep>
  <scstep>
   <time name="dav">    0.24    0.25</time>
   <time name="total">    0.27    0.28</time>
   <energy>
    <i name="e_fr_energy">    -29.11535465 </i>
    <i name="e_wo_entrp">    -29.11535465 </i>
    <i name="e_0_energy">    -29.11535465 </i>
   </energy>
  </scstep>
  <scstep>
   <time name="dav">    0.17    0.18</time>
   <time name="total">    0.18    0.19</time>
   <energy>
    <i name="alphaZ">     95.49126884 </i>
    <i name="ewald">   -990.31588622 </i>
    <i name="hartreedc">    -68.65304169 </i>
    <i name="XCdc">   -118.17856728 </i>
    <i name="pawpsdc">   3019.46458154 </i>
    <i name="pawaedc">  -2841.77380302 </i>
    <i name="eentropy">      0.00000000 </i>
    <i name="bandstr">    -41.36953998 </i>
    <i name="atom">    916.21963040 </i>
    <i name="e_fr_energy">    -29.11535741 </i>
    <i name="e_wo_entrp">    -29.11535741 </i>
    <i name="e_0_energy">    -29.11535741 </i>
   </energy>
  </scstep>
  <structure>
   <crystal>
    <varray name="basis" >
     <v>       5.23296993       0.00000000       0.00000000 </v>
     <v>       0.00000000       5.23296993       0.00000000 </v>
     <v>       0.00000000       0.00000000       5.23296993 </v>
    </varray>
    <i name="volume">    143.29951399 </i>
    <varray name="rec_basis" >
     <v>       0.19109607       0.00000000       0.00000000 </v>
     <v>       0.00000000       0.19109607       0.00000000 </v>
     <v>       0.00000000       0.00000000       0.19109607 </v>
    </varray>
   </crystal>
   <varray name="positions" >
    <v>       0.00000000       0.00000000       0.00000000 </v>
    <v>       0.50000000       0.50000000       0.00000000 </v>
    <v>       0.50000000       0.00000000       0.50000000 </v>
    <v>       0.00000000       0.50000000       0.50000000 </v>
    <v>       0.25000000       0.25000000       0.25000000 </v>
    <v>       0.75000000       0.25000000       0.75000000 </v>
    <v>       0.75000000       0.75000000       0.25000000 </v>
    <v>       0.25000000       0.75000000       0.75000000 </v>
   </varray>
  </structure>
  <varray name="forces" >
   <v>      -0.00000000      -0.00000000       0.00000000 </v>
   <v>       0.00000000      -0.00000000       0.00000000 </v>
   <v>      -0.00000000      -0.00000000       0.00000000 </v>
   <v>       0.00000000      -0.00000000      -0.00000000 </v>
   <v>      -0.00000000      -0.00000000      -0.00000000 </v>
   <v>       0.00000000       0.00000000      -0.00000000 </v>
   <v>      -0.00000000       0.00000000      -0.00000000 </v>
   <v>      -0.00000000       0.00000000      -0.00000000 </v>
  </varray>
  <varray name="stress" >
   <v>     350.73414839      -0.00000000       0.00000000 </v>
   <v>       0.00000000     350.73414839      -0.00000000 </v>
   <v>       0.00000000       0.00000000     350.73414839 </v>
  </varray>
  <energy>
   <i name="e_fr_energy">    -29.11535741 </i>
   <i name="e_wo_entrp">    -29.11535741 </i>
   <i name="e_0_energy">    -29.11535741 </i>
  </energy>
  <time name="totalsc">    2.08    2.19</time>
  <eigenvalues>
   <array>
    <dimension dim="1">band</dimension>
    <dimension dim="2">kpoint</dimension>
    <dimension dim="3">spin</dimension>
    <field>eigene</field>
    <field>occ</field>
    <set>
     <set comment="spin 1">
      <set comment="kpoint 1">
       <r>   -9.7025    1.0000 </r>
       <r>   -6.3069    1.0000 </r>
       <r>   -6.3069    1.0000 </r>
       <r>   -6.3069    1.0000 </r>
       <r>   -3.0893    1.0000 </r>
       <r>   -3.0893    1.0000 </r>
       <r>   -3.0893    1.0000 </r>
       <r>    1.3376    1.0000 </r>
       <r>    1.3376    1.0000 </r>
       <r>    1.3376    1.0000 </r>
       <r>    1.3376    1.0000 </r>
       <r>    1.3376    1.0000 </r>
       <r>    1.3376    1.0000 </r>
       <r>    4.9571    1.0000 </r>
       <r>    4.9571    1.0000 </r>
       <r>    4.9571    1.0000 </r>
       <r>    5.8723    0.0000 </r>
       <r>    5.8723    0.0000 </r>
       <r>    5.8723    0.0000 </r>
       <r>    6.3796    0.0000 </r>
       <r>    6.3796    0.0000 </r>
       <r>    6.3796    0.0000 </r>
       <r>    7.4095    0.0000 </r>
       <r>    8.7264    0.0000 </r>
      </set>
      <set comment="kpoint 2">
       <r>   -9.5139    1.0000 </r>
       <r>   -6.9832    1.0000 </r>
       <r>   -6.2719    1.0000 </r>
       <r>   -6.2719    1.0000 </r>
       <r>   -2.9880    1.0000 </r>
       <r>   -2.9880    1.0000 </r>
       <r>   -2.1619    1.0000 </r>
       <r>    0.8708    1.0000 </r>
       <r>    0.8708    1.0000 </r>
       <r>    0.9356    1.0000 </r>
       <r>    0.9356    1.0000 </r>
       <r>    1.5483    1.0000 </r>
       <r>    1.5483    1.0000 </r>
       <r>    3.6661    1.0000 </r>
       <r>    4.2793    1.0000 </r>
       <r>    4.2793    1.0000 </r>
       <r>    5.9420    0.0000 </r>
       <r>    6.8203    0.0000 </r>
       <r>    6.8203    0.0000 </r>
       <r>    6.8272    0.0000 </r>
       <r>    7.3355    0.0000 </r>
       <r>    7.3355    0.0000 </r>
       <r>    8.1158    0.0000 </r>
       <r>    8.6313    0.0000 </r>
      </set>
      <set comment="kpoint 3">
       <r>   -8.9569    1.0000 </r>
       <r>   -8.0693    1.0000 </r>
       <r>   -6.2132    1.0000 </r>
       <r>   -6.2132    1.0000 </r>
       <r>   -2.7927    1.0000 </r>
       <r>   -2.7927    1.0000 </r>
       <r>   -0.3521    1.0000 </r>
       <r>    0.2213    1.0000 </r>
       <r>    0.2213    1.0000 </r>
       <r>    0.4255    1.0000 </r>
       <r>    0.4255    1.0000 </r>
       <r>    1.6654    1.0000 </r>
       <r>    2.1653    1.0000 </r>
       <r>    2.1653    1.0000 </r>
       <r>    3.1323    1.0000 </r>
       <r>    3.1323    1.0000 </r>
       <r>    6.3455    0.0000 </r>
       <r>    7.1255    0.0000 </r>
       <r>    7.9370    0.0000 </r>
       <r>    8.9304    0.0000 </r>
       <r>    8.9304    0.0000 </r>
       <r>    9.2226    0.0000 </r>
       <r>    9.5259    0.0000 </r>
       <r>    9.5259    0.0000 </r>
      </set>
      <set comment="kpoint 4">
       <r>   -9.3283    1.0000 </r>
       <r>   -6.8875    1.0000 </r>
       <r>   -6.8875    1.0000 </r>
       <r>   -6.2965    1.0000 </r>
       <r>   -2.8950    1.0000 </r>
       <r>   -2.2170    1.0000 </r>
       <r>   -2.2170    1.0000 </r>
       <r>   -0.0313    1.0000 </r>
       <r>    0.9772    1.0000 </r>
       <r>    0.9772    1.0000 </r>
       <r>    1.3605    1.0000 </r>
       <r>    1.3605    1.0000 </r>
       <r>    1.6944    1.0000 </r>
       <r>    2.3839    1.0000 </r>
       <r>    3.5907    1.0000 </r>
       <r>    4.7316    1.0000 </r>
       <r>    6.4524    0.0000 </r>
       <r>    6.9410    0.0000 </r>
       <r>    6.9410    0.0000 </r>
       <r>    7.6958    0.0000 </r>
       <r>    7.6958    0.0000 </r>
       <r>    8.2886    0.0000 </r>
       <r>    8.9295    0.0000 </r>
       <r>    9.1379    0.0000 </r>
      </set>
      <set comment="kpoint 5">
       <r>   -8.7823    1.0000 </r>
       <r>   -7.9200    1.0000 </r>
       <r>   -6.6520    1.0000 </r>
       <r>   -6.4159    1.0000 </r>
       <r>   -2.6706    1.0000 </r>
       <r>   -2.4079    1.0000 </r>
       <r>   -0.7580    1.0000 </r>
       <r>   -0.3557    1.0000 </r>
       <r>    0.0867    1.0000 </r>
       <r>    0.7957    1.0000 </r>
       <r>    1.2847    1.0000 </r>
       <r>    1.5212    1.0000 </r>
       <r>    1.5936    1.0000 </r>
       <r>    2.3714    1.0000 </r>
       <r>    2.4504    1.0000 </r>
       <r>    3.7505    1.0000 </r>
       <r>    7.3869    0.0000 </r>
       <r>    7.7437    0.0000 </r>
       <r>    8.1585    0.0000 </r>
       <r>    8.6441    0.0000 </r>
       <r>    9.0625    0.0000 </r>
       <r>    9.1869    0.0000 </r>
       <r>    9.7681    0.0000 </r>
       <r>   10.4019    0.0000 </r>
      </set>
      <set comment="kpoint 6">
       <r>   -8.2756    1.0000 </r>
       <r>   -7.5028    1.0000 </r>
       <r>   -7.5028    1.0000 </r>
       <r>   -6.9283    1.0000 </r>
       <r>   -2.2598    1.0000 </r>
       <r>   -1.5568    1.0000 </r>
       <r>   -1.5568    1.0000 </r>
       <r>   -0.4581    1.0000 </r>
       <r>   -0.2408    1.0000 </r>
       <r>    0.4832    1.0000 </r>
       <r>    0.4832    1.0000 </r>
       <r>    1.3407    1.0000 </r>
       <r>    2.6660    1.0000 </r>
       <r>    2.7396    1.0000 </r>
       <r>    2.7396    1.0000 </r>
       <r>    3.8894    1.0000 </r>
       <r>    7.4611    0.0000 </r>
       <r>    8.5133    0.0000 </r>
       <r>    8.8845    0.0000 </r>
       <r>    8.8845    0.0000 </r>
       <r>    9.7146    0.0000 </r>
       <r>    9.7146    0.0000 </r>
       <r>   10.2324    0.0000 </r>
       <r>   10.4852    0.0000 </r>
      </set>
      <set comment="kpoint 7">
       <r>   -9.1467    1.0000 </r>
       <r>   -6.8296    1.0000 </r>
       <r>   -6.8296    1.0000 </r>
       <r>   -6.8296    1.0000 </r>
       <r>   -2.3721    1.0000 </r>
       <r>   -2.3721    1.0000 </r>
       <r>   -2.3721    1.0000 </r>
       <r>    0.4543    1.0000 </r>
       <r>    0.4543    1.0000 </r>
       <r>    0.4543    1.0000 </r>
       <r>    1.2539    1.0000 </r>
       <r>    1.8888    1.0000 </r>
       <r>    1.8888    1.0000 </r>
       <r>    1.8888    1.0000 </r>
       <r>    4.2469    1.0000 </r>
       <r>    4.2469    1.0000 </r>
       <r>    6.6898    0.0000 </r>
       <r>    6.6898    0.0000 </r>
       <r>    6.6898    0.0000 </r>
       <r>    7.4549    0.0000 </r>
       <r>    9.1580    0.0000 </r>
       <r>    9.1580    0.0000 </r>
       <r>    9.1580    0.0000 </r>
       <r>    9.6223    0.0000 </r>
      </set>
      <set comment="kpoint 8">
       <r>   -8.6150    1.0000 </r>
       <r>   -7.7868    1.0000 </r>
       <r>   -6.7283    1.0000 </r>
       <r>   -6.7283    1.0000 </r>
       <r>   -2.6557    1.0000 </r>
       <r>   -2.6557    1.0000 </r>
       <r>   -1.3643    1.0000 </r>
       <r>   -0.1581    1.0000 </r>
       <r>    0.2859    1.0000 </r>
       <r>    0.2859    1.0000 </r>
       <r>    1.7637    1.0000 </r>
       <r>    1.8923    1.0000 </r>
       <r>    1.8923    1.0000 </r>
       <r>    2.4518    1.0000 </r>
       <r>    3.3070    1.0000 </r>
       <r>    3.3891    1.0000 </r>
       <r>    7.3475    0.0000 </r>
       <r>    7.8926    0.0000 </r>
       <r>    7.9582    0.0000 </r>
       <r>    7.9582    0.0000 </r>
       <r>    9.2641    0.0000 </r>
       <r>    9.7556    0.0000 </r>
       <r>   10.3179    0.0000 </r>
       <r>   10.3179    0.0000 </r>
      </set>
      <set comment="kpoint 9">
       <r>   -8.1356    1.0000 </r>
       <r>   -7.4320    1.0000 </r>
       <r>   -7.4320    1.0000 </r>
       <r>   -7.0072    1.0000 </r>
       <r>   -2.7556    1.0000 </r>
       <r>   -2.2620    1.0000 </r>
       <r>   -2.2620    1.0000 </r>
       <r>   -1.3828    1.0000 </r>
       <r>    0.7805    1.0000 </r>
       <r>    1.4177    1.0000 </r>
       <r>    1.4177    1.0000 </r>
       <r>    2.4478    1.0000 </r>
       <r>    2.7898    1.0000 </r>
       <r>    2.8369    1.0000 </r>
       <r>    2.8369    1.0000 </r>
       <r>    3.7953    1.0000 </r>
       <r>    7.6294    0.0000 </r>
       <r>    7.7799    0.0000 </r>
       <r>    8.3628    0.0000 </r>
       <r>    8.3628    0.0000 </r>
       <r>    9.1553    0.0000 </r>
       <r>    9.1553    0.0000 </r>
       <r>    9.8196    0.0000 </r>
       <r>    9.8753    0.0000 </r>
      </set>
      <set comment="kpoint 10">
       <r>   -7.7600    1.0000 </r>
       <r>   -7.3051    1.0000 </r>
       <r>   -7.3051    1.0000 </r>
       <r>   -7.3051    1.0000 </r>
       <r>   -2.9907    1.0000 </r>
       <r>   -2.9907    1.0000 </r>
       <r>   -2.9907    1.0000 </r>
       <r>   -2.4640    1.0000 </r>
       <r>    2.5082    1.0000 </r>
       <r>    2.5082    1.0000 </r>
       <r>    2.5082    1.0000 </r>
       <r>    3.1164    1.0000 </r>
       <r>    3.1164    1.0000 </r>
       <r>    3.1164    1.0000 </r>
       <r>    3.5102    1.0000 </r>
       <r>    3.5102    1.0000 </r>
       <r>    6.8090    0.0000 </r>
       <r>    7.5256    0.0000 </r>
       <r>    7.5256    0.0000 </r>
       <r>    7.5256    0.0000 </r>
       <r>    9.3017    0.0000 </r>
       <r>    9.3017    0.0000 </r>
       <r>    9.3017    0.0000 </r>
       <r>    9.6941    0.0000 </r>
      </set>
     </set>
    </set>
   </array>
  </eigenvalues>
  <separator name="orbital magnetization" >
   <v name="MAGDIPOLOUT">      0.00000000      0.00000000      0.00000000</v>
  </separator>
  <dielectricfunction comment="density-density">
   <imag>
    <array>
     <dimension dim="1">gridpoints</dimension>
     <field>energy</field>
     <field>xx</field>
     <field>yy</field>
     <field>zz</field>
     <field>xy</field>
     <field>yz</field>
     <field>zx</field>
     <set>
      <r>     0.0000     0.0000     0.0000     0.0000     0.0000     0.0000     0.0000 </r>
      <r>     0.0242     0.0020     0.0020     0.0020    -0.0000    -0.0000     0.0000 </r>
      <r>     0.0485     0.0039     0.0039     0.0039    -0.0000    -0.0000     0.0000 </r>
      <r>     0.0727     0.0059     0.0059     0.0059    -0.0000    -0.0000     0.0000 </r>
      <r>     0.0970     0.0079     0.0079     0.0079    -0.0000    -0.0000     0.0000 </r>
      <r>     0.1212     0.0099     0.0099     0.0099    -0.0000    -0.0000     0.0000 </r>
      <r>     0.1455     0.0119     0.0119     0.0119    -0.0000    -0.0000     0.0000 </r>
      <r>     0.1697     0.0139     0.0139     0.0139    -0.0000    -0.0000     0.0000 </r>
      <r>     0.1940     0.0159     0.0159     0.0159    -0.0000    -0.0000     0.0000 </r>
      <r>     0.2182     0.0179     0.0179     0.0179    -0.0000    -0.0000     0.0000 </r>
      <r>     0.2425     0.0199     0.0199     0.0199    -0.0000    -0.0000     0.0000 </r>
      <r>     0.2667     0.0219     0.0219     0.0219    -0.0000    -0.0000     0.0000 </r>
      <r>     0.2910     0.0239     0.0239     0.0239    -0.0000    -0.0000     0.0000 </r>
      <r>     0.3152     0.0260     0.0260     0.0260    -0.0000    -0.0000     0.0000 </r>
      <r>     0.3395     0.0280     0.0280     0.0280    -0.0000    -0.0000     0.0000 </r>
      <r>     0.3637     0.0301     0.0301     0.0301    -0.0000    -0.0000     0.0000 </r>
      <r>     0.3880     0.0322     0.0322     0.0322    -0.0000    -0.0000     0.0000 </r>
      <r>     0.4122     0.0342     0.0342     0.0342    -0.0000    -0.0000     0.0000 </r>
      <r>     0.4365     0.0363     0.0363     0.0363    -0.0000    -0.0000     0.0000 </r>
      <r>     0.4607     0.0385     0.0385     0.0385    -0.0000    -0.0000     0.0000 </r>
      <r>     0.4850     0.0406     0.0406     0.0406    -0.0000    -0.0000     0.0000 </r>
      <r>     0.5092     0.0428     0.0428     0.0428    -0.0000    -0.0000     0.0000 </r>
      <r>     0.5335     0.0449     0.0449     0.0449    -0.0000    -0.0000     0.0000 </r>
      <r>     0.5577     0.0471     0.0471     0.0471    -0.0000    -0.0000     0.0000 </r>
      <r>     0.5820     0.0493     0.0493     0.0493    -0.0000    -0.0000     0.0000 </r>
      <r>     0.6062     0.0516     0.0516     0.0516    -0.0000    -0.0000     0.0000 </r>
      <r>     0.6305     0.0538     0.0538     0.0538    -0.0000    -0.0000     0.0000 </r>
      <r>     0.6547     0.0561     0.0561     0.0561    -0.0000    -0.0000     0.0000 </r>
      <r>     0.6790     0.0585     0.0585     0.0585    -0.0000    -0.0000     0.0000 </r>
      <r>     0.7032     0.0608     0.0608     0.0608    -0.0000    -0.0000     0.0000 </r>
      <r>     0.7275     0.0632     0.0632     0.0632    -0.0000    -0.0000     0.0000 </r>
      <r>     0.7517     0.0656     0.0656     0.0656    -0.0000    -0.0000     0.0000 </r>
      <r>     0.7760     0.0680     0.0680     0.0680    -0.0000    -0.0000     0.0000 </r>
      <r>     0.8002     0.0705     0.0705     0.0705    -0.0000    -0.0000     0.0000 </r>
      <r>     0.8245     0.0730     0.0730     0.0730    -0.0000    -0.0000     0.0000 </r>
      <r>     0.8487     0.0756     0.0756     0.0756    -0.0000    -0.0000     0.0000 </r>
      <r>     0.8730     0.0781     0.0781     0.0781    -0.0000    -0.0000     0.0000 </r>
      <r>     0.8972     0.0808     0.0808     0.0808    -0.0000    -0.0000     0.0000 </r>
      <r>     0.9215     0.0835     0.0835     0.0835    -0.0000    -0.0000     0.0000 </r>
      <r>     0.9457     0.0862     0.0862     0.0862    -0.0000    -0.0000     0.0000 </r>
      <r>     0.9700     0.0890     0.0890     0.0890    -0.0000    -0.0000     0.0000 </r>
      <r>     0.9942     0.0918     0.0918     0.0918    -0.0000    -0.0000     0.0000 </r>
      <r>     1.0185     0.0947     0.0947     0.0947    -0.0000    -0.0000     0.0000 </r>
      <r>     1.0427     0.0977     0.0977     0.0977    -0.0000    -0.0000     0.0000 </r>
      <r>     1.0670     0.1007     0.1007     0.1007    -0.0000    -0.0000     0.0000 </r>
      <r>     1.0912     0.1038     0.1038     0.1038    -0.0000    -0.0000     0.0000 </r>
      <r>     1.1155     0.1070     0.1070     0.1070    -0.0000    -0.0000     0.0000 </r>
      <r>     1.1397     0.1102     0.1102     0.1102    -0.0000    -0.0000     0.0000 </r>
      <r>     1.1640     0.1135     0.1135     0.1135    -0.0000    -0.0000     0.0000 </r>
      <r>     1.1882     0.1170     0.1170     0.1170    -0.0000    -0.0000     0.0000 </r>
      <r>     1.2125     0.1205     0.1205     0.1205    -0.0000    -0.0000     0.0000 </r>
      <r>     1.2367     0.1241     0.1241     0.1241    -0.0000    -0.0000     0.0000 </r>
      <r>     1.2610     0.1278     0.1278     0.1278    -0.0000    -0.0000     0.0000 </r>
      <r>     1.2852     0.1316     0.1316     0.1316    -0.0000    -0.0000     0.0000 </r>
      <r>     1.3095     0.1355     0.1355     0.1355    -0.0000    -0.0000     0.0000 </r>
      <r>     1.3337     0.1396     0.1396     0.1396    -0.0000    -0.0000     0.0000 </r>
      <r>     1.3580     0.1438     0.1438     0.1438    -0.0000    -0.0000     0.0000 </r>
      <r>     1.3822     0.1482     0.1482     0.1482    -0.0000    -0.0000     0.0000 </r>
      <r>     1.4065     0.1527     0.1527     0.1527    -0.0000    -0.0000     0.0000 </r>
      <r>     1.4307     0.1575     0.1575     0.1575    -0.0000    -0.0000     0.0000 </r>
      <r>     1.4550     0.1625     0.1625     0.1625    -0.0000    -0.0000     0.0000 </r>
      <r>     1.4792     0.1678     0.1678     0.1678    -0.0000    -0.0000     0.0000 </r>
      <r>     1.5035     0.1733     0.1733     0.1733    -0.0000    -0.0000     0.0000 </r>
      <r>     1.5277     0.1791     0.1791     0.1791    -0.0000    -0.0000     0.0000 </r>
      <r>     1.5520     0.1852     0.1852     0.1852    -0.0000    -0.0000     0.0000 </r>
      <r>     1.5762     0.1917     0.1917     0.1917    -0.0000    -0.0000     0.0000 </r>
      <r>     1.6005     0.1985     0.1985     0.1985    -0.0000    -0.0000     0.0000 </r>
      <r>     1.6247     0.2057     0.2057     0.2057    -0.0000    -0.0000     0.0000 </r>
      <r>     1.6490     0.2132     0.2132     0.2132    -0.0000    -0.0000     0.0000 </r>
      <r>     1.6732     0.2211     0.2211     0.2211    -0.0000    -0.0000     0.0000 </r>
      <r>     1.6975     0.2293     0.2293     0.2293    -0.0000    -0.0000     0.0000 </r>
      <r>     1.7217     0.2380     0.2380     0.2380    -0.0000    -0.0000     0.0000 </r>
      <r>     1.7460     0.2471     0.2471     0.2471    -0.0000    -0.0000     0.0000 </r>
      <r>     1.7702     0.2566     0.2566     0.2566    -0.0000    -0.0000     0.0000 </r>
      <r>     1.7945     0.2666     0.2666     0.2666    -0.0000    -0.0000     0.0000 </r>
      <r>     1.8187     0.2770     0.2770     0.2770    -0.0000    -0.0000     0.0000 </r>
      <r>     1.8430     0.2879     0.2879     0.2879    -0.0000    -0.0000     0.0000 </r>
      <r>     1.8672     0.2993     0.2993     0.2993    -0.0000    -0.0000     0.0000 </r>
      <r>     1.8915     0.3112     0.3112     0.3112    -0.0000    -0.0000     0.0000 </r>
      <r>     1.9157     0.3237     0.3237     0.3237    -0.0000    -0.0000     0.0000 </r>
      <r>     1.9400     0.3367     0.3367     0.3367    -0.0000    -0.0000     0.0000 </r>
      <r>     1.9642     0.3504     0.3504     0.3504    -0.0000    -0.0000     0.0000 </r>
      <r>     1.9885     0.3647     0.3647     0.3647    -0.0000    -0.0000     0.0000 </r>
      <r>     2.0127     0.3797     0.3797     0.3797    -0.0000    -0.0000     0.0000 </r>
      <r>     2.0370     0.3955     0.3955     0.3955    -0.0000    -0.0000     0.0000 </r>
      <r>     2.0612     0.4121     0.4121     0.4121    -0.0000    -0.0000     0.0000 </r>
      <r>     2.0855     0.4297     0.4297     0.4297    -0.0000    -0.0000     0.0000 </r>
      <r>     2.1097     0.4484     0.4484     0.4484    -0.0000    -0.0000     0.0000 </r>
      <r>     2.1340     0.4684     0.4684     0.4684    -0.0000    -0.0000     0.0000 </r>
      <r>     2.1582     0.4899     0.4899     0.4899    -0.0000    -0.0000     0.0000 </r>
      <r>     2.1825     0.5131     0.5131     0.5131    -0.0000    -0.0000     0.0000 </r>
      <r>     2.2067     0.5382     0.5382     0.5382    -0.0000    -0.0000     0.0000 </r>
      <r>     2.2310     0.5656     0.5656     0.5656    -0.0000    -0.0000     0.0000 </r>
      <r>     2.2552     0.5953     0.5953     0.5953    -0.0000    -0.0000     0.0000 </r>
      <r>     2.2795     0.6272     0.6272     0.6272    -0.0000    -0.0000     0.0000 </r>
      <r>     2.3037     0.6614     0.6614     0.6614    -0.0000    -0.0000     0.0000 </r>
      <r>     2.3279     0.6978     0.6978     0.6978    -0.0000    -0.0000     0.0000 </r>
      <r>     2.3522     0.7363     0.7363     0.7363    -0.0000    -0.0000     0.0000 </r>
      <r>     2.3764     0.7769     0.7769     0.7769    -0.0000    -0.0000     0.0000 </r>
      <r>     2.4007     0.8196     0.8196     0.8196    -0.0000    -0.0000     0.0000 </r>
      <r>     2.4249     0.8644     0.8644     0.8644    -0.0000    -0.0000     0.0000 </r>
      <r>     2.4492     0.9111     0.9111     0.9111    -0.0000    -0.0000     0.0000 </r>
      <r>     2.4734     0.9599     0.9599     0.9599    -0.0000     0.0000     0.0000 </r>
      <r>     2.4977     1.0108     1.0108     1.0108    -0.0000     0.0000     0.0000 </r>
      <r>     2.5219     1.0639     1.0639     1.0639    -0.0000     0.0000     0.0000 </r>
      <r>     2.5462     1.1195     1.1195     1.1195    -0.0000     0.0000     0.0000 </r>
      <r>     2.5704     1.1778     1.1778     1.1778    -0.0000    -0.0000     0.0000 </r>
      <r>     2.5947     1.2390     1.2390     1.2390    -0.0000    -0.0000     0.0000 </r>
      <r>     2.6189     1.3035     1.3035     1.3035    -0.0000    -0.0000     0.0000 </r>
      <r>     2.6432     1.3715     1.3715     1.3715    -0.0000    -0.0000     0.0000 </r>
      <r>     2.6674     1.4431     1.4431     1.4431    -0.0000    -0.0000     0.0000 </r>
      <r>     2.6917     1.5185     1.5185     1.5185    -0.0000    -0.0000     0.0000 </r>
      <r>     2.7159     1.5977     1.5977     1.5977    -0.0000    -0.0000     0.0000 </r>
      <r>     2.7402     1.6809     1.6809     1.6809    -0.0000     0.0000     0.0000 </r>
      <r>     2.7644     1.7680     1.7680     1.7680    -0.0000     0.0000     0.0000 </r>
      <r>     2.7887     1.8591     1.8591     1.8591     0.0000     0.0000     0.0000 </r>
      <r>     2.8129     1.9541     1.9541     1.9541     0.0000     0.0000     0.0000 </r>
      <r>     2.8372     2.0529     2.0529     2.0529     0.0000     0.0000     0.0000 </r>
      <r>     2.8614     2.1554     2.1554     2.1554     0.0000     0.0000     0.0000 </r>
      <r>     2.8857     2.2613     2.2613     2.2613     0.0000     0.0000     0.0000 </r>
      <r>     2.9099     2.3702     2.3702     2.3702     0.0000     0.0000     0.0000 </r>
      <r>     2.9342     2.4819     2.4819     2.4819     0.0000     0.0000     0.0000 </r>
      <r>     2.9584     2.5964     2.5964     2.5964     0.0000     0.0000     0.0000 </r>
      <r>     2.9827     2.7147     2.7147     2.7147     0.0000     0.0000     0.0000 </r>
      <r>     3.0069     2.8389     2.8389     2.8389    -0.0000     0.0000     0.0000 </r>
      <r>     3.0312     2.9723     2.9723     2.9723    -0.0000     0.0000     0.0000 </r>
      <r>     3.0554     3.1183     3.1183     3.1183    -0.0000     0.0000     0.0000 </r>
      <r>     3.0797     3.2802     3.2802     3.2802    -0.0000     0.0000     0.0000 </r>
      <r>     3.1039     3.4610     3.4610     3.4610    -0.0000     0.0000     0.0000 </r>
      <r>     3.1282     3.6639     3.6639     3.6639    -0.0000     0.0000     0.0000 </r>
      <r>     3.1524     3.8933     3.8933     3.8933    -0.0000    -0.0000     0.0000 </r>
      <r>     3.1767     4.1558     4.1558     4.1558    -0.0000    -0.0000     0.0000 </r>
      <r>     3.2009     4.4606     4.4606     4.4606    -0.0000    -0.0000     0.0000 </r>
      <r>     3.2252     4.8183     4.8183     4.8183    -0.0000    -0.0000     0.0000 </r>
      <r>     3.2494     5.2356     5.2356     5.2356    -0.0000    -0.0000     0.0000 </r>
      <r>     3.2737     5.7025     5.7025     5.7025    -0.0000    -0.0000     0.0000 </r>
      <r>     3.2979     6.1714     6.1714     6.1714    -0.0000    -0.0000     0.0000 </r>
      <r>     3.3222     6.5600     6.5600     6.5600    -0.0000    -0.0000     0.0000 </r>
      <r>     3.3464     6.8121     6.8121     6.8121    -0.0000    -0.0000     0.0000 </r>
      <r>     3.3707     6.9508     6.9508     6.9508    -0.0000    -0.0000     0.0000 </r>
      <r>     3.3949     7.0403     7.0403     7.0403    -0.0000    -0.0000     0.0000 </r>
      <r>     3.4192     7.1271     7.1271     7.1271    -0.0000    -0.0000     0.0000 </r>
      <r>     3.4434     7.2285     7.2285     7.2285    -0.0000    -0.0000     0.0000 </r>
      <r>     3.4677     7.3466     7.3466     7.3466    -0.0000    -0.0000     0.0000 </r>
      <r>     3.4919     7.4788     7.4788     7.4788    -0.0000    -0.0000    -0.0000 </r>
      <r>     3.5162     7.6223     7.6223     7.6223    -0.0000    -0.0000    -0.0000 </r>
      <r>     3.5404     7.7750     7.7750     7.7750    -0.0000    -0.0000    -0.0000 </r>
      <r>     3.5647     7.9363     7.9363     7.9363    -0.0000    -0.0000    -0.0000 </r>
      <r>     3.5889     8.1057     8.1057     8.1057    -0.0000    -0.0000    -0.0000 </r>
      <r>     3.6132     8.2834     8.2834     8.2834    -0.0000    -0.0000    -0.0000 </r>
      <r>     3.6374     8.4695     8.4695     8.4695    -0.0000    -0.0000    -0.0000 </r>
      <r>     3.6617     8.6643     8.6643     8.6643    -0.0000    -0.0000    -0.0000 </r>
      <r>     3.6859     8.8680     8.8680     8.8680    -0.0000    -0.0000    -0.0000 </r>
      <r>     3.7102     9.0800     9.0800     9.0800    -0.0000    -0.0000    -0.0000 </r>
      <r>     3.7344     9.2998     9.2998     9.2998    -0.0000    -0.0000    -0.0000 </r>
      <r>     3.7587     9.5275     9.5275     9.5275    -0.0000    -0.0000    -0.0000 </r>
      <r>     3.7829     9.7654     9.7654     9.7654    -0.0000    -0.0000    -0.0000 </r>
      <r>     3.8072    10.0201    10.0201    10.0201    -0.0000    -0.0000    -0.0000 </r>
      <r>     3.8314    10.3057    10.3057    10.3057    -0.0000    -0.0000    -0.0000 </r>
      <r>     3.8557    10.6485    10.6485    10.6485    -0.0000    -0.0000    -0.0000 </r>
      <r>     3.8799    11.0857    11.0857    11.0857    -0.0000    -0.0000    -0.0000 </r>
      <r>     3.9042    11.6576    11.6576    11.6576    -0.0000    -0.0000     0.0000 </r>
      <r>     3.9284    12.3941    12.3941    12.3941    -0.0000    -0.0000     0.0000 </r>
      <r>     3.9527    13.2868    13.2868    13.2868    -0.0000    -0.0000     0.0000 </r>
      <r>     3.9769    14.2465    14.2465    14.2465    -0.0000    -0.0000     0.0000 </r>
      <r>     4.0012    15.1012    15.1012    15.1012    -0.0000    -0.0000     0.0000 </r>
      <r>     4.0254    15.7094    15.7094    15.7094    -0.0000    -0.0000     0.0000 </r>
      <r>     4.0497    16.0762    16.0762    16.0762    -0.0000    -0.0000    -0.0000 </r>
      <r>     4.0739    16.3015    16.3015    16.3015    -0.0000    -0.0000    -0.0000 </r>
      <r>     4.0982    16.4721    16.4721    16.4721    -0.0000    -0.0000    -0.0000 </r>
      <r>     4.1224    16.6327    16.6327    16.6327    -0.0000    -0.0000     0.0000 </r>
      <r>     4.1467    16.8020    16.8020    16.8020    -0.0000    -0.0000     0.0000 </r>
      <r>     4.1709    16.9891    16.9891    16.9891    -0.0000    -0.0000     0.0000 </r>
      <r>     4.1952    17.2008    17.2008    17.2008    -0.0000    -0.0000     0.0000 </r>
      <r>     4.2194    17.4444    17.4444    17.4444    -0.0000    -0.0000     0.0000 </r>
      <r>     4.2437    17.7285    17.7285    17.7285    -0.0000    -0.0000     0.0000 </r>
      <r>     4.2679    18.0642    18.0642    18.0642    -0.0000    -0.0000     0.0000 </r>
      <r>     4.2922    18.4659    18.4659    18.4659    -0.0000    -0.0000     0.0000 </r>
      <r>     4.3164    18.9495    18.9495    18.9495    -0.0000    -0.0000     0.0000 </r>
      <r>     4.3407    19.5260    19.5260    19.5260    -0.0000     0.0000     0.0000 </r>
      <r>     4.3649    20.1851    20.1851    20.1851    -0.0000     0.0000     0.0000 </r>
      <r>     4.3892    20.8730    20.8730    20.8730    -0.0000     0.0000     0.0000 </r>
      <r>     4.4134    21.4945    21.4945    21.4945     0.0000     0.0000     0.0000 </r>
      <r>     4.4377    21.9736    21.9736    21.9736     0.0000     0.0000     0.0000 </r>
      <r>     4.4619    22.3109    22.3109    22.3109     0.0000     0.0000    -0.0000 </r>
      <r>     4.4862    22.5510    22.5510    22.5510     0.0000     0.0000    -0.0000 </r>
      <r>     4.5104    22.7273    22.7273    22.7273     0.0000     0.0000     0.0000 </r>
      <r>     4.5347    22.8552    22.8552    22.8552     0.0000    -0.0000     0.0000 </r>
      <r>     4.5589    22.9491    22.9491    22.9491     0.0000    -0.0000     0.0000 </r>
      <r>     4.5832    23.0369    23.0369    23.0369     0.0000     0.0000     0.0000 </r>
      <r>     4.6074    23.1611    23.1611    23.1611     0.0000     0.0000    -0.0000 </r>
      <r>     4.6316    23.3702    23.3702    23.3702     0.0000     0.0000    -0.0000 </r>
      <r>     4.6559    23.7096    23.7096    23.7096     0.0000     0.0000    -0.0000 </r>
      <r>     4.6801    24.2171    24.2171    24.2171     0.0000     0.0000    -0.0000 </r>
      <r>     4.7044    24.9217    24.9217    24.9217     0.0000     0.0000    -0.0000 </r>
      <r>     4.7286    25.8376    25.8376    25.8376     0.0000     0.0000    -0.0000 </r>
      <r>     4.7529    26.9371    26.9371    26.9371     0.0000     0.0000    -0.0000 </r>
      <r>     4.7771    28.1050    28.1050    28.1050     0.0000     0.0000    -0.0000 </r>
      <r>     4.8014    29.1182    29.1182    29.1182     0.0000     0.0000    -0.0000 </r>
      <r>     4.8256    29.7291    29.7291    29.7291    -0.0000     0.0000    -0.0000 </r>
      <r>     4.8499    29.8215    29.8215    29.8215    -0.0000     0.0000    -0.0000 </r>
      <r>     4.8741    29.4528    29.4528    29.4528    -0.0000     0.0000    -0.0000 </r>
      <r>     4.8984    28.7554    28.7554    28.7554    -0.0000     0.0000    -0.0000 </r>
      <r>     4.9226    27.8508    27.8508    27.8508    -0.0000     0.0000    -0.0000 </r>
      <r>     4.9469    26.8337    26.8337    26.8337    -0.0000     0.0000    -0.0000 </r>
      <r>     4.9711    25.7800    25.7800    25.7800    -0.0000     0.0000    -0.0000 </r>
      <r>     4.9954    24.7532    24.7532    24.7532    -0.0000     0.0000    -0.0000 </r>
      <r>     5.0196    23.8074    23.8074    23.8074    -0.0000     0.0000     0.0000 </r>
      <r>     5.0439    22.9832    22.9832    22.9832    -0.0000     0.0000     0.0000 </r>
      <r>     5.0681    22.2986    22.2986    22.2986    -0.0000    -0.0000     0.0000 </r>
      <r>     5.0924    21.7477    21.7477    21.7477    -0.0000    -0.0000     0.0000 </r>
      <r>     5.1166    21.3095    21.3095    21.3095    -0.0000    -0.0000     0.0000 </r>
      <r>     5.1409    20.9595    20.9595    20.9595    -0.0000    -0.0000     0.0000 </r>
      <r>     5.1651    20.6759    20.6759    20.6759    -0.0000    -0.0000     0.0000 </r>
      <r>     5.1894    20.4409    20.4409    20.4409    -0.0000    -0.0000     0.0000 </r>
      <r>     5.2136    20.2414    20.2414    20.2414    -0.0000    -0.0000     0.0000 </r>
      <r>     5.2379    20.0685    20.0685    20.0685    -0.0000    -0.0000     0.0000 </r>
      <r>     5.2621    19.9186    19.9186    19.9186    -0.0000     0.0000     0.0000 </r>
      <r>     5.2864    19.7927    19.7927    19.7927    -0.0000     0.0000     0.0000 </r>
      <r>     5.3106    19.6952    19.6952    19.6952     0.0000     0.0000     0.0000 </r>
      <r>     5.3349    19.6307    19.6307    19.6307     0.0000     0.0000     0.0000 </r>
      <r>     5.3591    19.6009    19.6009    19.6009     0.0000     0.0000     0.0000 </r>
      <r>     5.3834    19.6037    19.6037    19.6037     0.0000     0.0000     0.0000 </r>
      <r>     5.4076    19.6342    19.6342    19.6342     0.0000     0.0000     0.0000 </r>
      <r>     5.4319    19.6853    19.6853    19.6853     0.0000    -0.0000     0.0000 </r>
      <r>     5.4561    19.7477    19.7477    19.7477     0.0000    -0.0000     0.0000 </r>
      <r>     5.4804    19.8066    19.8066    19.8066     0.0000    -0.0000     0.0000 </r>
      <r>     5.5046    19.8367    19.8367    19.8367     0.0000    -0.0000     0.0000 </r>
      <r>     5.5289    19.8048    19.8048    19.8048     0.0000    -0.0000     0.0000 </r>
      <r>     5.5531    19.6943    19.6943    19.6943     0.0000    -0.0000     0.0000 </r>
      <r>     5.5774    19.5235    19.5235    19.5235     0.0000    -0.0000     0.0000 </r>
      <r>     5.6016    19.3254    19.3254    19.3254     0.0000    -0.0000     0.0000 </r>
      <r>     5.6259    19.1207    19.1207    19.1207     0.0000    -0.0000     0.0000 </r>
      <r>     5.6501    18.9149    18.9149    18.9149     0.0000     0.0000     0.0000 </r>
      <r>     5.6744    18.7063    18.7063    18.7063     0.0000     0.0000     0.0000 </r>
      <r>     5.6986    18.4920    18.4920    18.4920     0.0000     0.0000     0.0000 </r>
      <r>     5.7229    18.2703    18.2703    18.2703     0.0000    -0.0000     0.0000 </r>
      <r>     5.7471    18.0407    18.0407    18.0407     0.0000    -0.0000     0.0000 </r>
      <r>     5.7714    17.8025    17.8025    17.8025     0.0000    -0.0000     0.0000 </r>
      <r>     5.7956    17.5559    17.5559    17.5559     0.0000    -0.0000     0.0000 </r>
      <r>     5.8199    17.3078    17.3078    17.3078     0.0000    -0.0000    -0.0000 </r>
      <r>     5.8441    17.0753    17.0753    17.0753     0.0000    -0.0000    -0.0000 </r>
      <r>     5.8684    16.8790    16.8790    16.8790     0.0000    -0.0000    -0.0000 </r>
      <r>     5.8926    16.7309    16.7309    16.7309     0.0000    -0.0000    -0.0000 </r>
      <r>     5.9169    16.6265    16.6265    16.6265     0.0000    -0.0000    -0.0000 </r>
      <r>     5.9411    16.5464    16.5464    16.5464     0.0000    -0.0000    -0.0000 </r>
      <r>     5.9654    16.4677    16.4677    16.4677     0.0000    -0.0000    -0.0000 </r>
      <r>     5.9896    16.3781    16.3781    16.3781     0.0000    -0.0000    -0.0000 </r>
      <r>     6.0139    16.2811    16.2811    16.2811     0.0000    -0.0000    -0.0000 </r>
      <r>     6.0381    16.1847    16.1847    16.1847     0.0000    -0.0000    -0.0000 </r>
      <r>     6.0624    16.0843    16.0843    16.0843    -0.0000    -0.0000    -0.0000 </r>
      <r>     6.0866    15.9548    15.9548    15.9548    -0.0000    -0.0000    -0.0000 </r>
      <r>     6.1109    15.7623    15.7623    15.7623    -0.0000    -0.0000    -0.0000 </r>
      <r>     6.1351    15.4917    15.4917    15.4917    -0.0000    -0.0000    -0.0000 </r>
      <r>     6.1594    15.1571    15.1571    15.1571    -0.0000    -0.0000    -0.0000 </r>
      <r>     6.1836    14.7838    14.7838    14.7838    -0.0000    -0.0000     0.0000 </r>
      <r>     6.2079    14.3856    14.3856    14.3856    -0.0000    -0.0000     0.0000 </r>
      <r>     6.2321    13.9686    13.9686    13.9686    -0.0000    -0.0000     0.0000 </r>
      <r>     6.2564    13.5437    13.5437    13.5437    -0.0000    -0.0000     0.0000 </r>
      <r>     6.2806    13.1208    13.1208    13.1208    -0.0000    -0.0000     0.0000 </r>
      <r>     6.3049    12.7019    12.7019    12.7019    -0.0000    -0.0000     0.0000 </r>
      <r>     6.3291    12.2883    12.2883    12.2883    -0.0000    -0.0000     0.0000 </r>
      <r>     6.3534    11.8867    11.8867    11.8867    -0.0000    -0.0000     0.0000 </r>
      <r>     6.3776    11.5046    11.5046    11.5046    -0.0000    -0.0000     0.0000 </r>
      <r>     6.4019    11.1468    11.1468    11.1468    -0.0000    -0.0000     0.0000 </r>
      <r>     6.4261    10.8153    10.8153    10.8153    -0.0000    -0.0000     0.0000 </r>
      <r>     6.4504    10.5090    10.5090    10.5090     0.0000    -0.0000     0.0000 </r>
      <r>     6.4746    10.2240    10.2240    10.2240     0.0000    -0.0000     0.0000 </r>
      <r>     6.4989     9.9550     9.9550     9.9550     0.0000    -0.0000     0.0000 </r>
      <r>     6.5231     9.6966     9.6966     9.6966     0.0000    -0.0000     0.0000 </r>
      <r>     6.5474     9.4446     9.4446     9.4446     0.0000    -0.0000     0.0000 </r>
      <r>     6.5716     9.1967     9.1967     9.1967     0.0000    -0.0000     0.0000 </r>
      <r>     6.5959     8.9525     8.9525     8.9525     0.0000    -0.0000     0.0000 </r>
      <r>     6.6201     8.7124     8.7124     8.7124     0.0000    -0.0000     0.0000 </r>
      <r>     6.6444     8.4773     8.4773     8.4773    -0.0000    -0.0000    -0.0000 </r>
      <r>     6.6686     8.2487     8.2487     8.2487    -0.0000    -0.0000    -0.0000 </r>
      <r>     6.6929     8.0289     8.0289     8.0289    -0.0000    -0.0000    -0.0000 </r>
      <r>     6.7171     7.8214     7.8214     7.8214    -0.0000    -0.0000    -0.0000 </r>
      <r>     6.7414     7.6295     7.6295     7.6295    -0.0000    -0.0000    -0.0000 </r>
      <r>     6.7656     7.4529     7.4529     7.4529     0.0000    -0.0000    -0.0000 </r>
      <r>     6.7899     7.2822     7.2822     7.2822     0.0000    -0.0000    -0.0000 </r>
      <r>     6.8141     7.0992     7.0992     7.0992     0.0000    -0.0000    -0.0000 </r>
      <r>     6.8384     6.8919     6.8919     6.8919     0.0000    -0.0000    -0.0000 </r>
      <r>     6.8626     6.6661     6.6661     6.6661     0.0000    -0.0000    -0.0000 </r>
      <r>     6.8869     6.4364     6.4364     6.4364     0.0000    -0.0000    -0.0000 </r>
      <r>     6.9111     6.2132     6.2132     6.2132     0.0000    -0.0000    -0.0000 </r>
      <r>     6.9353     6.0003     6.0003     6.0003     0.0000    -0.0000    -0.0000 </r>
      <r>     6.9596     5.7989     5.7989     5.7989     0.0000    -0.0000    -0.0000 </r>
      <r>     6.9838     5.6102     5.6102     5.6102     0.0000    -0.0000    -0.0000 </r>
      <r>     7.0081     5.4355     5.4355     5.4355     0.0000    -0.0000    -0.0000 </r>
      <r>     7.0323     5.2759     5.2759     5.2759     0.0000    -0.0000    -0.0000 </r>
      <r>     7.0566     5.1310     5.1310     5.1310    -0.0000    -0.0000    -0.0000 </r>
      <r>     7.0808     4.9993     4.9993     4.9993    -0.0000    -0.0000    -0.0000 </r>
      <r>     7.1051     4.8778     4.8778     4.8778    -0.0000    -0.0000    -0.0000 </r>
      <r>     7.1293     4.7618     4.7618     4.7618    -0.0000    -0.0000     0.0000 </r>
      <r>     7.1536     4.6474     4.6474     4.6474    -0.0000    -0.0000     0.0000 </r>
      <r>     7.1778     4.5333     4.5333     4.5333    -0.0000    -0.0000     0.0000 </r>
      <r>     7.2021     4.4209     4.4209     4.4209    -0.0000    -0.0000     0.0000 </r>
      <r>     7.2263     4.3132     4.3132     4.3132    -0.0000    -0.0000     0.0000 </r>
      <r>     7.2506     4.2130     4.2130     4.2130    -0.0000    -0.0000     0.0000 </r>
      <r>     7.2748     4.1225     4.1225     4.1225    -0.0000    -0.0000     0.0000 </r>
      <r>     7.2991     4.0427     4.0427     4.0427    -0.0000    -0.0000     0.0000 </r>
      <r>     7.3233     3.9736     3.9736     3.9736    -0.0000    -0.0000     0.0000 </r>
      <r>     7.3476     3.9139     3.9139     3.9139    -0.0000    -0.0000     0.0000 </r>
      <r>     7.3718     3.8615     3.8615     3.8615    -0.0000    -0.0000     0.0000 </r>
      <r>     7.3961     3.8144     3.8144     3.8144    -0.0000    -0.0000     0.0000 </r>
      <r>     7.4203     3.7712     3.7712     3.7712    -0.0000    -0.0000     0.0000 </r>
      <r>     7.4446     3.7321     3.7321     3.7321    -0.0000    -0.0000     0.0000 </r>
      <r>     7.4688     3.6976     3.6976     3.6976    -0.0000    -0.0000     0.0000 </r>
      <r>     7.4931     3.6686     3.6686     3.6686    -0.0000    -0.0000     0.0000 </r>
      <r>     7.5173     3.6456     3.6456     3.6456    -0.0000    -0.0000     0.0000 </r>
      <r>     7.5416     3.6287     3.6287     3.6287    -0.0000    -0.0000     0.0000 </r>
      <r>     7.5658     3.6167     3.6167     3.6167    -0.0000    -0.0000     0.0000 </r>
      <r>     7.5901     3.6080     3.6080     3.6080    -0.0000    -0.0000     0.0000 </r>
      <r>     7.6143     3.6002     3.6002     3.6002    -0.0000    -0.0000     0.0000 </r>
      <r>     7.6386     3.5915     3.5915     3.5915    -0.0000    -0.0000     0.0000 </r>
      <r>     7.6628     3.5811     3.5811     3.5811     0.0000     0.0000     0.0000 </r>
      <r>     7.6871     3.5692     3.5692     3.5692     0.0000     0.0000     0.0000 </r>
      <r>     7.7113     3.5564     3.5564     3.5564     0.0000     0.0000     0.0000 </r>
      <r>     7.7356     3.5429     3.5429     3.5429     0.0000     0.0000     0.0000 </r>
      <r>     7.7598     3.5288     3.5288     3.5288     0.0000     0.0000     0.0000 </r>
      <r>     7.7841     3.5142     3.5142     3.5142     0.0000    -0.0000     0.0000 </r>
      <r>     7.8083     3.4992     3.4992     3.4992     0.0000    -0.0000     0.0000 </r>
      <r>     7.8326     3.4831     3.4831     3.4831     0.0000    -0.0000     0.0000 </r>
      <r>     7.8568     3.4644     3.4644     3.4644     0.0000    -0.0000     0.0000 </r>
      <r>     7.8811     3.4399     3.4399     3.4399     0.0000    -0.0000     0.0000 </r>
      <r>     7.9053     3.4057     3.4057     3.4057     0.0000    -0.0000     0.0000 </r>
      <r>     7.9296     3.3580     3.3580     3.3580     0.0000    -0.0000     0.0000 </r>
      <r>     7.9538     3.2966     3.2966     3.2966     0.0000    -0.0000     0.0000 </r>
      <r>     7.9781     3.2259     3.2259     3.2259    -0.0000    -0.0000     0.0000 </r>
      <r>     8.0023     3.1535     3.1535     3.1535    -0.0000    -0.0000     0.0000 </r>
      <r>     8.0266     3.0862     3.0862     3.0862    -0.0000    -0.0000     0.0000 </r>
      <r>     8.0508     3.0269     3.0269     3.0269    -0.0000    -0.0000     0.0000 </r>
      <r>     8.0751     2.9749     2.9749     2.9749    -0.0000    -0.0000     0.0000 </r>
      <r>     8.0993     2.9276     2.9276     2.9276    -0.0000    -0.0000     0.0000 </r>
      <r>     8.1236     2.8829     2.8829     2.8829    -0.0000    -0.0000     0.0000 </r>
      <r>     8.1478     2.8404     2.8404     2.8404     0.0000    -0.0000     0.0000 </r>
      <r>     8.1721     2.7999     2.7999     2.7999     0.0000     0.0000     0.0000 </r>
      <r>     8.1963     2.7608     2.7608     2.7608     0.0000     0.0000     0.0000 </r>
      <r>     8.2206     2.7222     2.7222     2.7222     0.0000     0.0000     0.0000 </r>
      <r>     8.2448     2.6834     2.6834     2.6834     0.0000     0.0000     0.0000 </r>
      <r>     8.2691     2.6439     2.6439     2.6439    -0.0000     0.0000     0.0000 </r>
      <r>     8.2933     2.6038     2.6038     2.6038    -0.0000    -0.0000     0.0000 </r>
      <r>     8.3176     2.5635     2.5635     2.5635    -0.0000    -0.0000     0.0000 </r>
      <r>     8.3418     2.5240     2.5240     2.5240    -0.0000    -0.0000     0.0000 </r>
      <r>     8.3661     2.4864     2.4864     2.4864    -0.0000    -0.0000     0.0000 </r>
      <r>     8.3903     2.4525     2.4525     2.4525    -0.0000    -0.0000     0.0000 </r>
      <r>     8.4146     2.4240     2.4240     2.4240    -0.0000    -0.0000     0.0000 </r>
      <r>     8.4388     2.4012     2.4012     2.4012    -0.0000    -0.0000     0.0000 </r>
      <r>     8.4631     2.3816     2.3816     2.3816    -0.0000    -0.0000     0.0000 </r>
      <r>     8.4873     2.3602     2.3602     2.3602    -0.0000    -0.0000     0.0000 </r>
      <r>     8.5116     2.3328     2.3328     2.3328    -0.0000    -0.0000     0.0000 </r>
      <r>     8.5358     2.2982     2.2982     2.2982    -0.0000    -0.0000     0.0000 </r>
      <r>     8.5601     2.2589     2.2589     2.2589    -0.0000    -0.0000    -0.0000 </r>
      <r>     8.5843     2.2179     2.2179     2.2179    -0.0000    -0.0000    -0.0000 </r>
      <r>     8.6086     2.1771     2.1771     2.1771    -0.0000    -0.0000    -0.0000 </r>
      <r>     8.6328     2.1375     2.1375     2.1375    -0.0000     0.0000    -0.0000 </r>
      <r>     8.6571     2.0996     2.0996     2.0996    -0.0000     0.0000    -0.0000 </r>
      <r>     8.6813     2.0637     2.0637     2.0637    -0.0000    -0.0000     0.0000 </r>
      <r>     8.7056     2.0301     2.0301     2.0301    -0.0000    -0.0000     0.0000 </r>
      <r>     8.7298     1.9988     1.9988     1.9988     0.0000    -0.0000     0.0000 </r>
      <r>     8.7541     1.9697     1.9697     1.9697     0.0000    -0.0000     0.0000 </r>
      <r>     8.7783     1.9421     1.9421     1.9421     0.0000     0.0000     0.0000 </r>
      <r>     8.8026     1.9151     1.9151     1.9151     0.0000     0.0000     0.0000 </r>
      <r>     8.8268     1.8882     1.8882     1.8882     0.0000     0.0000    -0.0000 </r>
      <r>     8.8511     1.8606     1.8606     1.8606     0.0000     0.0000    -0.0000 </r>
      <r>     8.8753     1.8320     1.8320     1.8320     0.0000     0.0000    -0.0000 </r>
      <r>     8.8996     1.8022     1.8022     1.8022     0.0000     0.0000    -0.0000 </r>
      <r>     8.9238     1.7714     1.7714     1.7714     0.0000     0.0000    -0.0000 </r>
      <r>     8.9481     1.7391     1.7391     1.7391     0.0000     0.0000    -0.0000 </r>
      <r>     8.9723     1.7044     1.7044     1.7044     0.0000    -0.0000    -0.0000 </r>
      <r>     8.9966     1.6663     1.6663     1.6663    -0.0000    -0.0000    -0.0000 </r>
      <r>     9.0208     1.6250     1.6250     1.6250    -0.0000    -0.0000    -0.0000 </r>
      <r>     9.0451     1.5820     1.5820     1.5820    -0.0000    -0.0000    -0.0000 </r>
      <r>     9.0693     1.5382     1.5382     1.5382    -0.0000    -0.0000     0.0000 </r>
      <r>     9.0936     1.4920     1.4920     1.4920     0.0000    -0.0000     0.0000 </r>
      <r>     9.1178     1.4406     1.4406     1.4406     0.0000     0.0000     0.0000 </r>
      <r>     9.1421     1.3840     1.3840     1.3840     0.0000     0.0000     0.0000 </r>
      <r>     9.1663     1.3264     1.3264     1.3264     0.0000     0.0000     0.0000 </r>
      <r>     9.1906     1.2736     1.2736     1.2736     0.0000     0.0000     0.0000 </r>
      <r>     9.2148     1.2287     1.2287     1.2287     0.0000     0.0000     0.0000 </r>
      <r>     9.2390     1.1923     1.1923     1.1923     0.0000     0.0000     0.0000 </r>
      <r>     9.2633     1.1639     1.1639     1.1639     0.0000     0.0000     0.0000 </r>
      <r>     9.2875     1.1421     1.1421     1.1421     0.0000     0.0000     0.0000 </r>
      <r>     9.3118     1.1253     1.1253     1.1253    -0.0000     0.0000     0.0000 </r>
      <r>     9.3360     1.1112     1.1112     1.1112    -0.0000     0.0000     0.0000 </r>
      <r>     9.3603     1.0973     1.0973     1.0973    -0.0000     0.0000     0.0000 </r>
      <r>     9.3845     1.0818     1.0818     1.0818    -0.0000     0.0000     0.0000 </r>
      <r>     9.4088     1.0644     1.0644     1.0644    -0.0000     0.0000     0.0000 </r>
      <r>     9.4330     1.0462     1.0462     1.0462    -0.0000     0.0000     0.0000 </r>
      <r>     9.4573     1.0286     1.0286     1.0286    -0.0000     0.0000     0.0000 </r>
      <r>     9.4815     1.0124     1.0124     1.0124    -0.0000     0.0000     0.0000 </r>
      <r>     9.5058     0.9976     0.9976     0.9976    -0.0000     0.0000     0.0000 </r>
      <r>     9.5300     0.9841     0.9841     0.9841    -0.0000     0.0000     0.0000 </r>
      <r>     9.5543     0.9713     0.9713     0.9713    -0.0000     0.0000     0.0000 </r>
      <r>     9.5785     0.9588     0.9588     0.9588    -0.0000     0.0000     0.0000 </r>
      <r>     9.6028     0.9461     0.9461     0.9461    -0.0000    -0.0000    -0.0000 </r>
      <r>     9.6270     0.9329     0.9329     0.9329    -0.0000    -0.0000    -0.0000 </r>
      <r>     9.6513     0.9188     0.9188     0.9188     0.0000    -0.0000    -0.0000 </r>
      <r>     9.6755     0.9036     0.9036     0.9036     0.0000    -0.0000    -0.0000 </r>
      <r>     9.6998     0.8871     0.8871     0.8871     0.0000    -0.0000    -0.0000 </r>
      <r>     9.7240     0.8695     0.8695     0.8695     0.0000    -0.0000    -0.0000 </r>
      <r>     9.7483     0.8509     0.8509     0.8509     0.0000    -0.0000    -0.0000 </r>
      <r>     9.7725     0.8315     0.8315     0.8315     0.0000    -0.0000    -0.0000 </r>
      <r>     9.7968     0.8108     0.8108     0.8108     0.0000    -0.0000     0.0000 </r>
      <r>     9.8210     0.7881     0.7881     0.7881     0.0000    -0.0000     0.0000 </r>
      <r>     9.8453     0.7632     0.7632     0.7632     0.0000    -0.0000     0.0000 </r>
      <r>     9.8695     0.7365     0.7365     0.7365     0.0000    -0.0000     0.0000 </r>
      <r>     9.8938     0.7091     0.7091     0.7091     0.0000    -0.0000     0.0000 </r>
      <r>     9.9180     0.6820     0.6820     0.6820     0.0000    -0.0000     0.0000 </r>
      <r>     9.9423     0.6558     0.6558     0.6558     0.0000    -0.0000     0.0000 </r>
      <r>     9.9665     0.6305     0.6305     0.6305     0.0000    -0.0000     0.0000 </r>
      <r>     9.9908     0.6064     0.6064     0.6064     0.0000    -0.0000     0.0000 </r>
      <r>    10.0150     0.5836     0.5836     0.5836     0.0000    -0.0000     0.0000 </r>
      <r>    10.0393     0.5622     0.5622     0.5622     0.0000    -0.0000     0.0000 </r>
      <r>    10.0635     0.5427     0.5427     0.5427     0.0000    -0.0000     0.0000 </r>
      <r>    10.0878     0.5248     0.5248     0.5248     0.0000    -0.0000     0.0000 </r>
      <r>    10.1120     0.5086     0.5086     0.5086     0.0000    -0.0000     0.0000 </r>
      <r>    10.1363     0.4937     0.4937     0.4937     0.0000    -0.0000     0.0000 </r>
      <r>    10.1605     0.4799     0.4799     0.4799     0.0000    -0.0000     0.0000 </r>
      <r>    10.1848     0.4669     0.4669     0.4669     0.0000    -0.0000     0.0000 </r>
      <r>    10.2090     0.4548     0.4548     0.4548    -0.0000    -0.0000     0.0000 </r>
      <r>    10.2333     0.4433     0.4433     0.4433    -0.0000    -0.0000     0.0000 </r>
      <r>    10.2575     0.4324     0.4324     0.4324    -0.0000    -0.0000     0.0000 </r>
      <r>    10.2818     0.4222     0.4222     0.4222    -0.0000    -0.0000     0.0000 </r>
      <r>    10.3060     0.4127     0.4127     0.4127    -0.0000    -0.0000     0.0000 </r>
      <r>    10.3303     0.4042     0.4042     0.4042    -0.0000    -0.0000     0.0000 </r>
      <r>    10.3545     0.3968     0.3968     0.3968    -0.0000    -0.0000    -0.0000 </r>
      <r>    10.3788     0.3911     0.3911     0.3911    -0.0000    -0.0000    -0.0000 </r>
      <r>    10.4030     0.3872     0.3872     0.3872    -0.0000    -0.0000    -0.0000 </r>
      <r>    10.4273     0.3854     0.3854     0.3854     0.0000     0.0000    -0.0000 </r>
      <r>    10.4515     0.3857     0.3857     0.3857     0.0000     0.0000    -0.0000 </r>
      <r>    10.4758     0.3875     0.3875     0.3875     0.0000     0.0000    -0.0000 </r>
      <r>    10.5000     0.3903     0.3903     0.3903     0.0000     0.0000    -0.0000 </r>
      <r>    10.5243     0.3926     0.3926     0.3926     0.0000    -0.0000    -0.0000 </r>
      <r>    10.5485     0.3933     0.3933     0.3933     0.0000    -0.0000    -0.0000 </r>
      <r>    10.5728     0.3910     0.3910     0.3910     0.0000    -0.0000    -0.0000 </r>
      <r>    10.5970     0.3843     0.3843     0.3843     0.0000    -0.0000    -0.0000 </r>
      <r>    10.6213     0.3724     0.3724     0.3724     0.0000    -0.0000    -0.0000 </r>
      <r>    10.6455     0.3558     0.3558     0.3558     0.0000     0.0000    -0.0000 </r>
      <r>    10.6698     0.3375     0.3375     0.3375     0.0000     0.0000    -0.0000 </r>
      <r>    10.6940     0.3201     0.3201     0.3201     0.0000     0.0000    -0.0000 </r>
      <r>    10.7183     0.3051     0.3051     0.3051     0.0000     0.0000    -0.0000 </r>
      <r>    10.7425     0.2925     0.2925     0.2925     0.0000     0.0000    -0.0000 </r>
      <r>    10.7668     0.2821     0.2821     0.2821     0.0000     0.0000    -0.0000 </r>
      <r>    10.7910     0.2733     0.2733     0.2733     0.0000    -0.0000    -0.0000 </r>
      <r>    10.8153     0.2659     0.2659     0.2659     0.0000    -0.0000    -0.0000 </r>
      <r>    10.8395     0.2597     0.2597     0.2597     0.0000    -0.0000    -0.0000 </r>
      <r>    10.8638     0.2544     0.2544     0.2544     0.0000    -0.0000    -0.0000 </r>
      <r>    10.8880     0.2499     0.2499     0.2499     0.0000    -0.0000    -0.0000 </r>
      <r>    10.9123     0.2460     0.2460     0.2460     0.0000    -0.0000    -0.0000 </r>
      <r>    10.9365     0.2427     0.2427     0.2427     0.0000    -0.0000    -0.0000 </r>
      <r>    10.9608     0.2397     0.2397     0.2397    -0.0000    -0.0000    -0.0000 </r>
      <r>    10.9850     0.2367     0.2367     0.2367    -0.0000    -0.0000    -0.0000 </r>
      <r>    11.0093     0.2338     0.2338     0.2338    -0.0000    -0.0000    -0.0000 </r>
      <r>    11.0335     0.2309     0.2309     0.2309    -0.0000    -0.0000    -0.0000 </r>
      <r>    11.0578     0.2281     0.2281     0.2281    -0.0000    -0.0000    -0.0000 </r>
      <r>    11.0820     0.2256     0.2256     0.2256    -0.0000    -0.0000    -0.0000 </r>
      <r>    11.1063     0.2236     0.2236     0.2236    -0.0000    -0.0000    -0.0000 </r>
[...]
     <r>     9.5926     0.2249     0.2249     0.2249     0.0000     0.0000     0.0000 </r>
     <r>     9.6026     0.2258     0.2258     0.2258     0.0000    -0.0000     0.0000 </r>
     <r>     9.6126     0.2266     0.2266     0.2266     0.0000    -0.0000    -0.0000 </r>
     <r>     9.6226     0.2274     0.2274     0.2274    -0.0000     0.0000    -0.0000 </r>
     <r>     9.6326     0.2280     0.2280     0.2280    -0.0000    -0.0000     0.0000 </r>
     <r>     9.6427     0.2287     0.2287     0.2287     0.0000     0.0000    -0.0000 </r>
     <r>     9.6527     0.2292     0.2292     0.2292    -0.0000    -0.0000    -0.0000 </r>
     <r>     9.6627     0.2297     0.2297     0.2297    -0.0000    -0.0000     0.0000 </r>
     <r>     9.6727     0.2301     0.2301     0.2301    -0.0000     0.0000    -0.0000 </r>
     <r>     9.6827     0.2305     0.2305     0.2305     0.0000    -0.0000     0.0000 </r>
     <r>     9.6927     0.2308     0.2308     0.2308    -0.0000     0.0000     0.0000 </r>
     <r>     9.7027     0.2354     0.2354     0.2354    -0.0000     0.0000     0.0000 </r>
     <r>     9.7127     0.2340     0.2340     0.2340    -0.0000     0.0000     0.0000 </r>
     <r>     9.7227     0.2104     0.2104     0.2104     0.0000     0.0000    -0.0000 </r>
     <r>     9.7327     0.2030     0.2030     0.2030    -0.0000    -0.0000    -0.0000 </r>
     <r>     9.7428     0.1958     0.1958     0.1958     0.0000     0.0000     0.0000 </r>
     <r>     9.7528     0.1886     0.1886     0.1886     0.0000    -0.0000     0.0000 </r>
     <r>     9.7628     0.1895     0.1895     0.1895     0.0000     0.0000    -0.0000 </r>
     <r>     9.7728     0.1770     0.1770     0.1770    -0.0000    -0.0000    -0.0000 </r>
     <r>     9.7828     0.1875     0.1875     0.1875    -0.0000     0.0000     0.0000 </r>
     <r>     9.7928     0.1973     0.1973     0.1973     0.0000     0.0000    -0.0000 </r>
     <r>     9.8028     0.2066     0.2066     0.2066    -0.0000    -0.0000     0.0000 </r>
     <r>     9.8128     0.2152     0.2152     0.2152     0.0000     0.0000     0.0000 </r>
     <r>     9.8228     0.2276     0.2276     0.2276     0.0000     0.0000     0.0000 </r>
     <r>     9.8328     0.2294     0.2294     0.2294     0.0000    -0.0000     0.0000 </r>
     <r>     9.8429     0.2312     0.2312     0.2312     0.0000     0.0000    -0.0000 </r>
     <r>     9.8529     0.2329     0.2329     0.2329    -0.0000    -0.0000    -0.0000 </r>
     <r>     9.8629     0.2346     0.2346     0.2346    -0.0000    -0.0000    -0.0000 </r>
     <r>     9.8729     0.2362     0.2362     0.2362    -0.0000    -0.0000    -0.0000 </r>
     <r>     9.8829     0.2404     0.2404     0.2404    -0.0000    -0.0000     0.0000 </r>
     <r>     9.8929     0.2416     0.2416     0.2416     0.0000    -0.0000     0.0000 </r>
     <r>     9.9029     0.2427     0.2427     0.2427     0.0000     0.0000    -0.0000 </r>
     <r>     9.9129     0.2437     0.2437     0.2437    -0.0000    -0.0000    -0.0000 </r>
     <r>     9.9229     0.2446     0.2446     0.2446    -0.0000    -0.0000    -0.0000 </r>
     <r>     9.9329     0.2453     0.2453     0.2453     0.0000    -0.0000     0.0000 </r>
     <r>     9.9430     0.2460     0.2460     0.2460     0.0000     0.0000    -0.0000 </r>
     <r>     9.9530     0.2466     0.2466     0.2466    -0.0000    -0.0000     0.0000 </r>
     <r>     9.9630     0.2471     0.2471     0.2471     0.0000     0.0000    -0.0000 </r>
     <r>     9.9730     0.2475     0.2475     0.2475     0.0000     0.0000     0.0000 </r>
     <r>     9.9830     0.2478     0.2478     0.2478    -0.0000     0.0000    -0.0000 </r>
    </set>
   </array>
  </conductivity>
  <dos>
   <i name="efermi">      4.98299185 </i>
   <total>
    <array>
     <dimension dim="1">gridpoints</dimension>
     <dimension dim="2">spin</dimension>
     <field>energy</field>
     <field>total</field>
     <field>integrated</field>
     <set>
      <set comment="spin 1">
       <r>   -10.7119     0.0000     0.0000 </r>
       <r>   -10.6379     0.0000     0.0000 </r>
       <r>   -10.5638     0.0000     0.0000 </r>
       <r>   -10.4898     0.0000     0.0000 </r>
       <r>   -10.4158     0.0000     0.0000 </r>
       <r>   -10.3418     0.0000     0.0000 </r>
       <r>   -10.2678     0.0000     0.0000 </r>
       <r>   -10.1937     0.0000     0.0000 </r>
       <r>   -10.1197     0.0000     0.0000 </r>
       <r>   -10.0457     0.0000     0.0000 </r>
       <r>    -9.9717     0.0000     0.0000 </r>
       <r>    -9.8976     0.0000     0.0000 </r>
       <r>    -9.8236     0.0000     0.0000 </r>
       <r>    -9.7496     0.0000     0.0000 </r>
       <r>    -9.6756     0.0070     0.0001 </r>
       <r>    -9.6016     0.0984     0.0033 </r>
       <r>    -9.5275     0.2956     0.0172 </r>
       <r>    -9.4535     0.5332     0.0484 </r>
       <r>    -9.3795     0.6684     0.0936 </r>
       <r>    -9.3055     0.7014     0.1448 </r>
       <r>    -9.2315     0.7354     0.1977 </r>
       <r>    -9.1574     0.8101     0.2546 </r>
       <r>    -9.0834     0.9125     0.3183 </r>
       <r>    -9.0094     1.0208     0.3899 </r>
       <r>    -8.9354     1.2663     0.4710 </r>
       <r>    -8.8613     1.7543     0.5836 </r>
       <r>    -8.7873     2.1182     0.7277 </r>
       <r>    -8.7133     1.8740     0.8774 </r>
       <r>    -8.6393     1.6135     1.0061 </r>
       <r>    -8.5653     1.5344     1.1209 </r>
       <r>    -8.4912     1.5164     1.2339 </r>
       <r>    -8.4172     1.4851     1.3450 </r>
       <r>    -8.3432     1.4406     1.4534 </r>
       <r>    -8.2692     2.0331     1.5622 </r>
       <r>    -8.1952     1.5815     1.6957 </r>
       <r>    -8.1211     0.8491     1.7925 </r>
       <r>    -8.0471     0.9069     1.8522 </r>
       <r>    -7.9731     1.5056     1.9408 </r>
       <r>    -7.8991     2.1326     2.0777 </r>
       <r>    -7.8250     2.2689     2.2411 </r>
       <r>    -7.7510     2.3546     2.4263 </r>
       <r>    -7.6770     2.3711     2.5934 </r>
       <r>    -7.6030     2.5681     2.7764 </r>
       <r>    -7.5290     2.7294     2.9727 </r>
       <r>    -7.4549     5.2214     3.3011 </r>
       <r>    -7.3809     4.6085     3.6720 </r>
       <r>    -7.3069     3.6468     3.9774 </r>
       <r>    -7.2329     3.2210     4.2126 </r>
       <r>    -7.1588     2.7453     4.4092 </r>
       <r>    -7.0848     2.9479     4.6197 </r>
       <r>    -7.0108     3.1805     4.8464 </r>
       <r>    -6.9368     5.9093     5.2030 </r>
       <r>    -6.8628     4.8239     5.5742 </r>
       <r>    -6.7887     5.3107     5.9478 </r>
       <r>    -6.7147     5.4410     6.3508 </r>
       <r>    -6.6407     3.8802     6.7222 </r>
       <r>    -6.5667     3.6400     7.0005 </r>
       <r>    -6.4927     3.4101     7.2613 </r>
       <r>    -6.4186     3.1905     7.5056 </r>
       <r>    -6.3446     2.9051     7.7361 </r>
       <r>    -6.2706     1.8461     7.9782 </r>
       <r>    -6.1966     0.0000     8.0000 </r>
       <r>    -6.1225     0.0000     8.0000 </r>
       <r>    -6.0485     0.0000     8.0000 </r>
       <r>    -5.9745     0.0000     8.0000 </r>
       <r>    -5.9005     0.0000     8.0000 </r>
       <r>    -5.8265     0.0000     8.0000 </r>
       <r>    -5.7524     0.0000     8.0000 </r>
       <r>    -5.6784     0.0000     8.0000 </r>
       <r>    -5.6044     0.0000     8.0000 </r>
       <r>    -5.5304     0.0000     8.0000 </r>
       <r>    -5.4564     0.0000     8.0000 </r>
       <r>    -5.3823     0.0000     8.0000 </r>
       <r>    -5.3083     0.0000     8.0000 </r>
       <r>    -5.2343     0.0000     8.0000 </r>
       <r>    -5.1603     0.0000     8.0000 </r>
       <r>    -5.0862     0.0000     8.0000 </r>
       <r>    -5.0122     0.0000     8.0000 </r>
       <r>    -4.9382     0.0000     8.0000 </r>
       <r>    -4.8642     0.0000     8.0000 </r>
       <r>    -4.7902     0.0000     8.0000 </r>
       <r>    -4.7161     0.0000     8.0000 </r>
       <r>    -4.6421     0.0000     8.0000 </r>
       <r>    -4.5681     0.0000     8.0000 </r>
       <r>    -4.4941     0.0000     8.0000 </r>
       <r>    -4.4201     0.0000     8.0000 </r>
       <r>    -4.3460     0.0000     8.0000 </r>
       <r>    -4.2720     0.0000     8.0000 </r>
       <r>    -4.1980     0.0000     8.0000 </r>
       <r>    -4.1240     0.0000     8.0000 </r>
       <r>    -4.0499     0.0000     8.0000 </r>
       <r>    -3.9759     0.0000     8.0000 </r>
       <r>    -3.9019     0.0000     8.0000 </r>
       <r>    -3.8279     0.0000     8.0000 </r>
       <r>    -3.7539     0.0000     8.0000 </r>
       <r>    -3.6798     0.0000     8.0000 </r>
       <r>    -3.6058     0.0000     8.0000 </r>
       <r>    -3.5318     0.0000     8.0000 </r>
       <r>    -3.4578     0.0000     8.0000 </r>
       <r>    -3.3838     0.0000     8.0000 </r>
       <r>    -3.3097     0.0000     8.0000 </r>
       <r>    -3.2357     0.0000     8.0000 </r>
       <r>    -3.1617     0.0000     8.0000 </r>
       <r>    -3.0877     0.0002     8.0000 </r>
       <r>    -3.0136     0.3863     8.0097 </r>
       <r>    -2.9396     2.7566     8.1590 </r>
       <r>    -2.8656     2.9278     8.3409 </r>
       <r>    -2.7916     4.4798     8.6112 </r>
       <r>    -2.7176     8.8327     9.0941 </r>
       <r>    -2.6435     6.7943     9.8140 </r>
       <r>    -2.5695     6.1113    10.2676 </r>
       <r>    -2.4955     6.0958    10.7192 </r>
       <r>    -2.4215     6.4111    11.1904 </r>
       <r>    -2.3475     4.6138    11.5818 </r>
       <r>    -2.2734     3.5820    11.8842 </r>
       <r>    -2.1994     3.1589    12.0990 </r>
       <r>    -2.1254     2.0802    12.2834 </r>
       <r>    -2.0514     2.0270    12.4354 </r>
       <r>    -1.9773     1.9765    12.5836 </r>
       <r>    -1.9033     1.9288    12.7281 </r>
       <r>    -1.8293     1.8838    12.8692 </r>
       <r>    -1.7553     1.8416    13.0071 </r>
       <r>    -1.6813     1.8022    13.1419 </r>
       <r>    -1.6072     1.7655    13.2739 </r>
       <r>    -1.5332     1.4653    13.3970 </r>
       <r>    -1.4592     1.4493    13.5049 </r>
       <r>    -1.3852     1.4303    13.6115 </r>
       <r>    -1.3111     1.4147    13.7171 </r>
       <r>    -1.2371     1.3885    13.8208 </r>
       <r>    -1.1631     1.3614    13.9226 </r>
       <r>    -1.0891     1.3335    14.0224 </r>
       <r>    -1.0151     1.3048    14.1200 </r>
       <r>    -0.9410     1.2752    14.2155 </r>
       <r>    -0.8670     1.2448    14.3088 </r>
       <r>    -0.7930     1.2136    14.3998 </r>
       <r>    -0.7190     1.2476    14.4912 </r>
       <r>    -0.6450     1.2007    14.5818 </r>
       <r>    -0.5709     1.1647    14.6692 </r>
       <r>    -0.4969     1.1395    14.7544 </r>
       <r>    -0.4229     1.1830    14.8372 </r>
       <r>    -0.3489     2.3347    14.9483 </r>
       <r>    -0.2748     2.1567    15.1154 </r>
       <r>    -0.2008     2.0300    15.2699 </r>
       <r>    -0.1268     1.9164    15.4136 </r>
       <r>    -0.0528     2.0167    15.5586 </r>
       <r>     0.0212     2.1272    15.7124 </r>
       <r>     0.0953     3.4261    15.8843 </r>
       <r>     0.1693     3.5200    16.1402 </r>
       <r>     0.2433     3.4329    16.4061 </r>
       <r>     0.3173     3.0045    16.6305 </r>
       <r>     0.3913     3.6418    16.8752 </r>
       <r>     0.4654     4.3268    17.1721 </r>
       <r>     0.5394     4.7256    17.5134 </r>
       <r>     0.6134     4.7918    17.8660 </r>
       <r>     0.6874     4.7968    18.2213 </r>
       <r>     0.7615     4.7407    18.5746 </r>
       <r>     0.8355     3.8582    18.8915 </r>
       <r>     0.9095     4.0829    19.1775 </r>
       <r>     0.9835     3.3379    19.4877 </r>
       <r>     1.0575     2.9020    19.7023 </r>
       <r>     1.1316     2.9619    19.9189 </r>
       <r>     1.2056     3.0853    20.1423 </r>
       <r>     1.2796     3.4458    20.3787 </r>
       <r>     1.3536     3.5004    20.6610 </r>
       <r>     1.4276     5.1815    20.9677 </r>
       <r>     1.5017     6.0659    21.3877 </r>
       <r>     1.5757     6.5066    21.8731 </r>
       <r>     1.6497     7.6100    22.4074 </r>
       <r>     1.7237     6.5056    22.9368 </r>
       <r>     1.7978     5.3301    23.3706 </r>
       <r>     1.8718     4.3486    23.7294 </r>
       <r>     1.9458     3.4038    24.0069 </r>
       <r>     2.0198     3.0464    24.2445 </r>
       <r>     2.0938     2.8642    24.4622 </r>
       <r>     2.1679     2.8752    24.6729 </r>
       <r>     2.2419     3.5129    24.9088 </r>
       <r>     2.3159     4.2302    25.1949 </r>
       <r>     2.3899     6.5667    25.5698 </r>
       <r>     2.4639     4.5748    25.9456 </r>
       <r>     2.5380     5.1203    26.3298 </r>
       <r>     2.6120     4.6084    26.6659 </r>
       <r>     2.6860     5.4400    27.0264 </r>
       <r>     2.7600     6.9965    27.4621 </r>
       <r>     2.8341     5.6172    27.9254 </r>
       <r>     2.9081     4.1122    28.2490 </r>
       <r>     2.9821     3.6777    28.5373 </r>
       <r>     3.0561     3.2466    28.7936 </r>
       <r>     3.1301     2.7419    29.0557 </r>
       <r>     3.2042     1.9505    29.2055 </r>
       <r>     3.2782     1.7740    29.3436 </r>
       <r>     3.3522     1.6687    29.4696 </r>
       <r>     3.4262     2.0186    29.5990 </r>
       <r>     3.5002     2.7873    29.7765 </r>
       <r>     3.5743     3.9985    30.0504 </r>
       <r>     3.6483     4.0427    30.3325 </r>
       <r>     3.7223     4.4194    30.6463 </r>
       <r>     3.7963     4.7696    30.9749 </r>
       <r>     3.8704     2.9379    31.2595 </r>
       <r>     3.9444     1.3443    31.3883 </r>
       <r>     4.0184     1.1908    31.4820 </r>
       <r>     4.0924     1.0438    31.5647 </r>
       <r>     4.1664     0.9031    31.6367 </r>
       <r>     4.2405     0.7689    31.6986 </r>
       <r>     4.3145     0.7449    31.7531 </r>
       <r>     4.3885     0.7594    31.8091 </r>
       <r>     4.4625     0.7189    31.8642 </r>
       <r>     4.5365     0.6235    31.9142 </r>
       <r>     4.6106     0.4732    31.9551 </r>
       <r>     4.6846     0.2679    31.9829 </r>
       <r>     4.7586     0.0844    31.9944 </r>
       <r>     4.8326     0.0332    31.9986 </r>
       <r>     4.9067     0.0054    31.9999 </r>
       <r>     4.9807     0.0000    32.0000 </r>
       <r>     5.0547     0.0000    32.0000 </r>
       <r>     5.1287     0.0000    32.0000 </r>
       <r>     5.2027     0.0000    32.0000 </r>
       <r>     5.2768     0.0000    32.0000 </r>
       <r>     5.3508     0.0000    32.0000 </r>
       <r>     5.4248     0.0000    32.0000 </r>
       <r>     5.4988     0.0000    32.0000 </r>
       <r>     5.5729     0.0000    32.0000 </r>
       <r>     5.6469     0.0000    32.0000 </r>
       <r>     5.7209     0.0000    32.0000 </r>
       <r>     5.7949     0.0000    32.0000 </r>
       <r>     5.8689     0.0000    32.0000 </r>
       <r>     5.9430     0.1822    32.0044 </r>
       <r>     6.0170     0.2288    32.0195 </r>
       <r>     6.0910     0.2864    32.0385 </r>
       <r>     6.1650     0.3550    32.0622 </r>
       <r>     6.2390     0.4345    32.0914 </r>
       <r>     6.3131     0.5250    32.1268 </r>
       <r>     6.3871     0.6288    32.1695 </r>
       <r>     6.4611     0.7023    32.2191 </r>
       <r>     6.5351     0.7576    32.2729 </r>
       <r>     6.6092     0.8488    32.3321 </r>
       <r>     6.6832     0.9760    32.3994 </r>
       <r>     6.7572     1.2979    32.4810 </r>
       <r>     6.8312     2.5963    32.6219 </r>
       <r>     6.9052     3.0234    32.8406 </r>
       <r>     6.9793     2.3433    33.0247 </r>
       <r>     7.0533     2.5417    33.2054 </r>
       <r>     7.1273     2.7549    33.4013 </r>
       <r>     7.2013     3.0195    33.6151 </r>
       <r>     7.2753     3.2790    33.8482 </r>
       <r>     7.3494     3.8021    34.1007 </r>
       <r>     7.4234     6.0490    34.5821 </r>
       <r>     7.4974     5.4685    35.0060 </r>
       <r>     7.5714     5.9479    35.4539 </r>
       <r>     7.6455     3.8692    35.8098 </r>
       <r>     7.7195     4.4821    36.1183 </r>
       <r>     7.7935     7.1124    36.5467 </r>
       <r>     7.8675     5.1588    37.0151 </r>
       <r>     7.9415     4.2325    37.3266 </r>
       <r>     8.0156     5.3429    37.6990 </r>
       <r>     8.0896     5.7058    38.1089 </r>
       <r>     8.1636     4.9794    38.5351 </r>
       <r>     8.2376     4.8006    38.8975 </r>
       <r>     8.3116     4.5575    39.2442 </r>
       <r>     8.3857     3.7263    39.5582 </r>
       <r>     8.4597     3.5325    39.8268 </r>
       <r>     8.5337     3.2445    40.0791 </r>
       <r>     8.6077     3.1556    40.3159 </r>
       <r>     8.6818     3.2047    40.5541 </r>
       <r>     8.7558     2.7761    40.7760 </r>
       <r>     8.8298     2.3782    40.9663 </r>
       <r>     8.9038     1.7640    41.1236 </r>
       <r>     8.9778     2.3313    41.2676 </r>
       <r>     9.0519     3.2433    41.4737 </r>
       <r>     9.1259     4.0995    41.7367 </r>
       <r>     9.1999    12.7230    42.3421 </r>
       <r>     9.2739     8.0311    43.1069 </r>
       <r>     9.3479     5.8702    43.6037 </r>
       <r>     9.4220     4.8487    43.9765 </r>
       <r>     9.4960     4.4575    44.3210 </r>
       <r>     9.5700     4.1798    44.6389 </r>
       <r>     9.6440     3.9647    44.9404 </r>
       <r>     9.7181     4.2281    45.2551 </r>
       <r>     9.7921     4.0303    45.5327 </r>
       <r>     9.8661     5.0099    45.8789 </r>
       <r>     9.9401     4.3923    46.2099 </r>
       <r>    10.0141     4.3269    46.5331 </r>
       <r>    10.0882     4.1750    46.8483 </r>
       <r>    10.1622     3.9368    47.1491 </r>
       <r>    10.2362     3.3448    47.4280 </r>
       <r>    10.3102     2.3396    47.6379 </r>
       <r>    10.3842     3.3423    47.8365 </r>
       <r>    10.4583     0.7571    47.9880 </r>
       <r>    10.5323     0.0000    48.0000 </r>
       <r>    10.6063     0.0000    48.0000 </r>
       <r>    10.6803     0.0000    48.0000 </r>
       <r>    10.7544     0.0000    48.0000 </r>
       <r>    10.8284     0.0000    48.0000 </r>
       <r>    10.9024     0.0000    48.0000 </r>
       <r>    10.9764     0.0000    48.0000 </r>
       <r>    11.0504     0.0000    48.0000 </r>
       <r>    11.1245     0.0000    48.0000 </r>
       <r>    11.1985     0.0000    48.0000 </r>
       <r>    11.2725     0.0000    48.0000 </r>
       <r>    11.3465     0.0000    48.0000 </r>
       <r>    11.4206     0.0000    48.0000 </r>
       <r>    11.4946     0.0000    48.0000 </r>
      </set>
     </set>
    </array>
   </total>
  </dos>
 </calculation>
 <structure name="finalpos" >
  <crystal>
   <varray name="basis" >
    <v>       5.23296993       0.00000000       0.00000000 </v>
    <v>       0.00000000       5.23296993       0.00000000 </v>
    <v>       0.00000000       0.00000000       5.23296993 </v>
   </varray>
   <i name="volume">    143.29951399 </i>
   <varray name="rec_basis" >
    <v>       0.19109607       0.00000000       0.00000000 </v>
    <v>       0.00000000       0.19109607       0.00000000 </v>
    <v>       0.00000000       0.00000000       0.19109607 </v>
   </varray>
  </crystal>
  <varray name="positions" >
   <v>       0.00000000       0.00000000       0.00000000 </v>
   <v>       0.50000000       0.50000000       0.00000000 </v>
   <v>       0.50000000       0.00000000       0.50000000 </v>
   <v>       0.00000000       0.50000000       0.50000000 </v>
   <v>       0.25000000       0.25000000       0.25000000 </v>
   <v>       0.75000000       0.25000000       0.75000000 </v>
   <v>       0.75000000       0.75000000       0.25000000 </v>
   <v>       0.25000000       0.75000000       0.75000000 </v>
  </varray>
 </structure>
</modeling>
