GaAs                                    
   4.50000000000000     
     1.184565    0.000000    0.000000
     0.000000    1.184565    0.000000
     0.000000    0.000000    1.184565
   As   Ga
     4     4
Direct
  0.000000  0.000000  0.000000
  0.500000  0.500000  0.000000
  0.500000  0.000000  0.500000
  0.000000  0.500000  0.500000
  0.250000  0.250000  0.250000
  0.750000  0.250000  0.750000
  0.750000  0.750000  0.250000
  0.250000  0.750000  0.750000
 
   60   60   60
 -60.722     -53.891     -34.806     -7.3039      23.381      51.960      74.295      88.104      93.033      90.270    
  81.961      70.656      58.849      48.309      39.292      31.731      25.523      20.522      16.549      13.414    
  10.946      9.0070      7.4921      6.3194      5.4225      4.7462      4.2452      3.8856      3.6438      3.5046    
  3.4593      3.5046      3.6438      3.8856      4.2452      4.7462      5.4225      6.3194      7.4921      9.0070    
  10.946      13.414      16.549      20.522      25.523      31.731      39.292      48.309      58.849      70.656    
  81.961      90.270      93.033      88.104      74.295      51.960      23.381     -7.3039     -34.806     -53.891    
 -53.891     -47.293     -28.867     -2.3413      27.200      54.627      75.935      88.921      93.261      90.131    
  81.641      70.299      58.554      48.097      39.147      31.639      25.473      20.503      16.552      13.432    
  10.974      9.0419      7.5314      6.3615      5.4663      4.7909      4.2904      3.9309      3.6891      3.5500    
  3.5046      3.5500      3.6891      3.9309      4.2904      4.7909      5.4663      6.3615      7.5314      9.0419    
  10.974      13.432      16.552      20.503      25.473      31.639      39.147      48.097      58.554      70.299    
  81.641      90.131      93.261      88.921      75.935      54.627      27.200     -2.3413     -28.867     -47.293    
 -34.806     -28.867     -12.305      11.458      37.770      61.952      80.369      91.048      93.744      89.599    
  80.630      69.216      57.676      47.465      38.714      31.365      25.322      20.446      16.561      13.487    
  11.060      9.1482      7.6514      6.4903      5.6005      4.9280      4.4288      4.0698      3.8282      3.6891    
  3.6438      3.6891      3.8282      4.0698      4.4288      4.9280      5.6005      6.4903      7.6514      9.1482    
  11.060      13.487      16.561      20.446      25.322      31.365      38.714      47.465      57.676      69.216    
  80.630      89.599      93.744      91.048      80.369      61.952      37.770      11.458     -12.305     -28.867    
 -7.3039     -2.3413      11.458      31.136      52.686      72.098      86.284      93.607      93.942      88.382    
  78.799      67.384      56.236      46.426      38.001      30.913      25.075      20.353      16.579      13.582    
  11.207      9.3312      7.8582      6.7127      5.8325      5.1653      4.6688      4.3109      4.0698      3.9309    
  3.8856      3.9309      4.0698      4.3109      4.6688      5.1653      5.8325      6.7127      7.8582      9.3312    
  11.207      13.582      16.579      20.353      25.075      30.913      38.001      46.426      56.236      67.384    
  78.799      88.382      93.942      93.607      86.284      72.098      52.686      31.136      11.458     -2.3413    
  23.381      27.200      37.770      52.686      68.704      82.602      91.931      95.448      93.165      86.123    
  76.017      64.809      54.270      45.004      37.024      30.295      24.739      20.229      16.611      13.722    
  11.423      9.5990      8.1615      7.0398      6.1746      5.5161      5.0243      4.6688      4.4288      4.2904    
  4.2452      4.2904      4.4288      4.6688      5.0243      5.5161      6.1746      7.0398      8.1615      9.5990    
  11.423      13.722      16.611      20.229      24.739      30.295      37.024      45.004      54.270      64.809    
  76.017      86.123      93.165      95.448      91.931      82.602      68.704      52.686      37.770      27.200    
  51.960      54.627      61.952      72.098      82.602      91.043      95.619      95.485      90.801      82.549    
  72.240      61.581      51.839      43.241      35.811      29.529      24.326      20.085      16.664      13.917    
  11.717      9.9634      8.5753      7.4875      6.6446      5.9999      5.5161      5.1653      4.9280      4.7909    
  4.7462      4.7909      4.9280      5.1653      5.5161      5.9999      6.6446      7.4875      8.5753      9.9634    
  11.717      13.917      16.664      20.085      24.326      29.529      35.811      43.241      51.839      61.581    
  72.240      82.549      90.801      95.485      95.619      91.043      82.602      72.098      61.952      54.627    
  74.295      75.935      80.369      86.284      91.931      95.619      96.136      93.005      86.519      77.604    
  67.587      57.853      49.023      41.193      34.404      28.646      23.858      19.936      16.751      14.177    
  12.103      10.441      9.1190      8.0784      7.2679      6.6446      6.1746      5.8325      5.6005      5.4663    
  5.4225      5.4663      5.6005      5.8325      6.1746      6.6446      7.2679      8.0784      9.1190      10.441    
  12.103      14.177      16.751      19.936      23.858      28.646      34.404      41.193      49.023      57.853    
  67.587      77.604      86.519      93.005      96.136      95.619      91.931      86.284      80.369      75.935    
  88.104      88.921      91.048      93.607      95.448      95.485      93.005      87.838      80.385      71.515    
  62.362      53.762      45.921      38.935      32.856      27.682      23.361      19.800      16.889      14.520    
  12.600      11.054      9.8190      8.8427      8.0784      7.4875      7.0398      6.7127      6.4903      6.3615    
  6.3194      6.3615      6.4903      6.7127      7.0398      7.4875      8.0784      8.8427      9.8190      11.054    
  12.600      14.520      16.889      19.800      23.361      27.682      32.856      38.935      45.921      53.762    
  62.362      71.515      80.385      87.838      93.005      95.485      95.448      93.607      91.048      88.921    
  93.033      93.261      93.744      93.942      93.165      90.801      86.519      80.385      72.877      64.785    
  56.886      49.456      42.644      36.549      31.227      26.682      22.866      19.703      17.100      14.969    
  13.234      11.832      10.710      9.8190      9.1190      8.5753      8.1615      7.8582      7.6514      7.5314    
  7.4921      7.5314      7.6514      7.8582      8.1615      8.5753      9.1190      9.8190      10.710      11.832    
  13.234      14.969      17.100      19.703      22.866      26.682      31.227      36.549      42.644      49.456    
  56.886      64.785      72.877      80.385      86.519      90.801      93.165      93.942      93.744      93.261    
  90.270      90.131      89.599      88.382      86.123      82.549      77.604      71.515      64.785      57.977    
  51.353      45.084      39.309      34.125      29.585      25.693      22.411      19.675      17.412      15.553    
  14.037      12.813      11.832      11.054      10.441      9.9634      9.5990      9.3312      9.1482      9.0419    
  9.0070      9.0419      9.1482      9.3312      9.5990      9.9634      10.441      11.054      11.832      12.813    
  14.037      15.553      17.412      19.675      22.411      25.693      29.585      34.125      39.309      45.084    
  51.353      57.977      64.785      71.515      77.604      82.549      86.123      88.382      89.599      90.131    
  81.961      81.641      80.630      78.799      76.017      72.240      67.587      62.362      56.886      51.353    
  45.936      40.787      36.030      31.750      27.993      24.763      22.031      19.747      17.856      16.306    
  15.047      14.037      13.234      12.600      12.103      11.717      11.423      11.207      11.060      10.974    
  10.946      10.974      11.060      11.207      11.423      11.717      12.103      12.600      13.234      14.037    
  15.047      16.306      17.856      19.747      22.031      24.763      27.993      31.750      36.030      40.787    
  45.936      51.353      56.886      62.362      67.587      72.240      76.017      78.799      80.630      81.641    
  70.656      70.299      69.216      67.384      64.809      61.581      57.853      53.762      49.456      45.084    
  40.787      36.694      32.908      29.501      26.509      23.937      21.763      19.953      18.467      17.264    
  16.306      15.553      14.969      14.520      14.177      13.917      13.722      13.582      13.487      13.432    
  13.414      13.432      13.487      13.582      13.722      13.917      14.177      14.520      14.969      15.553    
  16.306      17.264      18.467      19.953      21.763      23.937      26.509      29.501      32.908      36.694    
  40.787      45.084      49.456      53.762      57.853      61.581      64.809      67.384      69.216      70.299    
  58.849      58.554      57.676      56.236      54.270      51.839      49.023      45.921      42.644      39.309    
  36.030      32.908      30.027      27.442      25.182      23.253      21.643      20.328      19.280      18.467    
  17.856      17.412      17.100      16.889      16.751      16.664      16.611      16.579      16.561      16.552    
  16.549      16.552      16.561      16.579      16.611      16.664      16.751      16.889      17.100      17.412    
  17.856      18.467      19.280      20.328      21.643      23.253      25.182      27.442      30.027      32.908    
  36.030      39.309      42.644      45.921      49.023      51.839      54.270      56.236      57.676      58.554    
  48.309      48.097      47.465      46.426      45.004      43.241      41.193      38.935      36.549      34.125    
  31.750      29.501      27.442      25.615      24.046      22.742      21.699      20.901      20.328      19.953    
  19.747      19.675      19.703      19.800      19.936      20.085      20.229      20.353      20.446      20.503    
  20.522      20.503      20.446      20.353      20.229      20.085      19.936      19.800      19.703      19.675    
  19.747      19.953      20.328      20.901      21.699      22.742      24.046      25.615      27.442      29.501    
  31.750      34.125      36.549      38.935      41.193      43.241      45.004      46.426      47.465      48.097    
  39.292      39.147      38.714      38.001      37.024      35.811      34.404      32.856      31.227      29.585    
  27.993      26.509      25.182      24.046      23.124      22.427      21.955      21.699      21.643      21.763    
  22.031      22.411      22.866      23.361      23.858      24.326      24.739      25.075      25.322      25.473    
  25.523      25.473      25.322      25.075      24.739      24.326      23.858      23.361      22.866      22.411    
  22.031      21.763      21.643      21.699      21.955      22.427      23.124      24.046      25.182      26.509    
  27.993      29.585      31.227      32.856      34.404      35.811      37.024      38.001      38.714      39.147    
  31.731      31.639      31.365      30.913      30.295      29.529      28.646      27.682      26.682      25.693    
  24.763      23.937      23.253      22.742      22.427      22.321      22.427      22.742      23.253      23.937    
  24.763      25.693      26.682      27.682      28.646      29.529      30.295      30.913      31.365      31.639    
  31.731      31.639      31.365      30.913      30.295      29.529      28.646      27.682      26.682      25.693    
  24.763      23.937      23.253      22.742      22.427      22.321      22.427      22.742      23.253      23.937    
  24.763      25.693      26.682      27.682      28.646      29.529      30.295      30.913      31.365      31.639    
  25.523      25.473      25.322      25.075      24.739      24.326      23.858      23.361      22.866      22.411    
  22.031      21.763      21.643      21.699      21.955      22.427      23.124      24.046      25.182      26.509    
  27.993      29.585      31.227      32.856      34.404      35.811      37.024      38.001      38.714      39.147    
  39.292      39.147      38.714      38.001      37.024      35.811      34.404      32.856      31.227      29.585    
  27.993      26.509      25.182      24.046      23.124      22.427      21.955      21.699      21.643      21.763    
  22.031      22.411      22.866      23.361      23.858      24.326      24.739      25.075      25.322      25.473    
  20.522      20.503      20.446      20.353      20.229      20.085      19.936      19.800      19.703      19.675    
  19.747      19.953      20.328      20.901      21.699      22.742      24.046      25.615      27.442      29.501    
  31.750      34.125      36.549      38.935      41.193      43.241      45.004      46.426      47.465      48.097    
  48.309      48.097      47.465      46.426      45.004      43.241      41.193      38.935      36.549      34.125    
  31.750      29.501      27.442      25.615      24.046      22.742      21.699      20.901      20.328      19.953    
  19.747      19.675      19.703      19.800      19.936      20.085      20.229      20.353      20.446      20.503    
  16.549      16.552      16.561      16.579      16.611      16.664      16.751      16.889      17.100      17.412    
  17.856      18.467      19.280      20.328      21.643      23.253      25.182      27.442      30.027      32.908    
  36.030      39.309      42.644      45.921      49.023      51.839      54.270      56.236      57.676      58.554    
  58.849      58.554      57.676      56.236      54.270      51.839      49.023      45.921      42.644      39.309    
  36.030      32.908      30.027      27.442      25.182      23.253      21.643      20.328      19.280      18.467    
  17.856      17.412      17.100      16.889      16.751      16.664      16.611      16.579      16.561      16.552    
  13.414      13.432      13.487      13.582      13.722      13.917      14.177      14.520      14.969      15.553    
  16.306      17.264      18.467      19.953      21.763      23.937      26.509      29.501      32.908      36.694    
  40.787      45.084      49.456      53.762      57.853      61.581      64.809      67.384      69.216      70.299    
  70.656      70.299      69.216      67.384      64.809      61.581      57.853      53.762      49.456      45.084    
  40.787      36.694      32.908      29.501      26.509      23.937      21.763      19.953      18.467      17.264    
  16.306      15.553      14.969      14.520      14.177      13.917      13.722      13.582      13.487      13.432    
  10.946      10.974      11.060      11.207      11.423      11.717      12.103      12.600      13.234      14.037    
  15.047      16.306      17.856      19.747      22.031      24.763      27.993      31.750      36.030      40.787    
  45.936      51.353      56.886      62.362      67.587      72.240      76.017      78.799      80.630      81.641    
  81.961      81.641      80.630      78.799      76.017      72.240      67.587      62.362      56.886      51.353    
  45.936      40.787      36.030      31.750      27.993      24.763      22.031      19.747      17.856      16.306    
  15.047      14.037      13.234      12.600      12.103      11.717      11.423      11.207      11.060      10.974    
  9.0070      9.0419      9.1482      9.3312      9.5990      9.9634      10.441      11.054      11.832      12.813    
  14.037      15.553      17.412      19.675      22.411      25.693      29.585      34.125      39.309      45.084    
  51.353      57.977      64.785      71.515      77.604      82.549      86.123      88.382      89.599      90.131    
  90.270      90.131      89.599      88.382      86.123      82.549      77.604      71.515      64.785      57.977    
  51.353      45.084      39.309      34.125      29.585      25.693      22.411      19.675      17.412      15.553    
  14.037      12.813      11.832      11.054      10.441      9.9634      9.5990      9.3312      9.1482      9.0419    
  7.4921      7.5314      7.6514      7.8582      8.1615      8.5753      9.1190      9.8190      10.710      11.832    
  13.234      14.969      17.100      19.703      22.866      26.682      31.227      36.549      42.644      49.456    
  56.886      64.785      72.877      80.385      86.519      90.801      93.165      93.942      93.744      93.261    
  93.033      93.261      93.744      93.942      93.165      90.801      86.519      80.385      72.877      64.785    
  56.886      49.456      42.644      36.549      31.227      26.682      22.866      19.703      17.100      14.969    
  13.234      11.832      10.710      9.8190      9.1190      8.5753      8.1615      7.8582      7.6514      7.5314    
  6.3194      6.3615      6.4903      6.7127      7.0398      7.4875      8.0784      8.8427      9.8190      11.054    
  12.600      14.520      16.889      19.800      23.361      27.682      32.856      38.935      45.921      53.762    
  62.362      71.515      80.385      87.838      93.005      95.485      95.448      93.607      91.048      88.921    
  88.104      88.921      91.048      93.607      95.448      95.485      93.005      87.838      80.385      71.515    
  62.362      53.762      45.921      38.935      32.856      27.682      23.361      19.800      16.889      14.520    
  12.600      11.054      9.8190      8.8427      8.0784      7.4875      7.0398      6.7127      6.4903      6.3615    
  5.4225      5.4663      5.6005      5.8325      6.1746      6.6446      7.2679      8.0784      9.1190      10.441    
  12.103      14.177      16.751      19.936      23.858      28.646      34.404      41.193      49.023      57.853    
  67.587      77.604      86.519      93.005      96.136      95.619      91.931      86.284      80.369      75.935    
  74.295      75.935      80.369      86.284      91.931      95.619      96.136      93.005      86.519      77.604    
  67.587      57.853      49.023      41.193      34.404      28.646      23.858      19.936      16.751      14.177    
  12.103      10.441      9.1190      8.0784      7.2679      6.6446      6.1746      5.8325      5.6005      5.4663    
  4.7462      4.7909      4.9280      5.1653      5.5161      5.9999      6.6446      7.4875      8.5753      9.9634    
  11.717      13.917      16.664      20.085      24.326      29.529      35.811      43.241      51.839      61.581    
  72.240      82.549      90.801      95.485      95.619      91.043      82.602      72.098      61.952      54.627    
  51.960      54.627      61.952      72.098      82.602      91.043      95.619      95.485      90.801      82.549    
  72.240      61.581      51.839      43.241      35.811      29.529      24.326      20.085      16.664      13.917    
  11.717      9.9634      8.5753      7.4875      6.6446      5.9999      5.5161      5.1653      4.9280      4.7909    
  4.2452      4.2904      4.4288      4.6688      5.0243      5.5161      6.1746      7.0398      8.1615      9.5990    
  11.423      13.722      16.611      20.229      24.739      30.295      37.024      45.004      54.270      64.809    
  76.017      86.123      93.165      95.448      91.931      82.602      68.704      52.686      37.770      27.200    
  23.381      27.200      37.770      52.686      68.704      82.602      91.931      95.448      93.165      86.123    
  76.017      64.809      54.270      45.004      37.024      30.295      24.739      20.229      16.611      13.722    
  11.423      9.5990      8.1615      7.0398      6.1746      5.5161      5.0243      4.6688      4.4288      4.2904    
  3.8856      3.9309      4.0698      4.3109      4.6688      5.1653      5.8325      6.7127      7.8582      9.3312    
  11.207      13.582      16.579      20.353      25.075      30.913      38.001      46.426      56.236      67.384    
  78.799      88.382      93.942      93.607      86.284      72.098      52.686      31.136      11.458     -2.3413    
 -7.3039     -2.3413      11.458      31.136      52.686      72.098      86.284      93.607      93.942      88.382    
  78.799      67.384      56.236      46.426      38.001      30.913      25.075      20.353      16.579      13.582    
  11.207      9.3312      7.8582      6.7127      5.8325      5.1653      4.6688      4.3109      4.0698      3.9309    
  3.6438      3.6891      3.8282      4.0698      4.4288      4.9280      5.6005      6.4903      7.6514      9.1482    
  11.060      13.487      16.561      20.446      25.322      31.365      38.714      47.465      57.676      69.216    
  80.630      89.599      93.744      91.048      80.369      61.952      37.770      11.458     -12.305     -28.867    
 -34.806     -28.867     -12.305      11.458      37.770      61.952      80.369      91.048      93.744      89.599    
  80.630      69.216      57.676      47.465      38.714      31.365      25.322      20.446      16.561      13.487    
  11.060      9.1482      7.6514      6.4903      5.6005      4.9280      4.4288      4.0698      3.8282      3.6891    
  3.5046      3.5500      3.6891      3.9309      4.2904      4.7909      5.4663      6.3615      7.5314      9.0419    
  10.974      13.432      16.552      20.503      25.473      31.639      39.147      48.097      58.554      70.299    
  81.641      90.131      93.261      88.921      75.935      54.627      27.200     -2.3413     -28.867     -47.293    
 -53.891     -47.293     -28.867     -2.3413      27.200      54.627      75.935      88.921      93.261      90.131    
  81.641      70.299      58.554      48.097      39.147      31.639      25.473      20.503      16.552      13.432    
  10.974      9.0419      7.5314      6.3615      5.4663      4.7909      4.2904      3.9309      3.6891      3.5500    
  3.4593      3.5046      3.6438      3.8856      4.2452      4.7462      5.4225      6.3194      7.4921      9.0070    
  10.946      13.414      16.549      20.522      25.523      31.731      39.292      48.309      58.849      70.656    
  81.961      90.270      93.033      88.104      74.295      51.960      23.381     -7.3039     -34.806     -53.891    
 -60.722     -53.891     -34.806     -7.3039      23.381      51.960      74.295      88.104      93.033      90.270    
  81.961      70.656      58.849      48.309      39.292      31.731      25.523      20.522      16.549      13.414    
  10.946      9.0070      7.4921      6.3194      5.4225      4.7462      4.2452      3.8856      3.6438      3.5046    
  3.5046      3.5500      3.6891      3.9309      4.2904      4.7909      5.4663      6.3615      7.5314      9.0419    
  10.974      13.432      16.552      20.503      25.473      31.639      39.147      48.097      58.554      70.299    
  81.641      90.131      93.261      88.921      75.935      54.627      27.200     -2.3413     -28.867     -47.293    
 -53.891     -47.293     -28.867     -2.3413      27.200      54.627      75.935      88.921      93.261      90.131    
  81.641      70.299      58.554      48.097      39.147      31.639      25.473      20.503      16.552      13.432    
  10.974      9.0419      7.5314      6.3615      5.4663      4.7909      4.2904      3.9309      3.6891      3.5500    
  3.6438      3.6891      3.8282      4.0698      4.4288      4.9280      5.6005      6.4903      7.6514      9.1482    
  11.060      13.487      16.561      20.446      25.322      31.365      38.714      47.465      57.676      69.216    
  80.630      89.599      93.744      91.048      80.369      61.952      37.770      11.458     -12.305     -28.867    
 -34.806     -28.867     -12.305      11.458      37.770      61.952      80.369      91.048      93.744      89.599    
  80.630      69.216      57.676      47.465      38.714      31.365      25.322      20.446      16.561      13.487    
  11.060      9.1482      7.6514      6.4903      5.6005      4.9280      4.4288      4.0698      3.8282      3.6891    
  3.8856      3.9309      4.0698      4.3109      4.6688      5.1653      5.8325      6.7127      7.8582      9.3312    
  11.207      13.582      16.579      20.353      25.075      30.913      38.001      46.426      56.236      67.384    
  78.799      88.382      93.942      93.607      86.284      72.098      52.686      31.136      11.458     -2.3413    
 -7.3039     -2.3413      11.458      31.136      52.686      72.098      86.284      93.607      93.942      88.382    
  78.799      67.384      56.236      46.426      38.001      30.913      25.075      20.353      16.579      13.582    
  11.207      9.3312      7.8582      6.7127      5.8325      5.1653      4.6688      4.3109      4.0698      3.9309    
  4.2452      4.2904      4.4288      4.6688      5.0243      5.5161      6.1746      7.0398      8.1615      9.5990    
  11.423      13.722      16.611      20.229      24.739      30.295      37.024      45.004      54.270      64.809    
  76.017      86.123      93.165      95.448      91.931      82.602      68.704      52.686      37.770      27.200    
  23.381      27.200      37.770      52.686      68.704      82.602      91.931      95.448      93.165      86.123    
  76.017      64.809      54.270      45.004      37.024      30.295      24.739      20.229      16.611      13.722    
  11.423      9.5990      8.1615      7.0398      6.1746      5.5161      5.0243      4.6688      4.4288      4.2904    
  4.7462      4.7909      4.9280      5.1653      5.5161      5.9999      6.6446      7.4875      8.5753      9.9634    
  11.717      13.917      16.664      20.085      24.326      29.529      35.811      43.241      51.839      61.581    
  72.240      82.549      90.801      95.485      95.619      91.043      82.602      72.098      61.952      54.627    
  51.960      54.627      61.952      72.098      82.602      91.043      95.619      95.485      90.801      82.549    
  72.240      61.581      51.839      43.241      35.811      29.529      24.326      20.085      16.664      13.917    
  11.717      9.9634      8.5753      7.4875      6.6446      5.9999      5.5161      5.1653      4.9280      4.7909    
  5.4225      5.4663      5.6005      5.8325      6.1746      6.6446      7.2679      8.0784      9.1190      10.441    
  12.103      14.177      16.751      19.936      23.858      28.646      34.404      41.193      49.023      57.853    
  67.587      77.604      86.519      93.005      96.136      95.619      91.931      86.284      80.369      75.935    
  74.295      75.935      80.369      86.284      91.931      95.619      96.136      93.005      86.519      77.604    
  67.587      57.853      49.023      41.193      34.404      28.646      23.858      19.936      16.751      14.177    
  12.103      10.441      9.1190      8.0784      7.2679      6.6446      6.1746      5.8325      5.6005      5.4663    
  6.3194      6.3615      6.4903      6.7127      7.0398      7.4875      8.0784      8.8427      9.8190      11.054    
  12.600      14.520      16.889      19.800      23.361      27.682      32.856      38.935      45.921      53.762    
  62.362      71.515      80.385      87.838      93.005      95.485      95.448      93.607      91.048      88.921    
  88.104      88.921      91.048      93.607      95.448      95.485      93.005      87.838      80.385      71.515    
  62.362      53.762      45.921      38.935      32.856      27.682      23.361      19.800      16.889      14.520    
  12.600      11.054      9.8190      8.8427      8.0784      7.4875      7.0398      6.7127      6.4903      6.3615    
  7.4921      7.5314      7.6514      7.8582      8.1615      8.5753      9.1190      9.8190      10.710      11.832    
  13.234      14.969      17.100      19.703      22.866      26.682      31.227      36.549      42.644      49.456    
  56.886      64.785      72.877      80.385      86.519      90.801      93.165      93.942      93.744      93.261    
  93.033      93.261      93.744      93.942      93.165      90.801      86.519      80.385      72.877      64.785    
  56.886      49.456      42.644      36.549      31.227      26.682      22.866      19.703      17.100      14.969    
  13.234      11.832      10.710      9.8190      9.1190      8.5753      8.1615      7.8582      7.6514      7.5314    
  9.0070      9.0419      9.1482      9.3312      9.5990      9.9634      10.441      11.054      11.832      12.813    
  14.037      15.553      17.412      19.675      22.411      25.693      29.585      34.125      39.309      45.084    
  51.353      57.977      64.785      71.515      77.604      82.549      86.123      88.382      89.599      90.131    
  90.270      90.131      89.599      88.382      86.123      82.549      77.604      71.515      64.785      57.977    
  51.353      45.084      39.309      34.125      29.585      25.693      22.411      19.675      17.412      15.553    
  14.037      12.813      11.832      11.054      10.441      9.9634      9.5990      9.3312      9.1482      9.0419    
  10.946      10.974      11.060      11.207      11.423      11.717      12.103      12.600      13.234      14.037    
  15.047      16.306      17.856      19.747      22.031      24.763      27.993      31.750      36.030      40.787    
  45.936      51.353      56.886      62.362      67.587      72.240      76.017      78.799      80.630      81.641    