GaAs                                    
   4.50000000000000     
     1.184565    0.000000    0.000000
     0.000000    1.184565    0.000000
     0.000000    0.000000    1.184565
   As   Ga
     4     4
Direct
  0.000000  0.000000  0.000000
  0.500000  0.500000  0.000000
  0.500000  0.000000  0.500000
  0.000000  0.500000  0.500000
  0.250000  0.250000  0.250000
  0.750000  0.250000  0.750000
  0.750000  0.750000  0.250000
  0.250000  0.750000  0.750000
 
   60   60   60
 -.60721696290E+02 -.53891037395E+02 -.34806138616E+02 -.73038971506E+01 0.23381043860E+02
 0.51959583731E+02 0.74294999973E+02 0.88103762602E+02 0.93033005385E+02 0.90270033139E+02
 0.81961353089E+02 0.70655852414E+02 0.58849269932E+02 0.48309053452E+02 0.39292299515E+02
 0.31731233480E+02 0.25523033249E+02 0.20522453386E+02 0.16549238671E+02 0.13413940143E+02
 0.10945772992E+02 0.90070227838E+01 0.74921461502E+01 0.63193776710E+01 0.54224865711E+01
 0.47461617500E+01 0.42452361524E+01 0.38855876054E+01 0.36437582903E+01 0.35046209321E+01
 0.34592616446E+01 0.35046209321E+01 0.36437582903E+01 0.38855876054E+01 0.42452361524E+01
 0.47461617500E+01 0.54224865711E+01 0.63193776710E+01 0.74921461502E+01 0.90070227838E+01
 0.10945772992E+02 0.13413940143E+02 0.16549238671E+02 0.20522453386E+02 0.25523033249E+02
 0.31731233480E+02 0.39292299515E+02 0.48309053452E+02 0.58849269932E+02 0.70655852414E+02
 0.81961353089E+02 0.90270033139E+02 0.93033005385E+02 0.88103762602E+02 0.74294999973E+02
 0.51959583731E+02 0.23381043860E+02 -.73038971506E+01 -.34806138616E+02 -.53891037395E+02
 -.53891037395E+02 -.47292918358E+02 -.28866683391E+02 -.23413046011E+01 0.27200090618E+02
 0.54627476046E+02 0.75935360442E+02 0.88921438066E+02 0.93261321107E+02 0.90130610285E+02
 0.81641426674E+02 0.70299255854E+02 0.58554493723E+02 0.48097089663E+02 0.39147177477E+02
 0.31639385734E+02 0.25472655378E+02 0.20503112849E+02 0.16552058155E+02 0.13431938491E+02
 0.10973912298E+02 0.90418828161E+01 0.75314366607E+01 0.63615149535E+01 0.54663339273E+01
 0.47909181498E+01 0.42903954796E+01 0.39308887931E+01 0.36891006303E+01 0.35499763741E+01
 0.35046209321E+01 0.35499763741E+01 0.36891006303E+01 0.39308887931E+01 0.42903954796E+01
 0.47909181498E+01 0.54663339273E+01 0.63615149535E+01 0.75314366607E+01 0.90418828161E+01
 0.10973912298E+02 0.13431938491E+02 0.16552058155E+02 0.20503112849E+02 0.25472655378E+02
 0.31639385734E+02 0.39147177477E+02 0.48097089663E+02 0.58554493723E+02 0.70299255854E+02
 0.81641426674E+02 0.90130610285E+02 0.93261321107E+02 0.88921438066E+02 0.75935360442E+02
 0.54627476046E+02 0.27200090618E+02 -.23413046011E+01 -.28866683391E+02 -.47292918358E+02
 -.34806138616E+02 -.28866683391E+02 -.12305030123E+02 0.11457915856E+02 0.37770067653E+02
 0.61952172933E+02 0.80369274663E+02 0.91047830751E+02 0.93743637654E+02 0.89599373246E+02
 0.80629763365E+02 0.69216280937E+02 0.57676454689E+02 0.47465017433E+02 0.38714028959E+02
 0.31365128251E+02 0.25322311920E+02 0.20445704081E+02 0.16561218425E+02 0.13486921381E+02
 0.11059700845E+02 0.91482227967E+01 0.76514129009E+01 0.64903144529E+01 0.56004849891E+01
 0.49279657348E+01 0.44287797550E+01 0.40697873499E+01 0.38281703961E+01 0.36891006303E+01
 0.36437582903E+01 0.36891006303E+01 0.38281703961E+01 0.40697873499E+01 0.44287797550E+01
 0.49279657348E+01 0.56004849891E+01 0.64903144529E+01 0.76514129009E+01 0.91482227967E+01
 0.11059700845E+02 0.13486921381E+02 0.16561218425E+02 0.20445704081E+02 0.25322311920E+02
 0.31365128251E+02 0.38714028959E+02 0.47465017433E+02 0.57676454689E+02 0.69216280937E+02
 0.80629763365E+02 0.89599373246E+02 0.93743637654E+02 0.91047830751E+02 0.80369274663E+02
 0.61952172933E+02 0.37770067653E+02 0.11457915856E+02 -.12305030123E+02 -.28866683391E+02
 -.73038971506E+01 -.23413046011E+01 0.11457915856E+02 0.31136243384E+02 0.52686167238E+02
 0.72098007974E+02 0.86283948988E+02 0.93607144080E+02 0.93941744802E+02 0.88382329132E+02
 0.78798510553E+02 0.67383545380E+02 0.56235586572E+02 0.46425650136E+02 0.38000723881E+02
 0.30913342210E+02 0.25075160241E+02 0.20352604426E+02 0.16579125853E+02 0.13581945795E+02
 0.11207187901E+02 0.93311603469E+01 0.78581680495E+01 0.67126785027E+01 0.58324745312E+01
 0.51653224722E+01 0.46687756744E+01 0.43109379188E+01 0.40697873499E+01 0.39308887931E+01
 0.38855876054E+01 0.39308887931E+01 0.40697873499E+01 0.43109379188E+01 0.46687756744E+01
 0.51653224722E+01 0.58324745312E+01 0.67126785027E+01 0.78581680495E+01 0.93311603469E+01
 0.11207187901E+02 0.13581945795E+02 0.16579125853E+02 0.20352604426E+02 0.25075160241E+02
 0.30913342210E+02 0.38000723881E+02 0.46425650136E+02 0.56235586572E+02 0.67383545380E+02
 0.78798510553E+02 0.88382329132E+02 0.93941744802E+02 0.93607144080E+02 0.86283948988E+02
 0.72098007974E+02 0.52686167238E+02 0.31136243384E+02 0.11457915856E+02 -.23413046011E+01
 0.23381043860E+02 0.27200090618E+02 0.37770067653E+02 0.52686167238E+02 0.68704426867E+02
 0.82602291679E+02 0.91931339438E+02 0.95447663623E+02 0.93164950426E+02 0.86122501214E+02
 0.76016607654E+02 0.64809149676E+02 0.54270074185E+02 0.45004060083E+02 0.37023735809E+02
 0.30294960208E+02 0.24738587794E+02 0.20229229433E+02 0.16610629409E+02 0.13722428962E+02
 0.11423072012E+02 0.95989593395E+01 0.81615035443E+01 0.70397540620E+01 0.61745584658E+01
 0.55161412931E+01 0.50242581468E+01 0.46687756744E+01 0.44287797550E+01 0.42903954796E+01
 0.42452361524E+01 0.42903954796E+01 0.44287797550E+01 0.46687756744E+01 0.50242581468E+01
 0.55161412931E+01 0.61745584658E+01 0.70397540620E+01 0.81615035443E+01 0.95989593395E+01
 0.11423072012E+02 0.13722428962E+02 0.16610629409E+02 0.20229229433E+02 0.24738587794E+02
 0.30294960208E+02 0.37023735809E+02 0.45004060083E+02 0.54270074185E+02 0.64809149676E+02
 0.76016607654E+02 0.86122501214E+02 0.93164950426E+02 0.95447663623E+02 0.91931339438E+02
 0.82602291679E+02 0.68704426867E+02 0.52686167238E+02 0.37770067653E+02 0.27200090618E+02
 0.51959583731E+02 0.54627476046E+02 0.61952172933E+02 0.72098007974E+02 0.82602291679E+02
 0.91042728324E+02 0.95618668086E+02 0.95485453899E+02 0.90800977441E+02 0.82548577346E+02
 0.72240071143E+02 0.61581466479E+02 0.51839009078E+02 0.43240843438E+02 0.35811155243E+02
 0.29529415530E+02 0.24326028995E+02 0.20085303526E+02 0.16663868362E+02 0.13916693958E+02
 0.11717069800E+02 0.99633520247E+01 0.85753306079E+01 0.74875305704E+01 0.66446036557E+01
 0.59999394063E+01 0.55161412931E+01 0.51653224722E+01 0.49279657348E+01 0.47909181498E+01
 0.47461617500E+01 0.47909181498E+01 0.49279657348E+01 0.51653224722E+01 0.55161412931E+01
 0.59999394063E+01 0.66446036557E+01 0.74875305704E+01 0.85753306079E+01 0.99633520247E+01
 0.11717069800E+02 0.13916693958E+02 0.16663868362E+02 0.20085303526E+02 0.24326028995E+02
 0.29529415530E+02 0.35811155243E+02 0.43240843438E+02 0.51839009078E+02 0.61581466479E+02
 0.72240071143E+02 0.82548577346E+02 0.90800977441E+02 0.95485453899E+02 0.95618668086E+02
 0.91042728324E+02 0.82602291679E+02 0.72098007974E+02 0.61952172933E+02 0.54627476046E+02
 0.74294999973E+02 0.75935360442E+02 0.80369274663E+02 0.86283948988E+02 0.91931339438E+02
 0.95618668086E+02 0.96136031801E+02 0.93005385057E+02 0.86518645297E+02 0.77603777604E+02
 0.67586524868E+02 0.57852679361E+02 0.49022861653E+02 0.41193488105E+02 0.34404090902E+02
 0.28645731456E+02 0.23857782422E+02 0.19935578362E+02 0.16751036158E+02 0.14176851886E+02
 0.12102939014E+02 0.10440712298E+02 0.91190160985E+01 0.80783931541E+01 0.72678721821E+01
 0.66446036557E+01 0.61745584658E+01 0.58324745312E+01 0.56004849891E+01 0.54663339273E+01
 0.54224865711E+01 0.54663339273E+01 0.56004849891E+01 0.58324745312E+01 0.61745584658E+01
 0.66446036557E+01 0.72678721821E+01 0.80783931541E+01 0.91190160985E+01 0.10440712298E+02
 0.12102939014E+02 0.14176851886E+02 0.16751036158E+02 0.19935578362E+02 0.23857782422E+02
 0.28645731456E+02 0.34404090902E+02 0.41193488105E+02 0.49022861653E+02 0.57852679361E+02
 0.67586524868E+02 0.77603777604E+02 0.86518645297E+02 0.93005385057E+02 0.96136031801E+02
 0.95618668086E+02 0.91931339438E+02 0.86283948988E+02 0.80369274663E+02 0.75935360442E+02
 0.88103762602E+02 0.88921438066E+02 0.91047830751E+02 0.93607144080E+02 0.95447663623E+02
 0.95485453899E+02 0.93005385057E+02 0.87838030835E+02 0.80385383013E+02 0.71515253569E+02
 0.62361925627E+02 0.53762151291E+02 0.45920514966E+02 0.38934876156E+02 0.32855616387E+02
 0.27681712698E+02 0.23360592094E+02 0.19799951535E+02 0.16889060087E+02 0.14519947926E+02
 0.12599932046E+02 0.11053655315E+02 0.98190009849E+01 0.88426613347E+01 0.80783931541E+01
 0.74875305704E+01 0.70397540620E+01 0.67126785027E+01 0.64903144529E+01 0.63615149535E+01
 0.63193776710E+01 0.63615149535E+01 0.64903144529E+01 0.67126785027E+01 0.70397540620E+01
 0.74875305704E+01 0.80783931541E+01 0.88426613347E+01 0.98190009849E+01 0.11053655315E+02
 0.12599932046E+02 0.14519947926E+02 0.16889060087E+02 0.19799951535E+02 0.23360592094E+02
 0.27681712698E+02 0.32855616387E+02 0.38934876156E+02 0.45920514966E+02 0.53762151291E+02
 0.62361925627E+02 0.71515253569E+02 0.80385383013E+02 0.87838030835E+02 0.93005385057E+02
 0.95485453899E+02 0.95447663623E+02 0.93607144080E+02 0.91047830751E+02 0.88921438066E+02
 0.93033005385E+02 0.93261321107E+02 0.93743637654E+02 0.93941744802E+02 0.93164950426E+02
 0.90800977441E+02 0.86518645297E+02 0.80385383013E+02 0.72876644293E+02 0.64785286620E+02
 0.56885501789E+02 0.49456293951E+02 0.42643519855E+02 0.36549055770E+02 0.31227451860E+02
 0.26681593494E+02 0.22866382603E+02 0.19703223696E+02 0.17100134735E+02 0.14968940546E+02
 0.13233901613E+02 0.11832029862E+02 0.10709538221E+02 0.98190009849E+01 0.91190160985E+01
 0.85753306079E+01 0.81615035443E+01 0.78581680495E+01 0.76514129009E+01 0.75314366607E+01
 0.74921461502E+01 0.75314366607E+01 0.76514129009E+01 0.78581680495E+01 0.81615035443E+01
 0.85753306079E+01 0.91190160985E+01 0.98190009849E+01 0.10709538221E+02 0.11832029862E+02
 0.13233901613E+02 0.14968940546E+02 0.17100134735E+02 0.19703223696E+02 0.22866382603E+02
 0.26681593494E+02 0.31227451860E+02 0.36549055770E+02 0.42643519855E+02 0.49456293951E+02
 0.56885501789E+02 0.64785286620E+02 0.72876644293E+02 0.80385383013E+02 0.86518645297E+02
 0.90800977441E+02 0.93164950426E+02 0.93941744802E+02 0.93743637654E+02 0.93261321107E+02
 0.90270033139E+02 0.90130610285E+02 0.89599373246E+02 0.88382329132E+02 0.86122501214E+02
 0.82548577346E+02 0.77603777604E+02 0.71515253569E+02 0.64785286620E+02 0.57977422253E+02
 0.51352708527E+02 0.45083913736E+02 0.39308672126E+02 0.34125081251E+02 0.29585215320E+02
 0.25692906734E+02 0.22410635612E+02 0.19674572090E+02 0.17411762397E+02 0.15552834696E+02
 0.14037219145E+02 0.12812515727E+02 0.11832029862E+02 0.11053655315E+02 0.10440712298E+02
 0.99633520247E+01 0.95989593395E+01 0.93311603469E+01 0.91482227967E+01 0.90418828161E+01
 0.90070227838E+01 0.90418828161E+01 0.91482227967E+01 0.93311603469E+01 0.95989593395E+01
 0.99633520247E+01 0.10440712298E+02 0.11053655315E+02 0.11832029862E+02 0.12812515727E+02
 0.14037219145E+02 0.15552834696E+02 0.17411762397E+02 0.19674572090E+02 0.22410635612E+02
 0.25692906734E+02 0.29585215320E+02 0.34125081251E+02 0.39308672126E+02 0.45083913736E+02
 0.51352708527E+02 0.57977422253E+02 0.64785286620E+02 0.71515253569E+02 0.77603777604E+02
 0.82548577346E+02 0.86122501214E+02 0.88382329132E+02 0.89599373246E+02 0.90130610285E+02
 0.81961353089E+02 0.81641426674E+02 0.80629763365E+02 0.78798510553E+02 0.76016607654E+02
 0.72240071143E+02 0.67586524868E+02 0.62361925627E+02 0.56885501789E+02 0.51352708527E+02
 0.45936236053E+02 0.40787480524E+02 0.36029673158E+02 0.31749890355E+02 0.27993196250E+02
 0.24763210254E+02 0.22030584288E+02 0.19746509459E+02 0.17855856636E+02 0.16305575737E+02
 0.15047417350E+02 0.14037219145E+02 0.13233901613E+02 0.12599932046E+02 0.12102939014E+02
 0.11717069800E+02 0.11423072012E+02 0.11207187901E+02 0.11059700845E+02 0.10973912298E+02
 0.10945772992E+02 0.10973912298E+02 0.11059700845E+02 0.11207187901E+02 0.11423072012E+02
 0.11717069800E+02 0.12102939014E+02 0.12599932046E+02 0.13233901613E+02 0.14037219145E+02
 0.15047417350E+02 0.16305575737E+02 0.17855856636E+02 0.19746509459E+02 0.22030584288E+02
 0.24763210254E+02 0.27993196250E+02 0.31749890355E+02 0.36029673158E+02 0.40787480524E+02
 0.45936236053E+02 0.51352708527E+02 0.56885501789E+02 0.62361925627E+02 0.67586524868E+02
 0.72240071143E+02 0.76016607654E+02 0.78798510553E+02 0.80629763365E+02 0.81641426674E+02
 0.70655852414E+02 0.70299255854E+02 0.69216280937E+02 0.67383545380E+02 0.64809149676E+02
 0.61581466479E+02 0.57852679361E+02 0.53762151291E+02 0.49456293951E+02 0.45083913736E+02
 0.40787480524E+02 0.36694468789E+02 0.32908418922E+02 0.29501216049E+02 0.26509457005E+02
 0.23937005944E+02 0.21763153207E+02 0.19953112388E+02 0.18466877832E+02 0.17264131617E+02
 0.16305575737E+02 0.15552834696E+02 0.14968940546E+02 0.14519947926E+02 0.14176851886E+02
 0.13916693958E+02 0.13722428962E+02 0.13581945795E+02 0.13486921381E+02 0.13431938491E+02
 0.13413940143E+02 0.13431938491E+02 0.13486921381E+02 0.13581945795E+02 0.13722428962E+02
 0.13916693958E+02 0.14176851886E+02 0.14519947926E+02 0.14968940546E+02 0.15552834696E+02
 0.16305575737E+02 0.17264131617E+02 0.18466877832E+02 0.19953112388E+02 0.21763153207E+02
 0.23937005944E+02 0.26509457005E+02 0.29501216049E+02 0.32908418922E+02 0.36694468789E+02
 0.40787480524E+02 0.45083913736E+02 0.49456293951E+02 0.53762151291E+02 0.57852679361E+02
 0.61581466479E+02 0.64809149676E+02 0.67383545380E+02 0.69216280937E+02 0.70299255854E+02
 0.58849269932E+02 0.58554493723E+02 0.57676454689E+02 0.56235586572E+02 0.54270074185E+02
 0.51839009078E+02 0.49022861653E+02 0.45920514966E+02 0.42643519855E+02 0.39308672126E+02
 0.36029673158E+02 0.32908418922E+02 0.30026928872E+02 0.27441656625E+02 0.25181933632E+02
 0.23253063751E+02 0.21642686119E+02 0.20327741977E+02 0.19279648603E+02 0.18466877832E+02
 0.17855856636E+02 0.17411762397E+02 0.17100134735E+02 0.16889060087E+02 0.16751036158E+02
 0.16663868362E+02 0.16610629409E+02 0.16579125853E+02 0.16561218425E+02 0.16552058155E+02
 0.16549238671E+02 0.16552058155E+02 0.16561218425E+02 0.16579125853E+02 0.16610629409E+02
 0.16663868362E+02 0.16751036158E+02 0.16889060087E+02 0.17100134735E+02 0.17411762397E+02
 0.17855856636E+02 0.18466877832E+02 0.19279648603E+02 0.20327741977E+02 0.21642686119E+02
 0.23253063751E+02 0.25181933632E+02 0.27441656625E+02 0.30026928872E+02 0.32908418922E+02
 0.36029673158E+02 0.39308672126E+02 0.42643519855E+02 0.45920514966E+02 0.49022861653E+02
 0.51839009078E+02 0.54270074185E+02 0.56235586572E+02 0.57676454689E+02 0.58554493723E+02
 0.48309053452E+02 0.48097089663E+02 0.47465017433E+02 0.46425650136E+02 0.45004060083E+02
 0.43240843438E+02 0.41193488105E+02 0.38934876156E+02 0.36549055770E+02 0.34125081251E+02
 0.31749890355E+02 0.29501216049E+02 0.27441656625E+02 0.25615076244E+02 0.24046090504E+02
 0.22742417870E+02 0.21698817089E+02 0.20900908769E+02 0.20327741977E+02 0.19953112388E+02
 0.19746509459E+02 0.19674572090E+02 0.19703223696E+02 0.19799951535E+02 0.19935578362E+02
 0.20085303526E+02 0.20229229433E+02 0.20352604426E+02 0.20445704081E+02 0.20503112849E+02
 0.20522453386E+02 0.20503112849E+02 0.20445704081E+02 0.20352604426E+02 0.20229229433E+02
 0.20085303526E+02 0.19935578362E+02 0.19799951535E+02 0.19703223696E+02 0.19674572090E+02
 0.19746509459E+02 0.19953112388E+02 0.20327741977E+02 0.20900908769E+02 0.21698817089E+02
 0.22742417870E+02 0.24046090504E+02 0.25615076244E+02 0.27441656625E+02 0.29501216049E+02
 0.31749890355E+02 0.34125081251E+02 0.36549055770E+02 0.38934876156E+02 0.41193488105E+02
 0.43240843438E+02 0.45004060083E+02 0.46425650136E+02 0.47465017433E+02 0.48097089663E+02
 0.39292299515E+02 0.39147177477E+02 0.38714028959E+02 0.38000723881E+02 0.37023735809E+02
 0.35811155243E+02 0.34404090902E+02 0.32855616387E+02 0.31227451860E+02 0.29585215320E+02
 0.27993196250E+02 0.26509457005E+02 0.25181933632E+02 0.24046090504E+02 0.23124386630E+02
 0.22427273331E+02 0.21954926192E+02 0.21698817089E+02 0.21642686119E+02 0.21763153207E+02
 0.22030584288E+02 0.22410635612E+02 0.22866382603E+02 0.23360592094E+02 0.23857782422E+02
 0.24326028995E+02 0.24738587794E+02 0.25075160241E+02 0.25322311920E+02 0.25472655378E+02
 0.25523033249E+02 0.25472655378E+02 0.25322311920E+02 0.25075160241E+02 0.24738587794E+02
 0.24326028995E+02 0.23857782422E+02 0.23360592094E+02 0.22866382603E+02 0.22410635612E+02
 0.22030584288E+02 0.21763153207E+02 0.21642686119E+02 0.21698817089E+02 0.21954926192E+02
 0.22427273331E+02 0.23124386630E+02 0.24046090504E+02 0.25181933632E+02 0.26509457005E+02
 0.27993196250E+02 0.29585215320E+02 0.31227451860E+02 0.32855616387E+02 0.34404090902E+02
 0.35811155243E+02 0.37023735809E+02 0.38000723881E+02 0.38714028959E+02 0.39147177477E+02
 0.31731233480E+02 0.31639385734E+02 0.31365128251E+02 0.30913342210E+02 0.30294960208E+02
 0.29529415530E+02 0.28645731456E+02 0.27681712698E+02 0.26681593494E+02 0.25692906734E+02
 0.24763210254E+02 0.23937005944E+02 0.23253063751E+02 0.22742417870E+02 0.22427273331E+02
 0.22320781532E+02 0.22427273331E+02 0.22742417870E+02 0.23253063751E+02 0.23937005944E+02
 0.24763210254E+02 0.25692906734E+02 0.26681593494E+02 0.27681712698E+02 0.28645731456E+02
 0.29529415530E+02 0.30294960208E+02 0.30913342210E+02 0.31365128251E+02 0.31639385734E+02
 0.31731233480E+02 0.31639385734E+02 0.31365128251E+02 0.30913342210E+02 0.30294960208E+02
 0.29529415530E+02 0.28645731456E+02 0.27681712698E+02 0.26681593494E+02 0.25692906734E+02
 0.24763210254E+02 0.23937005944E+02 0.23253063751E+02 0.22742417870E+02 0.22427273331E+02
 0.22320781532E+02 0.22427273331E+02 0.22742417870E+02 0.23253063751E+02 0.23937005944E+02
 0.24763210254E+02 0.25692906734E+02 0.26681593494E+02 0.27681712698E+02 0.28645731456E+02
 0.29529415530E+02 0.30294960208E+02 0.30913342210E+02 0.31365128251E+02 0.31639385734E+02
 0.25523033249E+02 0.25472655378E+02 0.25322311920E+02 0.25075160241E+02 0.24738587794E+02
 0.24326028995E+02 0.23857782422E+02 0.23360592094E+02 0.22866382603E+02 0.22410635612E+02
 0.22030584288E+02 0.21763153207E+02 0.21642686119E+02 0.21698817089E+02 0.21954926192E+02
 0.22427273331E+02 0.23124386630E+02 0.24046090504E+02 0.25181933632E+02 0.26509457005E+02
 0.27993196250E+02 0.29585215320E+02 0.31227451860E+02 0.32855616387E+02 0.34404090902E+02
 0.35811155243E+02 0.37023735809E+02 0.38000723881E+02 0.38714028959E+02 0.39147177477E+02
 0.39292299515E+02 0.39147177477E+02 0.38714028959E+02 0.38000723881E+02 0.37023735809E+02
 0.35811155243E+02 0.34404090902E+02 0.32855616387E+02 0.31227451860E+02 0.29585215320E+02
 0.27993196250E+02 0.26509457005E+02 0.25181933632E+02 0.24046090504E+02 0.23124386630E+02
 0.22427273331E+02 0.21954926192E+02 0.21698817089E+02 0.21642686119E+02 0.21763153207E+02
 0.22030584288E+02 0.22410635612E+02 0.22866382603E+02 0.23360592094E+02 0.23857782422E+02
 0.24326028995E+02 0.24738587794E+02 0.25075160241E+02 0.25322311920E+02 0.25472655378E+02
 0.20522453386E+02 0.20503112849E+02 0.20445704081E+02 0.20352604426E+02 0.20229229433E+02
 0.20085303526E+02 0.19935578362E+02 0.19799951535E+02 0.19703223696E+02 0.19674572090E+02
 0.19746509459E+02 0.19953112388E+02 0.20327741977E+02 0.20900908769E+02 0.21698817089E+02
 0.22742417870E+02 0.24046090504E+02 0.25615076244E+02 0.27441656625E+02 0.29501216049E+02
 0.31749890355E+02 0.34125081251E+02 0.36549055770E+02 0.38934876156E+02 0.41193488105E+02
 0.43240843438E+02 0.45004060083E+02 0.46425650136E+02 0.47465017433E+02 0.48097089663E+02
 0.48309053452E+02 0.48097089663E+02 0.47465017433E+02 0.46425650136E+02 0.45004060083E+02
 0.43240843438E+02 0.41193488105E+02 0.38934876156E+02 0.36549055770E+02 0.34125081251E+02
 0.31749890355E+02 0.29501216049E+02 0.27441656625E+02 0.25615076244E+02 0.24046090504E+02
 0.22742417870E+02 0.21698817089E+02 0.20900908769E+02 0.20327741977E+02 0.19953112388E+02
 0.19746509459E+02 0.19674572090E+02 0.19703223696E+02 0.19799951535E+02 0.19935578362E+02
 0.20085303526E+02 0.20229229433E+02 0.20352604426E+02 0.20445704081E+02 0.20503112849E+02
 0.16549238671E+02 0.16552058155E+02 0.16561218425E+02 0.16579125853E+02 0.16610629409E+02
 0.16663868362E+02 0.16751036158E+02 0.16889060087E+02 0.17100134735E+02 0.17411762397E+02
 0.17855856636E+02 0.18466877832E+02 0.19279648603E+02 0.20327741977E+02 0.21642686119E+02
 0.23253063751E+02 0.25181933632E+02 0.27441656625E+02 0.30026928872E+02 0.32908418922E+02
 0.36029673158E+02 0.39308672126E+02 0.42643519855E+02 0.45920514966E+02 0.49022861653E+02
 0.51839009078E+02 0.54270074185E+02 0.56235586572E+02 0.57676454689E+02 0.58554493723E+02
 0.58849269932E+02 0.58554493723E+02 0.57676454689E+02 0.56235586572E+02 0.54270074185E+02
 0.51839009078E+02 0.49022861653E+02 0.45920514966E+02 0.42643519855E+02 0.39308672126E+02
 0.36029673158E+02 0.32908418922E+02 0.30026928872E+02 0.27441656625E+02 0.25181933632E+02
 0.23253063751E+02 0.21642686119E+02 0.20327741977E+02 0.19279648603E+02 0.18466877832E+02
 0.17855856636E+02 0.17411762397E+02 0.17100134735E+02 0.16889060087E+02 0.16751036158E+02
 0.16663868362E+02 0.16610629409E+02 0.16579125853E+02 0.16561218425E+02 0.16552058155E+02
 0.13413940143E+02 0.13431938491E+02 0.13486921381E+02 0.13581945795E+02 0.13722428962E+02
 0.13916693958E+02 0.14176851886E+02 0.14519947926E+02 0.14968940546E+02 0.15552834696E+02
 0.16305575737E+02 0.17264131617E+02 0.18466877832E+02 0.19953112388E+02 0.21763153207E+02
 0.23937005944E+02 0.26509457005E+02 0.29501216049E+02 0.32908418922E+02 0.36694468789E+02
 0.40787480524E+02 0.45083913736E+02 0.49456293951E+02 0.53762151291E+02 0.57852679361E+02
 0.61581466479E+02 0.64809149676E+02 0.67383545380E+02 0.69216280937E+02 0.70299255854E+02
 0.70655852414E+02 0.70299255854E+02 0.69216280937E+02 0.67383545380E+02 0.64809149676E+02
 0.61581466479E+02 0.57852679361E+02 0.53762151291E+02 0.49456293951E+02 0.45083913736E+02
 0.40787480524E+02 0.36694468789E+02 0.32908418922E+02 0.29501216049E+02 0.26509457005E+02
 0.23937005944E+02 0.21763153207E+02 0.19953112388E+02 0.18466877832E+02 0.17264131617E+02
 0.16305575737E+02 0.15552834696E+02 0.14968940546E+02 0.14519947926E+02 0.14176851886E+02
 0.13916693958E+02 0.13722428962E+02 0.13581945795E+02 0.13486921381E+02 0.13431938491E+02
 0.10945772992E+02 0.10973912298E+02 0.11059700845E+02 0.11207187901E+02 0.11423072012E+02
 0.11717069800E+02 0.12102939014E+02 0.12599932046E+02 0.13233901613E+02 0.14037219145E+02
 0.15047417350E+02 0.16305575737E+02 0.17855856636E+02 0.19746509459E+02 0.22030584288E+02
 0.24763210254E+02 0.27993196250E+02 0.31749890355E+02 0.36029673158E+02 0.40787480524E+02
 0.45936236053E+02 0.51352708527E+02 0.56885501789E+02 0.62361925627E+02 0.67586524868E+02
 0.72240071143E+02 0.76016607654E+02 0.78798510553E+02 0.80629763365E+02 0.81641426674E+02
 0.81961353089E+02 0.81641426674E+02 0.80629763365E+02 0.78798510553E+02 0.76016607654E+02
 0.72240071143E+02 0.67586524868E+02 0.62361925627E+02 0.56885501789E+02 0.51352708527E+02
 0.45936236053E+02 0.40787480524E+02 0.36029673158E+02 0.31749890355E+02 0.27993196250E+02
 0.24763210254E+02 0.22030584288E+02 0.19746509459E+02 0.17855856636E+02 0.16305575737E+02
 0.15047417350E+02 0.14037219145E+02 0.13233901613E+02 0.12599932046E+02 0.12102939014E+02
 0.11717069800E+02 0.11423072012E+02 0.11207187901E+02 0.11059700845E+02 0.10973912298E+02
 0.90070227838E+01 0.90418828161E+01 0.91482227967E+01 0.93311603469E+01 0.95989593395E+01
 0.99633520247E+01 0.10440712298E+02 0.11053655315E+02 0.11832029862E+02 0.12812515727E+02
 0.14037219145E+02 0.15552834696E+02 0.17411762397E+02 0.19674572090E+02 0.22410635612E+02
 0.25692906734E+02 0.29585215320E+02 0.34125081251E+02 0.39308672126E+02 0.45083913736E+02
 0.51352708527E+02 0.57977422253E+02 0.64785286620E+02 0.71515253569E+02 0.77603777604E+02
 0.82548577346E+02 0.86122501214E+02 0.88382329132E+02 0.89599373246E+02 0.90130610285E+02
 0.90270033139E+02 0.90130610285E+02 0.89599373246E+02 0.88382329132E+02 0.86122501214E+02
 0.82548577346E+02 0.77603777604E+02 0.71515253569E+02 0.64785286620E+02 0.57977422253E+02
 0.51352708527E+02 0.45083913736E+02 0.39308672126E+02 0.34125081251E+02 0.29585215320E+02
 0.25692906734E+02 0.22410635612E+02 0.19674572090E+02 0.17411762397E+02 0.15552834696E+02
 0.14037219145E+02 0.12812515727E+02 0.11832029862E+02 0.11053655315E+02 0.10440712298E+02
 0.99633520247E+01 0.95989593395E+01 0.93311603469E+01 0.91482227967E+01 0.90418828161E+01
 0.74921461502E+01 0.75314366607E+01 0.76514129009E+01 0.78581680495E+01 0.81615035443E+01
 0.85753306079E+01 0.91190160985E+01 0.98190009849E+01 0.10709538221E+02 0.11832029862E+02
 0.13233901613E+02 0.14968940546E+02 0.17100134735E+02 0.19703223696E+02 0.22866382603E+02
 0.26681593494E+02 0.31227451860E+02 0.36549055770E+02 0.42643519855E+02 0.49456293951E+02
 0.56885501789E+02 0.64785286620E+02 0.72876644293E+02 0.80385383013E+02 0.86518645297E+02
 0.90800977441E+02 0.93164950426E+02 0.93941744802E+02 0.93743637654E+02 0.93261321107E+02
 0.93033005385E+02 0.93261321107E+02 0.93743637654E+02 0.93941744802E+02 0.93164950426E+02
 0.90800977441E+02 0.86518645297E+02 0.80385383013E+02 0.72876644293E+02 0.64785286620E+02
 0.56885501789E+02 0.49456293951E+02 0.42643519855E+02 0.36549055770E+02 0.31227451860E+02
 0.26681593494E+02 0.22866382603E+02 0.19703223696E+02 0.17100134735E+02 0.14968940546E+02
 0.13233901613E+02 0.11832029862E+02 0.10709538221E+02 0.98190009849E+01 0.91190160985E+01
 0.85753306079E+01 0.81615035443E+01 0.78581680495E+01 0.76514129009E+01 0.75314366607E+01
 0.63193776710E+01 0.63615149535E+01 0.64903144529E+01 0.67126785027E+01 0.70397540620E+01
 0.74875305704E+01 0.80783931541E+01 0.88426613347E+01 0.98190009849E+01 0.11053655315E+02
 0.12599932046E+02 0.14519947926E+02 0.16889060087E+02 0.19799951535E+02 0.23360592094E+02
 0.27681712698E+02 0.32855616387E+02 0.38934876156E+02 0.45920514966E+02 0.53762151291E+02
 0.62361925627E+02 0.71515253569E+02 0.80385383013E+02 0.87838030835E+02 0.93005385057E+02
 0.95485453899E+02 0.95447663623E+02 0.93607144080E+02 0.91047830751E+02 0.88921438066E+02
 0.88103762602E+02 0.88921438066E+02 0.91047830751E+02 0.93607144080E+02 0.95447663623E+02
 0.95485453899E+02 0.93005385057E+02 0.87838030835E+02 0.80385383013E+02 0.71515253569E+02
 0.62361925627E+02 0.53762151291E+02 0.45920514966E+02 0.38934876156E+02 0.32855616387E+02
 0.27681712698E+02 0.23360592094E+02 0.19799951535E+02 0.16889060087E+02 0.14519947926E+02
 0.12599932046E+02 0.11053655315E+02 0.98190009849E+01 0.88426613347E+01 0.80783931541E+01
 0.74875305704E+01 0.70397540620E+01 0.67126785027E+01 0.64903144529E+01 0.63615149535E+01
 0.54224865711E+01 0.54663339273E+01 0.56004849891E+01 0.58324745312E+01 0.61745584658E+01
 0.66446036557E+01 0.72678721821E+01 0.80783931541E+01 0.91190160985E+01 0.10440712298E+02
 0.12102939014E+02 0.14176851886E+02 0.16751036158E+02 0.19935578362E+02 0.23857782422E+02
 0.28645731456E+02 0.34404090902E+02 0.41193488105E+02 0.49022861653E+02 0.57852679361E+02
 0.67586524868E+02 0.77603777604E+02 0.86518645297E+02 0.93005385057E+02 0.96136031801E+02
 0.95618668086E+02 0.91931339438E+02 0.86283948988E+02 0.80369274663E+02 0.75935360442E+02
 0.74294999973E+02 0.75935360442E+02 0.80369274663E+02 0.86283948988E+02 0.91931339438E+02
 0.95618668086E+02 0.96136031801E+02 0.93005385057E+02 0.86518645297E+02 0.77603777604E+02
 0.67586524868E+02 0.57852679361E+02 0.49022861653E+02 0.41193488105E+02 0.34404090902E+02
 0.28645731456E+02 0.23857782422E+02 0.19935578362E+02 0.16751036158E+02 0.14176851886E+02
 0.12102939014E+02 0.10440712298E+02 0.91190160985E+01 0.80783931541E+01 0.72678721821E+01
 0.66446036557E+01 0.61745584658E+01 0.58324745312E+01 0.56004849891E+01 0.54663339273E+01
 0.47461617500E+01 0.47909181498E+01 0.49279657348E+01 0.51653224722E+01 0.55161412931E+01
 0.59999394063E+01 0.66446036557E+01 0.74875305704E+01 0.85753306079E+01 0.99633520247E+01
 0.11717069800E+02 0.13916693958E+02 0.16663868362E+02 0.20085303526E+02 0.24326028995E+02
 0.29529415530E+02 0.35811155243E+02 0.43240843438E+02 0.51839009078E+02 0.61581466479E+02
 0.72240071143E+02 0.82548577346E+02 0.90800977441E+02 0.95485453899E+02 0.95618668086E+02
 0.91042728324E+02 0.82602291679E+02 0.72098007974E+02 0.61952172933E+02 0.54627476046E+02
 0.51959583731E+02 0.54627476046E+02 0.61952172933E+02 0.72098007974E+02 0.82602291679E+02
 0.91042728324E+02 0.95618668086E+02 0.95485453899E+02 0.90800977441E+02 0.82548577346E+02
 0.72240071143E+02 0.61581466479E+02 0.51839009078E+02 0.43240843438E+02 0.35811155243E+02
 0.29529415530E+02 0.24326028995E+02 0.20085303526E+02 0.16663868362E+02 0.13916693958E+02
 0.11717069800E+02 0.99633520247E+01 0.85753306079E+01 0.74875305704E+01 0.66446036557E+01
 0.59999394063E+01 0.55161412931E+01 0.51653224722E+01 0.49279657348E+01 0.47909181498E+01
 0.42452361524E+01 0.42903954796E+01 0.44287797550E+01 0.46687756744E+01 0.50242581468E+01
 0.55161412931E+01 0.61745584658E+01 0.70397540620E+01 0.81615035443E+01 0.95989593395E+01
 0.11423072012E+02 0.13722428962E+02 0.16610629409E+02 0.20229229433E+02 0.24738587794E+02
 0.30294960208E+02 0.37023735809E+02 0.45004060083E+02 0.54270074185E+02 0.64809149676E+02
 0.76016607654E+02 0.86122501214E+02 0.93164950426E+02 0.95447663623E+02 0.91931339438E+02
 0.82602291679E+02 0.68704426867E+02 0.52686167238E+02 0.37770067653E+02 0.27200090618E+02
 0.23381043860E+02 0.27200090618E+02 0.37770067653E+02 0.52686167238E+02 0.68704426867E+02
 0.82602291679E+02 0.91931339438E+02 0.95447663623E+02 0.93164950426E+02 0.86122501214E+02
 0.76016607654E+02 0.64809149676E+02 0.54270074185E+02 0.45004060083E+02 0.37023735809E+02
 0.30294960208E+02 0.24738587794E+02 0.20229229433E+02 0.16610629409E+02 0.13722428962E+02
 0.11423072012E+02 0.95989593395E+01 0.81615035443E+01 0.70397540620E+01 0.61745584658E+01
 0.55161412931E+01 0.50242581468E+01 0.46687756744E+01 0.44287797550E+01 0.42903954796E+01