   8   8   0   0
  0.1893321E+02  0.5330542E-09  0.5330542E-09  0.5330542E-09  0.5000000E-15
  1.000000000000000E-004
  CAR 
 GaAs                                    
     10.76627729    -10.76456788  301      4.38103602      1.00000000
    -10.765  0.0000E+00  0.0000E+00
    -10.693  0.0000E+00  0.0000E+00
    -10.621  0.0000E+00  0.0000E+00
    -10.549  0.0000E+00  0.0000E+00
    -10.477  0.0000E+00  0.0000E+00
    -10.406  0.0000E+00  0.0000E+00
    -10.334  0.0000E+00  0.0000E+00
    -10.262  0.0000E+00  0.0000E+00
    -10.190  0.0000E+00  0.0000E+00
    -10.119  0.0000E+00  0.0000E+00
    -10.047  0.0000E+00  0.0000E+00
     -9.975  0.0000E+00  0.0000E+00
     -9.903  0.0000E+00  0.0000E+00
     -9.832  0.0000E+00  0.0000E+00
     -9.760  0.2642E-03  0.4203E-06
     -9.688  0.6795E-01  0.1734E-02
     -9.616  0.2551E+00  0.1261E-01
     -9.544  0.5244E+00  0.4072E-01
     -9.473  0.6957E+00  0.8523E-01
     -9.401  0.7464E+00  0.1377E+00
     -9.329  0.7790E+00  0.1921E+00
     -9.257  0.8581E+00  0.2506E+00
     -9.186  0.9712E+00  0.3162E+00
     -9.114  0.1092E+01  0.3902E+00
     -9.042  0.1372E+01  0.4747E+00
     -8.970  0.1911E+01  0.5934E+00
     -8.899  0.2309E+01  0.7456E+00
     -8.827  0.1970E+01  0.8988E+00
     -8.755  0.1690E+01  0.1030E+01
     -8.683  0.1652E+01  0.1149E+01
     -8.611  0.1629E+01  0.1267E+01
     -8.540  0.1590E+01  0.1382E+01
     -8.468  0.1536E+01  0.1495E+01
     -8.396  0.1999E+01  0.1624E+01
     -8.324  0.1506E+01  0.1750E+01
     -8.253  0.8438E+00  0.1826E+01
     -8.181  0.1294E+01  0.1897E+01
     -8.109  0.2053E+01  0.2016E+01
     -8.037  0.2435E+01  0.2183E+01
     -7.966  0.2555E+01  0.2362E+01
     -7.894  0.2782E+01  0.2553E+01
     -7.822  0.2805E+01  0.2745E+01
     -7.750  0.3006E+01  0.2954E+01
     -7.678  0.5977E+01  0.3295E+01
     -7.607  0.5142E+01  0.3705E+01
     -7.535  0.3375E+01  0.4052E+01
     -7.463  0.2879E+01  0.4253E+01
     -7.391  0.3088E+01  0.4467E+01
     -7.320  0.3332E+01  0.4697E+01
     -7.248  0.4869E+01  0.4977E+01
     -7.176  0.5506E+01  0.5379E+01
     -7.104  0.5548E+01  0.5767E+01
     -7.033  0.6154E+01  0.6190E+01
     -6.961  0.5601E+01  0.6618E+01
     -6.889  0.4144E+01  0.6940E+01
     -6.817  0.3860E+01  0.7227E+01
     -6.745  0.3589E+01  0.7494E+01
     -6.674  0.3222E+01  0.7744E+01
     -6.602  0.1712E+01  0.7987E+01
     -6.530  0.0000E+00  0.8000E+01
     -6.458  0.0000E+00  0.8000E+01
     -6.387  0.0000E+00  0.8000E+01
     -6.315  0.0000E+00  0.8000E+01
     -6.243  0.0000E+00  0.8000E+01
     -6.171  0.0000E+00  0.8000E+01
     -6.100  0.0000E+00  0.8000E+01
     -6.028  0.0000E+00  0.8000E+01
     -5.956  0.0000E+00  0.8000E+01
     -5.884  0.0000E+00  0.8000E+01
     -5.812  0.0000E+00  0.8000E+01
     -5.741  0.0000E+00  0.8000E+01
     -5.669  0.0000E+00  0.8000E+01
     -5.597  0.0000E+00  0.8000E+01
     -5.525  0.0000E+00  0.8000E+01
     -5.454  0.0000E+00  0.8000E+01
     -5.382  0.0000E+00  0.8000E+01
     -5.310  0.0000E+00  0.8000E+01
     -5.238  0.0000E+00  0.8000E+01
     -5.167  0.0000E+00  0.8000E+01
     -5.095  0.0000E+00  0.8000E+01
     -5.023  0.0000E+00  0.8000E+01
     -4.951  0.0000E+00  0.8000E+01
     -4.879  0.0000E+00  0.8000E+01
     -4.808  0.0000E+00  0.8000E+01
     -4.736  0.0000E+00  0.8000E+01
     -4.664  0.0000E+00  0.8000E+01
     -4.592  0.0000E+00  0.8000E+01
     -4.521  0.0000E+00  0.8000E+01
     -4.449  0.0000E+00  0.8000E+01
     -4.377  0.0000E+00  0.8000E+01
     -4.305  0.0000E+00  0.8000E+01
     -4.234  0.0000E+00  0.8000E+01
     -4.162  0.0000E+00  0.8000E+01
     -4.090  0.0000E+00  0.8000E+01
     -4.018  0.0000E+00  0.8000E+01
     -3.946  0.0000E+00  0.8000E+01
     -3.875  0.0000E+00  0.8000E+01
     -3.803  0.0000E+00  0.8000E+01
     -3.731  0.0000E+00  0.8000E+01
     -3.659  0.0000E+00  0.8000E+01
     -3.588  0.0000E+00  0.8000E+01
     -3.516  0.0000E+00  0.8000E+01
     -3.444  0.0000E+00  0.8000E+01
     -3.372  0.0000E+00  0.8000E+01
     -3.301  0.1162E+00  0.8001E+01
     -3.229  0.9885E+00  0.8037E+01
     -3.157  0.2952E+01  0.8195E+01
     -3.085  0.3796E+01  0.8411E+01
     -3.013  0.6843E+01  0.8784E+01
     -2.942  0.1290E+02  0.9509E+01
     -2.870  0.6777E+01  0.1008E+02
     -2.798  0.6829E+01  0.1057E+02
     -2.726  0.6943E+01  0.1106E+02
     -2.655  0.5333E+01  0.1150E+02
     -2.583  0.3993E+01  0.1182E+02
     -2.511  0.3072E+01  0.1208E+02
     -2.439  0.2253E+01  0.1225E+02
     -2.368  0.2195E+01  0.1241E+02
     -2.296  0.2141E+01  0.1257E+02
     -2.224  0.2089E+01  0.1272E+02
     -2.152  0.2041E+01  0.1287E+02
     -2.080  0.1996E+01  0.1301E+02
     -2.009  0.1954E+01  0.1315E+02
     -1.937  0.1915E+01  0.1329E+02
     -1.865  0.1578E+01  0.1341E+02
     -1.793  0.1556E+01  0.1353E+02
     -1.722  0.1531E+01  0.1364E+02
     -1.650  0.1499E+01  0.1374E+02
     -1.578  0.1460E+01  0.1385E+02
     -1.506  0.1418E+01  0.1395E+02
     -1.435  0.1374E+01  0.1405E+02
     -1.363  0.1328E+01  0.1415E+02
     -1.291  0.1280E+01  0.1425E+02
     -1.219  0.1229E+01  0.1434E+02
     -1.147  0.1244E+01  0.1442E+02
     -1.076  0.1170E+01  0.1451E+02
     -1.004  0.1109E+01  0.1459E+02
     -0.932  0.1061E+01  0.1467E+02
     -0.860  0.9124E+00  0.1474E+02
     -0.789  0.9718E+00  0.1481E+02
     -0.717  0.1121E+01  0.1489E+02
     -0.645  0.1299E+01  0.1497E+02
     -0.573  0.1506E+01  0.1507E+02
     -0.502  0.2247E+01  0.1524E+02
     -0.430  0.1650E+01  0.1535E+02
     -0.358  0.1771E+01  0.1547E+02
     -0.286  0.1963E+01  0.1561E+02
     -0.214  0.2161E+01  0.1576E+02
     -0.143  0.3671E+01  0.1594E+02
     -0.071  0.3924E+01  0.1621E+02
      0.001  0.3187E+01  0.1649E+02
      0.073  0.3897E+01  0.1674E+02
      0.144  0.4989E+01  0.1706E+02
      0.216  0.6130E+01  0.1746E+02
      0.288  0.5981E+01  0.1789E+02
      0.360  0.4603E+01  0.1826E+02
      0.431  0.4226E+01  0.1858E+02
      0.503  0.3744E+01  0.1886E+02
      0.575  0.3545E+01  0.1912E+02
      0.647  0.4425E+01  0.1940E+02
      0.719  0.3077E+01  0.1967E+02
      0.790  0.3210E+01  0.1989E+02
      0.862  0.3407E+01  0.2013E+02
      0.934  0.3596E+01  0.2038E+02
      1.006  0.3967E+01  0.2065E+02
      1.077  0.5344E+01  0.2096E+02
      1.149  0.7836E+01  0.2144E+02
      1.221  0.6301E+01  0.2196E+02
      1.293  0.7369E+01  0.2244E+02
      1.364  0.6433E+01  0.2295E+02
      1.436  0.5522E+01  0.2338E+02
      1.508  0.4640E+01  0.2374E+02
      1.580  0.3675E+01  0.2403E+02
      1.652  0.3324E+01  0.2428E+02
      1.723  0.3215E+01  0.2452E+02
      1.795  0.3422E+01  0.2475E+02
      1.867  0.4296E+01  0.2503E+02
      1.939  0.5049E+01  0.2536E+02
      2.010  0.5267E+01  0.2576E+02
      2.082  0.5223E+01  0.2614E+02
      2.154  0.4743E+01  0.2648E+02
      2.226  0.4916E+01  0.2682E+02
      2.297  0.5737E+01  0.2722E+02
      2.369  0.6634E+01  0.2771E+02
      2.441  0.4622E+01  0.2811E+02
      2.513  0.4129E+01  0.2843E+02
      2.585  0.3642E+01  0.2871E+02
      2.656  0.3161E+01  0.2895E+02
      2.728  0.2808E+01  0.2917E+02
      2.800  0.1983E+01  0.2931E+02
      2.872  0.1843E+01  0.2945E+02
      2.943  0.2307E+01  0.2959E+02
      3.015  0.3012E+01  0.2978E+02
      3.087  0.4257E+01  0.3007E+02
      3.159  0.4286E+01  0.3036E+02
      3.230  0.4664E+01  0.3068E+02
      3.302  0.4794E+01  0.3101E+02
      3.374  0.2881E+01  0.3129E+02
      3.446  0.1406E+01  0.3141E+02
      3.518  0.1241E+01  0.3150E+02
      3.589  0.1081E+01  0.3158E+02
      3.661  0.9282E+00  0.3166E+02
      3.733  0.7839E+00  0.3172E+02
      3.805  0.8032E+00  0.3177E+02
      3.876  0.8092E+00  0.3183E+02
      3.948  0.7431E+00  0.3189E+02
      4.020  0.6050E+00  0.3194E+02
      4.092  0.3948E+00  0.3197E+02
      4.163  0.1199E+00  0.3199E+02
      4.235  0.5151E-01  0.3200E+02
      4.307  0.1159E-01  0.3200E+02
      4.379  0.0000E+00  0.3200E+02
      4.451  0.0000E+00  0.3200E+02
      4.522  0.0000E+00  0.3200E+02
      4.594  0.0000E+00  0.3200E+02
      4.666  0.0000E+00  0.3200E+02
      4.738  0.0000E+00  0.3200E+02
      4.809  0.0000E+00  0.3200E+02
      4.881  0.0000E+00  0.3200E+02
      4.953  0.0000E+00  0.3200E+02
      5.025  0.0000E+00  0.3200E+02
      5.096  0.0000E+00  0.3200E+02
      5.168  0.0000E+00  0.3200E+02
      5.240  0.0000E+00  0.3200E+02
      5.312  0.0000E+00  0.3200E+02
      5.384  0.0000E+00  0.3200E+02
      5.455  0.1916E-01  0.3200E+02
      5.527  0.2176E+00  0.3201E+02
      5.599  0.2738E+00  0.3203E+02
      5.671  0.3427E+00  0.3205E+02
      5.742  0.4241E+00  0.3208E+02
      5.814  0.5183E+00  0.3211E+02
      5.886  0.6290E+00  0.3215E+02
      5.958  0.7271E+00  0.3220E+02
      6.029  0.7871E+00  0.3226E+02
      6.101  0.1227E+01  0.3234E+02
      6.173  0.1177E+01  0.3242E+02
      6.245  0.1483E+01  0.3251E+02
      6.317  0.2193E+01  0.3264E+02
      6.388  0.3623E+01  0.3286E+02
      6.460  0.2620E+01  0.3307E+02
      6.532  0.2842E+01  0.3327E+02
      6.604  0.3085E+01  0.3348E+02
      6.675  0.3397E+01  0.3371E+02
      6.747  0.3716E+01  0.3397E+02
      6.819  0.7789E+01  0.3435E+02
      6.891  0.8317E+01  0.3499E+02
      6.962  0.7416E+01  0.3558E+02
      7.034  0.4903E+01  0.3600E+02
      7.106  0.5838E+01  0.3640E+02
      7.178  0.6997E+01  0.3683E+02
      7.250  0.4018E+01  0.3717E+02
      7.321  0.4033E+01  0.3746E+02
      7.393  0.5245E+01  0.3775E+02
      7.465  0.6173E+01  0.3817E+02
      7.537  0.6656E+01  0.3863E+02
      7.608  0.5239E+01  0.3906E+02
      7.680  0.3884E+01  0.3938E+02
      7.752  0.3672E+01  0.3965E+02
      7.824  0.3462E+01  0.3990E+02
      7.895  0.3405E+01  0.4015E+02
      7.967  0.3345E+01  0.4039E+02
      8.039  0.3397E+01  0.4063E+02
      8.111  0.2826E+01  0.4085E+02
      8.183  0.2355E+01  0.4104E+02
      8.254  0.1905E+01  0.4118E+02
      8.326  0.1913E+01  0.4132E+02
      8.398  0.3909E+01  0.4156E+02
      8.470  0.4712E+01  0.4186E+02
      8.541  0.4786E+01  0.4218E+02
      8.613  0.1044E+02  0.4276E+02
      8.685  0.7556E+01  0.4336E+02
      8.757  0.5862E+01  0.4388E+02
      8.829  0.4743E+01  0.4424E+02
      8.900  0.4402E+01  0.4457E+02
      8.972  0.4100E+01  0.4487E+02
      9.044  0.3749E+01  0.4515E+02
      9.116  0.2747E+01  0.4536E+02
      9.187  0.4670E+01  0.4566E+02
      9.259  0.5471E+01  0.4602E+02
      9.331  0.4870E+01  0.4638E+02
      9.403  0.4763E+01  0.4673E+02
      9.474  0.4525E+01  0.4706E+02
      9.546  0.4158E+01  0.4737E+02
      9.618  0.2618E+01  0.4763E+02
      9.690  0.3336E+01  0.4784E+02
      9.762  0.3684E+00  0.4800E+02
      9.833  0.0000E+00  0.4800E+02
      9.905  0.0000E+00  0.4800E+02
      9.977  0.0000E+00  0.4800E+02
     10.049  0.0000E+00  0.4800E+02
     10.120  0.0000E+00  0.4800E+02
     10.192  0.0000E+00  0.4800E+02
     10.264  0.0000E+00  0.4800E+02
     10.336  0.0000E+00  0.4800E+02
     10.407  0.0000E+00  0.4800E+02
     10.479  0.0000E+00  0.4800E+02
     10.551  0.0000E+00  0.4800E+02
     10.623  0.0000E+00  0.4800E+02
     10.695  0.0000E+00  0.4800E+02
     10.766  0.0000E+00  0.4800E+02
