       N       E                     dE             d eps       ncg     rms          rms(c)
DAV:   1    -0.306368535584E+02   -0.30637E+02   -0.29570E-05   240   0.304E-02    0.801E-03
DAV:   2    -0.306368534377E+02    0.12075E-06   -0.17030E-06   240   0.695E-03
   1 F= -.30636853E+02 E0= -.30636853E+02  d E =0.000000E+00
 imaginary and real dielectric function
