<?xml version="1.0" encoding="ISO-8859-1"?>
<modeling>
 <generator>
  <i name="program" type="string">vasp </i>
  <i name="version" type="string">6.4.3  </i>
  <i name="subversion" type="string">19Mar24 (build Aug 29 2024 15:27:20) complex                          parallel </i>
  <i name="platform" type="string">LinuxIFC </i>
  <i name="date" type="string">2025 03 19 </i>
  <i name="time" type="string">11:11:05 </i>
 </generator>
 <incar>
  <i type="string" name="SYSTEM">GaAs</i>
  <i type="string" name="PREC">Normal</i>
  <i type="int" name="IBRION">     2</i>
  <i name="ENCUT">    500.00000000</i>
  <i type="int" name="ISMEAR">    -5</i>
  <i name="SIGMA">      0.10000000</i>
  <i type="logical" name="LOPTICS"> T  </i>
 </incar>
 <primitive_cell>
  <structure name="primitive_cell" >
   <crystal>
    <varray name="basis" >
     <v>       2.66527115      -2.66527115       0.00000000 </v>
     <v>       2.66527115       0.00000000       2.66527115 </v>
     <v>       0.00000000      -2.66527115       2.66527115 </v>
    </varray>
    <i name="volume">     37.86641486 </i>
    <varray name="rec_basis" >
     <v>       0.18759817      -0.18759817      -0.18759817 </v>
     <v>       0.18759817       0.18759817       0.18759817 </v>
     <v>      -0.18759817      -0.18759817       0.18759817 </v>
    </varray>
   </crystal>
   <varray name="positions" >
    <v>       0.00000000       0.00000000       0.00000000 </v>
    <v>       0.75000000       0.75000000       0.75000000 </v>
   </varray>
  </structure>
  <varray name="primitive_index" >
   <v type="int" >        1 </v>
   <v type="int" >        5 </v>
  </varray>
 </primitive_cell>
 <kpoints>
  <generation param="Gamma">
   <v type="int" name="divisions">       5        5        5 </v>
   <v name="usershift">      0.00000000       0.00000000       0.00000000 </v>
   <v name="genvec1">      0.20000000       0.00000000       0.00000000 </v>
   <v name="genvec2">      0.00000000       0.20000000       0.00000000 </v>
   <v name="genvec3">      0.00000000       0.00000000       0.20000000 </v>
   <v name="shift">      0.00000000       0.00000000       0.00000000 </v>
  </generation>
  <varray name="kpointlist" >
   <v>       0.00000000       0.00000000       0.00000000 </v>
   <v>       0.20000000       0.00000000       0.00000000 </v>
   <v>       0.40000000       0.00000000       0.00000000 </v>
   <v>       0.20000000       0.20000000       0.00000000 </v>
   <v>       0.40000000       0.20000000       0.00000000 </v>
   <v>       0.40000000       0.40000000       0.00000000 </v>
   <v>       0.20000000       0.20000000       0.20000000 </v>
   <v>       0.40000000       0.20000000       0.20000000 </v>
   <v>       0.40000000       0.40000000       0.20000000 </v>
   <v>       0.40000000       0.40000000       0.40000000 </v>
  </varray>
  <varray name="weights" >
   <v>       0.00800000 </v>
   <v>       0.04800000 </v>
   <v>       0.04800000 </v>
   <v>       0.09600000 </v>
   <v>       0.19200000 </v>
   <v>       0.09600000 </v>
   <v>       0.06400000 </v>
   <v>       0.19200000 </v>
   <v>       0.19200000 </v>
   <v>       0.06400000 </v>
  </varray>
  <varray name="tetrahedronlist"  type="int" >
   <v type="int" >       12        7        8        8        9 </v>
   <v type="int" >       18        8        8        9        9 </v>
   <v type="int" >       24        8        9        9       10 </v>
   <v type="int" >       12        8        9        9        9 </v>
   <v type="int" >       24        9        9        9       10 </v>
   <v type="int" >       18        9        9       10       10 </v>
   <v type="int" >       24        4        5        7        8 </v>
   <v type="int" >       12        5        7        8        8 </v>
   <v type="int" >       24        5        8        8        9 </v>
   <v type="int" >       24        4        5        5        8 </v>
   <v type="int" >       24        5        5        6        8 </v>
   <v type="int" >       12        5        6        8        9 </v>
   <v type="int" >       12        9       10       10       10 </v>
   <v type="int" >       12        8        8        9       10 </v>
   <v type="int" >       12        8        9       10       10 </v>
   <v type="int" >       12        5        5        8        9 </v>
   <v type="int" >       12        5        8        9        9 </v>
   <v type="int" >       12        5        5        6        9 </v>
   <v type="int" >       12        5        6        6        9 </v>
   <v type="int" >       12        5        6        9        9 </v>
   <v type="int" >       12        5        6        8        8 </v>
   <v type="int" >       12        5        6        6        8 </v>
   <v type="int" >       12        6        8        8        9 </v>
   <v type="int" >       12        6        8        9        9 </v>
   <v type="int" >       12        6        6        8        9 </v>
   <v type="int" >       12        7        8        9       10 </v>
   <v type="int" >       12        4        5        8        9 </v>
   <v type="int" >       12        4        7        8        9 </v>
   <v type="int" >       12        4        5        6        9 </v>
   <v type="int" >       12        5        6        7        8 </v>
   <v type="int" >       12        4        5        6        7 </v>
   <v type="int" >       12        6        7        8        9 </v>
   <v type="int" >       12        2        4        7        8 </v>
   <v type="int" >       12        2        4        5        8 </v>
   <v type="int" >       12        2        3        5        8 </v>
   <v type="int" >       12        4        4        5        7 </v>
   <v type="int" >       12        2        4        4        5 </v>
   <v type="int" >       12        2        3        4        5 </v>
   <v type="int" >       12        3        4        5        5 </v>
   <v type="int" >       12        2        3        4        7 </v>
   <v type="int" >       12        3        4        5        7 </v>
   <v type="int" >       12        3        5        7        8 </v>
   <v type="int" >        6       10       10       10       10 </v>
   <v type="int" >       12        6        6        9        9 </v>
   <v type="int" >       12        6        9        9        9 </v>
   <v type="int" >       12        6        6        6        9 </v>
   <v type="int" >       12        3        5        8        8 </v>
   <v type="int" >       12        3        5        5        8 </v>
   <v type="int" >       12        3        3        5        8 </v>
   <v type="int" >       12        5        5        5        8 </v>
   <v type="int" >       12        3        5        5        5 </v>
   <v type="int" >        6        3        3        5        5 </v>
   <v type="int" >        6        5        5        8        8 </v>
   <v type="int" >       12        2        4        4        7 </v>
   <v type="int" >       12        2        2        4        4 </v>
   <v type="int" >       12        1        2        2        4 </v>
   <v type="int" >       12        1        2        4        7 </v>
  </varray>
  <i name="volumeweight">      0.00133333 </i>
 </kpoints>
 <parameters>
  <separator name="general" >
   <i type="string" name="SYSTEM">GaAs</i>
   <i type="logical" name="LCOMPAT"> F  </i>
  </separator>
  <separator name="electronic" >
   <i type="string" name="PREC">normal</i>
   <i name="ENMAX">    500.00000000</i>
   <i name="ENAUG">    462.75800000</i>
   <i name="EDIFF">      0.00010000</i>
   <i type="int" name="IALGO">    38</i>
   <i type="int" name="IWAVPR">    10</i>
   <i type="int" name="NBANDS">    24</i>
   <i type="int" name="NBANDSLOW">    -1</i>
   <i type="int" name="NBANDSHIGH">    -1</i>
   <i name="NELECT">     32.00000000</i>
   <i type="int" name="TURBO">     0</i>
   <i type="int" name="IRESTART">     0</i>
   <i type="int" name="NREBOOT">     0</i>
   <i type="int" name="NMIN">     0</i>
   <i name="EREF">      0.00000000</i>
   <separator name="electronic smearing" >
    <i type="int" name="ISMEAR">    -5</i>
    <i name="SIGMA">      0.10000000</i>
    <i name="KSPACING">      0.50000000</i>
    <i type="logical" name="KGAMMA"> T  </i>
    <i type="logical" name="KBLOWUP"> T  </i>
   </separator>
   <separator name="electronic projectors" >
    <i type="logical" name="LREAL"> F  </i>
    <v name="ROPT">      0.00000000      0.00000000</v>
    <i type="int" name="LMAXPAW">  -100</i>
    <i type="int" name="LMAXMIX">     2</i>
    <i type="logical" name="NLSPLINE"> F  </i>
   </separator>
   <separator name="electronic startup" >
    <i type="int" name="ISTART">     1</i>
    <i type="int" name="ICHARG">     0</i>
    <i type="int" name="INIWAV">     1</i>
   </separator>
   <separator name="electronic spin" >
    <i type="int" name="ISPIN">     1</i>
    <i type="logical" name="LNONCOLLINEAR"> F  </i>
    <v name="MAGMOM">      1.00000000      1.00000000      1.00000000      1.00000000      1.00000000      1.00000000      1.00000000      1.00000000</v>
    <i name="NUPDOWN">     -1.00000000</i>
    <i type="logical" name="LSORBIT"> F  </i>
    <v name="SAXIS">      0.00000000      0.00000000      1.00000000</v>
    <i type="logical" name="LSPIRAL"> F  </i>
    <v name="QSPIRAL">      0.00000000      0.00000000      0.00000000</v>
    <i type="logical" name="LZEROZ"> F  </i>
   </separator>
   <separator name="electronic exchange-correlation" >
    <i type="logical" name="LASPH"> F  </i>
   </separator>
   <separator name="electronic convergence" >
    <i type="int" name="NELM">    60</i>
    <i type="int" name="NELMDL">     0</i>
    <i type="int" name="NELMIN">     2</i>
    <i name="ENINI">    500.00000000</i>
    <separator name="electronic convergence detail" >
     <i type="logical" name="LDIAG"> T  </i>
     <i type="logical" name="LSUBROT"> F  </i>
     <i name="WEIMIN">      0.00000000</i>
     <i name="EBREAK">      0.00000104</i>
     <i name="DEPER">      0.30000000</i>
     <i type="int" name="NRMM">     4</i>
     <i name="TIME">      0.40000000</i>
    </separator>
   </separator>
   <separator name="electronic mixer" >
    <i name="AMIX">      0.40000000</i>
    <i name="BMIX">      1.00000000</i>
    <i name="AMIN">      0.10000000</i>
    <i name="AMIX_MAG">      1.60000000</i>
    <i name="BMIX_MAG">      1.00000000</i>
    <separator name="electronic mixer details" >
     <i type="int" name="IMIX">     4</i>
     <i type="logical" name="MIXFIRST"> F  </i>
     <i type="int" name="MAXMIX">   -45</i>
     <i name="WC">    100.00000000</i>
     <i type="int" name="INIMIX">     1</i>
     <i type="int" name="MIXPRE">     1</i>
     <i type="int" name="MREMOVE">     5</i>
    </separator>
   </separator>
   <separator name="electronic dipolcorrection" >
    <i type="logical" name="LDIPOL"> F  </i>
    <i type="logical" name="LMONO"> F  </i>
    <i type="int" name="IDIPOL">     0</i>
    <i name="EPSILON">      1.00000000</i>
    <v name="DIPOL">   -100.00000000   -100.00000000   -100.00000000</v>
    <i name="EFIELD">      0.00000000</i>
    <i type="logical" name="LVACPOTAV"> F  </i>
   </separator>
  </separator>
  <separator name="grids" >
   <i type="int" name="NGX">    30</i>
   <i type="int" name="NGY">    30</i>
   <i type="int" name="NGZ">    30</i>
   <i type="int" name="NGXF">    60</i>
   <i type="int" name="NGYF">    60</i>
   <i type="int" name="NGZF">    60</i>
   <i type="logical" name="ADDGRID"> F  </i>
  </separator>
  <separator name="ionic" >
   <i type="int" name="NSW">     0</i>
   <i type="int" name="IBRION">    -1</i>
   <i type="int" name="MDALGO">     0</i>
   <i type="int" name="ISIF">     2</i>
   <i name="PSTRESS">      0.00000000</i>
   <i name="EDIFFG">      0.00100000</i>
   <i type="int" name="NFREE">     1</i>
   <i name="POTIM">      0.50000000</i>
   <i name="SMASS">     -3.00000000</i>
   <i name="SCALEE">      1.00000000</i>
  </separator>
  <separator name="ionic md" >
   <i name="TEBEG">      0.00010000</i>
   <i name="TEEND">      0.00010000</i>
   <i type="int" name="NBLOCK">     1</i>
   <i type="int" name="KBLOCK">     1</i>
   <i type="int" name="NPACO">   256</i>
   <i name="APACO">     10.00000000</i>
  </separator>
  <separator name="symmetry" >
   <i type="int" name="ISYM">     2</i>
   <i name="SYMPREC">      0.00001000</i>
  </separator>
  <separator name="dos" >
   <i type="int" name="LORBIT">     0</i>
   <v name="RWIGS">     -1.00000000     -1.00000000</v>
   <i type="int" name="NEDOS">   301</i>
   <i name="EMIN">     10.00000000</i>
   <i name="EMAX">    -10.00000000</i>
   <i name="EFERMI">      0.00000000</i>
  </separator>
  <separator name="writing" >
   <i type="int" name="NWRITE">     2</i>
   <i type="logical" name="LWAVE"> T  </i>
   <i type="logical" name="LDOWNSAMPLE"> F  </i>
   <i type="logical" name="LCHARG"> T  </i>
   <i type="logical" name="LPARD"> F  </i>
   <i type="logical" name="LVTOT"> F  </i>
   <i type="logical" name="LVHAR"> F  </i>
   <i type="logical" name="LELF"> F  </i>
   <i type="logical" name="LOPTICS"> T  </i>
   <v name="STM">      0.00000000      0.00000000      0.00000000      0.00000000      0.00000000      0.00000000      0.00000000</v>
  </separator>
  <separator name="performance" >
   <i type="int" name="NPAR">     8</i>
   <i type="int" name="NSIM">     4</i>
   <i type="int" name="NBLK">    -1</i>
   <i type="logical" name="LPLANE"> T  </i>
   <i type="logical" name="LSCALAPACK"> T  </i>
   <i type="logical" name="LSCAAWARE"> F  </i>
   <i type="logical" name="LSCALU"> F  </i>
   <i type="logical" name="LASYNC"> F  </i>
   <i type="logical" name="LORBITALREAL"> F  </i>
  </separator>
  <separator name="miscellaneous" >
   <i type="int" name="IDIOT">     3</i>
   <i type="int" name="PHON_NSTRUCT">    -1</i>
   <i type="logical" name="LMUSIC"> F  </i>
   <v name="POMASS">     74.92200000     69.72300000</v>
   <v name="DARWINR">      0.00000000      0.00000000</v>
   <v name="DARWINV">      1.00000000      1.00000000</v>
   <i type="logical" name="LCORR"> T  </i>
  </separator>
  <i type="logical" name="GGA_COMPAT"> T  </i>
  <i type="logical" name="LBERRY"> F  </i>
  <i type="int" name="ICORELEVEL">     0</i>
  <i type="logical" name="LDAU"> F  </i>
  <i type="int" name="I_CONSTRAINED_M">     0</i>
  <separator name="electronic exchange-correlation" >
   <i type="string" name="GGA    ">PE</i>
   <i type="string" name="XC_C">1</i>
   <i type="int" name="VOSKOWN">     0</i>
   <i type="logical" name="LHFCALC"> F  </i>
   <i type="string" name="PRECFOCK"></i>
   <i type="logical" name="LSYMGRAD"> F  </i>
   <i type="logical" name="LHFONE"> F  </i>
   <i type="logical" name="LRHFCALC"> F  </i>
   <i type="logical" name="LTHOMAS"> F  </i>
   <i type="logical" name="LMODELHF"> F  </i>
   <i type="logical" name="LFOCKACE"> F  </i>
   <i name="ENCUT4O">     -1.00000000</i>
   <i type="int" name="EXXOEP">     0</i>
   <i type="int" name="FOURORBIT">     0</i>
   <i name="AEXX">      0.00000000</i>
   <i name="HFALPHA">      0.00000000</i>
   <i name="MCALPHA">      0.00000000</i>
   <i name="ALDAX">      1.00000000</i>
   <i name="AGGAX">      1.00000000</i>
   <i name="AMGGAX">      1.00000000</i>
   <i name="ALDAC">      1.00000000</i>
   <i name="AGGAC">      1.00000000</i>
   <i name="AMGGAC">      1.00000000</i>
   <i type="int" name="NKREDX">     1</i>
   <i type="int" name="NKREDY">     1</i>
   <i type="int" name="NKREDZ">     1</i>
   <i type="logical" name="SHIFTRED"> F  </i>
   <i type="logical" name="ODDONLY"> F  </i>
   <i type="logical" name="EVENONLY"> F  </i>
   <i type="int" name="LMAXFOCK">     0</i>
   <i type="int" name="NMAXFOCKAE">     0</i>
   <i type="logical" name="LFOCKAEDFT"> F  </i>
   <i name="HFSCREEN">      0.00000000</i>
   <i name="HFSCREENC">      0.00000000</i>
   <i type="int" name="NBANDSGWLOW">     0</i>
  </separator>
  <separator name="vdW DFT" >
   <i type="logical" name="LUSE_VDW"> F  </i>
   <i type="int" name="IVDW_NL">    -1</i>
   <i type="logical" name="LSPIN_VDW"> F  </i>
   <i name="ZAB_VDW">     -0.84910000</i>
   <i name="GAMMA_VDW">      1.39626340</i>
   <i name="ALPHA_VDW">      0.00000000</i>
   <i name="PARAM1">      0.12340000</i>
   <i name="PARAM2">      1.00000000</i>
   <i name="BPARAM">      6.30000000</i>
   <i name="CPARAM">      0.00930000</i>
  </separator>
  <separator name="model GW" >
   <i type="int" name="MODEL_GW">     0</i>
   <i name="MODEL_EPS0">     11.35992446</i>
   <i name="MODEL_ALPHA">      1.00000000</i>
  </separator>
  <separator name="linear response parameters" >
   <i type="logical" name="LEPSILON"> F  </i>
   <i type="logical" name="LRPA"> F  </i>
   <i type="logical" name="LNABLA"> F  </i>
   <i type="logical" name="LVEL"> F  </i>
   <i name="CSHIFT">      0.10000000</i>
   <i name="OMEGAMAX">     -1.00000000</i>
   <i name="DEG_THRESHOLD">      0.00200000</i>
   <i name="RTIME">     -0.10000000</i>
   <i name="WPLASMAI">      0.00000000</i>
   <v name="DFIELD">      0.00000000      0.00000000      0.00000000</v>
   <v name="WPLASMA">      0.00000000      0.00000000      0.00000000      0.00000000      0.00000000      0.00000000      0.00000000      0.00000000      0.00000000</v>
  </separator>
  <separator name="orbital magnetization" >
   <i type="logical" name="NUCIND"> F  </i>
   <v name="MAGPOS">      0.00000000      0.00000000      0.00000000</v>
   <i type="logical" name="LNICSALL"> T  </i>
   <i type="logical" name="ORBITALMAG"> F  </i>
   <i type="logical" name="LMAGBLOCH"> F  </i>
   <i type="logical" name="LCHIMAG"> F  </i>
   <i type="logical" name="LGAUGE"> T  </i>
   <i type="int" name="MAGATOM">     0</i>
   <v name="MAGDIPOL">      0.00000000      0.00000000      0.00000000</v>
   <v name="AVECCONST">      0.00000000      0.00000000      0.00000000</v>
  </separator>
  <separator name="response functions" >
   <i type="logical" name="LALL_IN_ONE"> F  </i>
   <i type="int" name="IALL_IN_ONE">    -1</i>
   <i type="int" name="NBANDS_WAVE">    -1</i>
   <i type="logical" name="LFINITE_TEMPERATURE"> F  </i>
   <i type="logical" name="LADDER"> F  </i>
   <i type="logical" name="LRPAFORCE"> F  </i>
   <i type="logical" name="LFXC"> F  </i>
   <i type="logical" name="LHARTREE"> T  </i>
   <i type="int" name="IBSE">     0</i>
   <v type="int" name="KPOINT">    -1     0     0     0</v>
   <i type="logical" name="LTCTC"> F  </i>
   <i type="logical" name="LTCTE"> F  </i>
   <i type="logical" name="LTETE"> F  </i>
   <i type="logical" name="LTRIPLET"> F  </i>
   <i type="logical" name="LFXCEPS"> F  </i>
   <i type="logical" name="LFXHEG"> F  </i>
   <i type="int" name="NATURALO">     2</i>
   <i type="logical" name="LHOLEGF"> F  </i>
   <i type="logical" name="L2ORDER"> F  </i>
   <i type="logical" name="LDMP1"> F  </i>
   <i type="logical" name="LMP2LT"> F  </i>
   <i type="logical" name="LSMP2LT"> F  </i>
   <i type="logical" name="LGWLF"> F  </i>
   <i name="ENCUTGW">     -1.60000002</i>
   <i name="ENCUTGWSOFT">     -1.60000002</i>
   <i name="ENCUTLF">     -1.00000000</i>
   <i type="logical" name="ESF_SPLINES"> F  </i>
   <i name="ESF_CONV">      0.01000000</i>
   <i type="int" name="ESF_NINTER">    15</i>
   <i type="int" name="LMAXMP2">    -1</i>
   <i name="SCISSOR">      0.00000000</i>
   <i type="int" name="NOMEGA">     0</i>
   <i type="int" name="NOMEGAR">     0</i>
   <i type="int" name="NBANDSGW">    -1</i>
   <i type="int" name="NBANDSO">    -1</i>
   <i type="int" name="NBANDSV">    -1</i>
   <i type="int" name="NELMGW">     1</i>
   <i type="int" name="NELMHF">     1</i>
   <i type="int" name="DIM">     3</i>
   <i type="int" name="IESPILON">     4</i>
   <i type="int" name="ANTIRES">     0</i>
   <i name="OMEGAMAX">    -30.00000000</i>
   <i name="OMEGAMIN">    -30.00000000</i>
   <i name="OMEGATL">   -200.00000000</i>
   <i type="int" name="OMEGAGRID">     0</i>
   <i name="CSHIFT">     -0.10000000</i>
   <i type="logical" name="LSELFENERGY"> F  </i>
   <i type="logical" name="LSPECTRAL"> F  </i>
   <i type="logical" name="LSPECTRALGW"> F  </i>
   <i type="logical" name="LSINGLES"> F  </i>
   <i type="logical" name="LFERMIGW"> F  </i>
   <i type="logical" name="ODDONLYGW"> F  </i>
   <i type="logical" name="EVENONLYGW"> F  </i>
   <i type="int" name="NKREDLFX">     1</i>
   <i type="int" name="NKREDLFY">     1</i>
   <i type="int" name="NKREDLFZ">     1</i>
   <i type="int" name="MAXMEM">  2800</i>
   <i type="int" name="TELESCOPE">     0</i>
   <i type="int" name="NTAUPAR">    -1</i>
   <i type="int" name="NOMEGAPAR">    -1</i>
   <i name="DAMP_NEWTON">      0.80000001</i>
   <i name="LAMBDA">      1.00000000</i>
  </separator>
  <separator name="External order field" >
   <i name="OFIELD_KAPPA">      0.00000000</i>
   <v name="OFIELD_K">      0.00000000      0.00000000      0.00000000</v>
   <i name="OFIELD_Q6_NEAR">      0.00000000</i>
   <i name="OFIELD_Q6_FAR">      0.00000000</i>
   <i name="OFIELD_A">      0.00000000</i>
  </separator>
  <separator name="optional k-points parameters" >
   <i type="int" name="KPOINTS_OPT_MODE">     1</i>
   <i type="logical" name="LKPOINTS_OPT"> F  </i>
  </separator>
 </parameters>
 <atominfo>
  <atoms>       8 </atoms>
  <types>       2 </types>
  <array name="atoms" >
   <dimension dim="1">ion</dimension>
   <field type="string">element</field>
   <field type="int">atomtype</field>
   <set>
    <rc><c>As</c><c>   1</c></rc>
    <rc><c>As</c><c>   1</c></rc>
    <rc><c>As</c><c>   1</c></rc>
    <rc><c>As</c><c>   1</c></rc>
    <rc><c>Ga</c><c>   2</c></rc>
    <rc><c>Ga</c><c>   2</c></rc>
    <rc><c>Ga</c><c>   2</c></rc>
    <rc><c>Ga</c><c>   2</c></rc>
   </set>
  </array>
  <array name="atomtypes" >
   <dimension dim="1">type</dimension>
   <field type="int">atomspertype</field>
   <field type="string">element</field>
   <field>mass</field>
   <field>valence</field>
   <field type="string">pseudopotential</field>
   <set>
    <rc><c>   4</c><c>As</c><c>     74.92200000</c><c>      5.00000000</c><c>  PAW_PBE As 22Sep2009                  </c></rc>
    <rc><c>   4</c><c>Ga</c><c>     69.72300000</c><c>      3.00000000</c><c>  PAW_PBE Ga 08Apr2002                  </c></rc>
   </set>
  </array>
 </atominfo>
 <structure name="initialpos" >
  <crystal>
   <varray name="basis" >
    <v>       5.33054229       0.00000000       0.00000000 </v>
    <v>       0.00000000       5.33054229       0.00000000 </v>
    <v>       0.00000000       0.00000000       5.33054229 </v>
   </varray>
   <i name="volume">    151.46565945 </i>
   <varray name="rec_basis" >
    <v>       0.18759817       0.00000000       0.00000000 </v>
    <v>       0.00000000       0.18759817       0.00000000 </v>
    <v>       0.00000000       0.00000000       0.18759817 </v>
   </varray>
  </crystal>
  <varray name="positions" >
   <v>       0.00000000       0.00000000       0.00000000 </v>
   <v>       0.50000000       0.50000000       0.00000000 </v>
   <v>       0.50000000       0.00000000       0.50000000 </v>
   <v>       0.00000000       0.50000000       0.50000000 </v>
   <v>       0.25000000       0.25000000       0.25000000 </v>
   <v>       0.75000000       0.25000000       0.75000000 </v>
   <v>       0.75000000       0.75000000       0.25000000 </v>
   <v>       0.25000000       0.75000000       0.75000000 </v>
  </varray>
 </structure>
 <calculation>
  <scstep>
   <time name="dav">    0.16    0.17</time>
   <time name="total">    0.19    0.20</time>
   <energy>
    <i name="alphaZ">     90.34293625 </i>
    <i name="ewald">   -972.18875111 </i>
    <i name="hartreedc">    -72.36223774 </i>
    <i name="XCdc">   -118.84832563 </i>
    <i name="pawpsdc">   2729.69897515 </i>
    <i name="pawaedc">  -2551.68209741 </i>
    <i name="eentropy">      0.00000000 </i>
    <i name="bandstr">    -51.81698348 </i>
    <i name="atom">    916.21963040 </i>
    <i name="e_fr_energy">    -30.63685356 </i>
    <i name="e_wo_entrp">    -30.63685356 </i>
    <i name="e_0_energy">    -30.63685356 </i>
   </energy>
  </scstep>
  <scstep>
   <time name="dav">    0.15    0.16</time>
   <time name="total">    0.17    0.18</time>
   <energy>
    <i name="alphaZ">     90.34293625 </i>
    <i name="ewald">   -972.18875111 </i>
    <i name="hartreedc">    -72.36330978 </i>
    <i name="XCdc">   -118.84875136 </i>
    <i name="pawpsdc">   2729.20878748 </i>
    <i name="pawaedc">  -2551.19193801 </i>
    <i name="eentropy">      0.00000000 </i>
    <i name="bandstr">    -51.81545730 </i>
    <i name="atom">    916.21963040 </i>
    <i name="e_fr_energy">    -30.63685344 </i>
    <i name="e_wo_entrp">    -30.63685344 </i>
    <i name="e_0_energy">    -30.63685344 </i>
   </energy>
  </scstep>
  <structure>
   <crystal>
    <varray name="basis" >
     <v>       5.33054229       0.00000000       0.00000000 </v>
     <v>       0.00000000       5.33054229       0.00000000 </v>
     <v>       0.00000000       0.00000000       5.33054229 </v>
    </varray>
    <i name="volume">    151.46565945 </i>
    <varray name="rec_basis" >
     <v>       0.18759817       0.00000000       0.00000000 </v>
     <v>       0.00000000       0.18759817       0.00000000 </v>
     <v>       0.00000000       0.00000000       0.18759817 </v>
    </varray>
   </crystal>
   <varray name="positions" >
    <v>       0.00000000       0.00000000       0.00000000 </v>
    <v>       0.50000000       0.50000000       0.00000000 </v>
    <v>       0.50000000       0.00000000       0.50000000 </v>
    <v>       0.00000000       0.50000000       0.50000000 </v>
    <v>       0.25000000       0.25000000       0.25000000 </v>
    <v>       0.75000000       0.25000000       0.75000000 </v>
    <v>       0.75000000       0.75000000       0.25000000 </v>
    <v>       0.25000000       0.75000000       0.75000000 </v>
   </varray>
  </structure>
  <varray name="forces" >
   <v>       0.00000000       0.00000000       0.00000000 </v>
   <v>       0.00000000       0.00000000       0.00000000 </v>
   <v>       0.00000000       0.00000000       0.00000000 </v>
   <v>      -0.00000000      -0.00000000       0.00000000 </v>
   <v>       0.00000000      -0.00000000      -0.00000000 </v>
   <v>      -0.00000000       0.00000000      -0.00000000 </v>
   <v>      -0.00000000      -0.00000000      -0.00000000 </v>
   <v>      -0.00000000      -0.00000000      -0.00000000 </v>
  </varray>
  <varray name="stress" >
   <v>     250.44811983      -0.00000000       0.00000000 </v>
   <v>       0.00000000     250.44811983      -0.00000000 </v>
   <v>       0.00000000       0.00000000     250.44811983 </v>
  </varray>
  <energy>
   <i name="e_fr_energy">    -30.63685344 </i>
   <i name="e_wo_entrp">    -30.63685344 </i>
   <i name="e_0_energy">    -30.63685344 </i>
  </energy>
  <time name="totalsc">    0.92    0.98</time>
  <eigenvalues>
   <array>
    <dimension dim="1">band</dimension>
    <dimension dim="2">kpoint</dimension>
    <dimension dim="3">spin</dimension>
    <field>eigene</field>
    <field>occ</field>
    <set>
     <set comment="spin 1">
      <set comment="kpoint 1">
       <r>   -9.7646    1.0000 </r>
       <r>   -6.6374    1.0000 </r>
       <r>   -6.6374    1.0000 </r>
       <r>   -6.6374    1.0000 </r>
       <r>   -3.3361    1.0000 </r>
       <r>   -3.3361    1.0000 </r>
       <r>   -3.3361    1.0000 </r>
       <r>    1.0083    1.0000 </r>
       <r>    1.0083    1.0000 </r>
       <r>    1.0083    1.0000 </r>
       <r>    1.0083    1.0000 </r>
       <r>    1.0083    1.0000 </r>
       <r>    1.0083    1.0000 </r>
       <r>    4.3718    1.0000 </r>
       <r>    4.3718    1.0000 </r>
       <r>    4.3718    1.0000 </r>
       <r>    5.4401    0.0000 </r>
       <r>    5.4401    0.0000 </r>
       <r>    5.4401    0.0000 </r>
       <r>    5.8830    0.0000 </r>
       <r>    5.8830    0.0000 </r>
       <r>    5.8830    0.0000 </r>
       <r>    6.3656    0.0000 </r>
       <r>    8.1555    0.0000 </r>
      </set>
      <set comment="kpoint 2">
       <r>   -9.5870    1.0000 </r>
       <r>   -7.2374    1.0000 </r>
       <r>   -6.6086    1.0000 </r>
       <r>   -6.6086    1.0000 </r>
       <r>   -3.2450    1.0000 </r>
       <r>   -3.2450    1.0000 </r>
       <r>   -2.4995    1.0000 </r>
       <r>    0.5750    1.0000 </r>
       <r>    0.5750    1.0000 </r>
       <r>    0.6436    1.0000 </r>
       <r>    0.6436    1.0000 </r>
       <r>    1.2064    1.0000 </r>
       <r>    1.2064    1.0000 </r>
       <r>    3.0411    1.0000 </r>
       <r>    3.7562    1.0000 </r>
       <r>    3.7562    1.0000 </r>
       <r>    5.4885    0.0000 </r>
       <r>    6.3311    0.0000 </r>
       <r>    6.3336    0.0000 </r>
       <r>    6.3336    0.0000 </r>
       <r>    6.7872    0.0000 </r>
       <r>    6.7872    0.0000 </r>
       <r>    7.4793    0.0000 </r>
       <r>    7.7300    0.0000 </r>
      </set>
      <set comment="kpoint 3">
       <r>   -9.0640    1.0000 </r>
       <r>   -8.2354    1.0000 </r>
       <r>   -6.5606    1.0000 </r>
       <r>   -6.5606    1.0000 </r>
       <r>   -3.0720    1.0000 </r>
       <r>   -3.0720    1.0000 </r>
       <r>   -0.8145    1.0000 </r>
       <r>   -0.0258    1.0000 </r>
       <r>   -0.0258    1.0000 </r>
       <r>    0.1780    1.0000 </r>
       <r>    0.1780    1.0000 </r>
       <r>    1.1003    1.0000 </r>
       <r>    1.7861    1.0000 </r>
       <r>    1.7861    1.0000 </r>
       <r>    2.6919    1.0000 </r>
       <r>    2.6919    1.0000 </r>
       <r>    5.8637    0.0000 </r>
       <r>    6.6073    0.0000 </r>
       <r>    7.3885    0.0000 </r>
       <r>    8.3499    0.0000 </r>
       <r>    8.3499    0.0000 </r>
       <r>    8.4585    0.0000 </r>
       <r>    8.8567    0.0000 </r>
       <r>    8.8567    0.0000 </r>
      </set>
      <set comment="kpoint 4">
       <r>   -9.4127    1.0000 </r>
       <r>   -7.1534    1.0000 </r>
       <r>   -7.1534    1.0000 </r>
       <r>   -6.6331    1.0000 </r>
       <r>   -3.1598    1.0000 </r>
       <r>   -2.5494    1.0000 </r>
       <r>   -2.5494    1.0000 </r>
       <r>   -0.2572    1.0000 </r>
       <r>    0.6739    1.0000 </r>
       <r>    0.6739    1.0000 </r>
       <r>    1.0406    1.0000 </r>
       <r>    1.0406    1.0000 </r>
       <r>    1.3423    1.0000 </r>
       <r>    1.8448    1.0000 </r>
       <r>    3.1227    1.0000 </r>
       <r>    4.1612    1.0000 </r>
       <r>    5.9737    0.0000 </r>
       <r>    6.4352    0.0000 </r>
       <r>    6.4352    0.0000 </r>
       <r>    7.1455    0.0000 </r>
       <r>    7.1455    0.0000 </r>
       <r>    7.4217    0.0000 </r>
       <r>    8.3174    0.0000 </r>
       <r>    8.4980    0.0000 </r>
      </set>
      <set comment="kpoint 5">
       <r>   -8.9012    1.0000 </r>
       <r>   -8.0986    1.0000 </r>
       <r>   -6.9480    1.0000 </r>
       <r>   -6.7415    1.0000 </r>
       <r>   -2.9542    1.0000 </r>
       <r>   -2.7182    1.0000 </r>
       <r>   -1.1808    1.0000 </r>
       <r>   -0.5621    1.0000 </r>
       <r>   -0.1567    1.0000 </r>
       <r>    0.3131    1.0000 </r>
       <r>    0.9745    1.0000 </r>
       <r>    1.1837    1.0000 </r>
       <r>    1.2557    1.0000 </r>
       <r>    1.9761    1.0000 </r>
       <r>    2.0569    1.0000 </r>
       <r>    3.2480    1.0000 </r>
       <r>    6.8483    0.0000 </r>
       <r>    7.1904    0.0000 </r>
       <r>    7.5691    0.0000 </r>
       <r>    8.0338    0.0000 </r>
       <r>    8.3478    0.0000 </r>
       <r>    8.4638    0.0000 </r>
       <r>    9.0864    0.0000 </r>
       <r>    9.7156    0.0000 </r>
      </set>
      <set comment="kpoint 6">
       <r>   -8.4304    1.0000 </r>
       <r>   -7.7184    1.0000 </r>
       <r>   -7.7184    1.0000 </r>
       <r>   -7.1997    1.0000 </r>
       <r>   -2.5666    1.0000 </r>
       <r>   -1.9137    1.0000 </r>
       <r>   -1.9137    1.0000 </r>
       <r>   -0.8681    1.0000 </r>
       <r>   -0.4654    1.0000 </r>
       <r>    0.2086    1.0000 </r>
       <r>    0.2086    1.0000 </r>
       <r>    1.0138    1.0000 </r>
       <r>    2.2490    1.0000 </r>
       <r>    2.3198    1.0000 </r>
       <r>    2.3198    1.0000 </r>
       <r>    3.3832    1.0000 </r>
       <r>    6.9078    0.0000 </r>
       <r>    7.7688    0.0000 </r>
       <r>    8.2005    0.0000 </r>
       <r>    8.2005    0.0000 </r>
       <r>    9.0707    0.0000 </r>
       <r>    9.0707    0.0000 </r>
       <r>    9.5905    0.0000 </r>
       <r>    9.7663    0.0000 </r>
      </set>
      <set comment="kpoint 7">
       <r>   -9.2426    1.0000 </r>
       <r>   -7.1051    1.0000 </r>
       <r>   -7.1051    1.0000 </r>
       <r>   -7.1051    1.0000 </r>
       <r>   -2.6790    1.0000 </r>
       <r>   -2.6790    1.0000 </r>
       <r>   -2.6790    1.0000 </r>
       <r>    0.1829    1.0000 </r>
       <r>    0.1829    1.0000 </r>
       <r>    0.1829    1.0000 </r>
       <r>    0.7986    1.0000 </r>
       <r>    1.5247    1.0000 </r>
       <r>    1.5247    1.0000 </r>
       <r>    1.5247    1.0000 </r>
       <r>    3.7196    1.0000 </r>
       <r>    3.7196    1.0000 </r>
       <r>    6.1973    0.0000 </r>
       <r>    6.1973    0.0000 </r>
       <r>    6.1973    0.0000 </r>
       <r>    6.6725    0.0000 </r>
       <r>    8.5348    0.0000 </r>
       <r>    8.5348    0.0000 </r>
       <r>    8.5348    0.0000 </r>
       <r>    8.9985    0.0000 </r>
      </set>
      <set comment="kpoint 8">
       <r>   -8.7460    1.0000 </r>
       <r>   -7.9779    1.0000 </r>
       <r>   -7.0216    1.0000 </r>
       <r>   -7.0216    1.0000 </r>
       <r>   -2.9144    1.0000 </r>
       <r>   -2.9144    1.0000 </r>
       <r>   -1.7135    1.0000 </r>
       <r>   -0.5494    1.0000 </r>
       <r>    0.0032    1.0000 </r>
       <r>    0.0032    1.0000 </r>
       <r>    1.3779    1.0000 </r>
       <r>    1.5365    1.0000 </r>
       <r>    1.5365    1.0000 </r>
       <r>    2.0523    1.0000 </r>
       <r>    2.8506    1.0000 </r>
       <r>    2.8931    1.0000 </r>
       <r>    6.8010    0.0000 </r>
       <r>    7.1673    0.0000 </r>
       <r>    7.3851    0.0000 </r>
       <r>    7.3851    0.0000 </r>
       <r>    8.6017    0.0000 </r>
       <r>    9.0480    0.0000 </r>
       <r>    9.6117    0.0000 </r>
       <r>    9.6117    0.0000 </r>
      </set>
      <set comment="kpoint 9">
       <r>   -8.3029    1.0000 </r>
       <r>   -7.6582    1.0000 </r>
       <r>   -7.6582    1.0000 </r>
       <r>   -7.2770    1.0000 </r>
       <r>   -2.9821    1.0000 </r>
       <r>   -2.5275    1.0000 </r>
       <r>   -2.5275    1.0000 </r>
       <r>   -1.6962    1.0000 </r>
       <r>    0.4511    1.0000 </r>
       <r>    1.0462    1.0000 </r>
       <r>    1.0462    1.0000 </r>
       <r>    2.0236    1.0000 </r>
       <r>    2.3638    1.0000 </r>
       <r>    2.4093    1.0000 </r>
       <r>    2.4093    1.0000 </r>
       <r>    3.2950    1.0000 </r>
       <r>    7.0018    0.0000 </r>
       <r>    7.0365    0.0000 </r>
       <r>    7.6376    0.0000 </r>
       <r>    7.6376    0.0000 </r>
       <r>    8.5888    0.0000 </r>
       <r>    8.5888    0.0000 </r>
       <r>    9.2287    0.0000 </r>
       <r>    9.2759    0.0000 </r>
      </set>
      <set comment="kpoint 10">
       <r>   -7.9623    1.0000 </r>
       <r>   -7.5518    1.0000 </r>
       <r>   -7.5518    1.0000 </r>
       <r>   -7.5518    1.0000 </r>
       <r>   -3.1819    1.0000 </r>
       <r>   -3.1819    1.0000 </r>
       <r>   -3.1819    1.0000 </r>
       <r>   -2.6947    1.0000 </r>
       <r>    2.0657    1.0000 </r>
       <r>    2.0657    1.0000 </r>
       <r>    2.0657    1.0000 </r>
       <r>    2.6662    1.0000 </r>
       <r>    2.6662    1.0000 </r>
       <r>    2.6662    1.0000 </r>
       <r>    3.0302    1.0000 </r>
       <r>    3.0302    1.0000 </r>
       <r>    6.0428    0.0000 </r>
       <r>    6.7727    0.0000 </r>
       <r>    6.7727    0.0000 </r>
       <r>    6.7727    0.0000 </r>
       <r>    8.7414    0.0000 </r>
       <r>    8.7414    0.0000 </r>
       <r>    8.7414    0.0000 </r>
       <r>    9.1185    0.0000 </r>
      </set>
     </set>
    </set>
   </array>
  </eigenvalues>
  <separator name="orbital magnetization" >
   <v name="MAGDIPOLOUT">      0.00000000      0.00000000      0.00000000</v>
  </separator>
  <dielectricfunction comment="density-density">
   <imag>
    <array>
     <dimension dim="1">gridpoints</dimension>
     <field>energy</field>
     <field>xx</field>
     <field>yy</field>
     <field>zz</field>
     <field>xy</field>
     <field>yz</field>
     <field>zx</field>
     <set>
      <r>     0.0000     0.0000     0.0000     0.0000     0.0000     0.0000     0.0000 </r>
      <r>     0.0235     0.0022     0.0022     0.0022    -0.0000    -0.0000     0.0000 </r>
      <r>     0.0469     0.0044     0.0044     0.0044    -0.0000    -0.0000     0.0000 </r>
      <r>     0.0704     0.0066     0.0066     0.0066    -0.0000    -0.0000     0.0000 </r>
      <r>     0.0938     0.0088     0.0088     0.0088    -0.0000    -0.0000     0.0000 </r>
      <r>     0.1173     0.0111     0.0111     0.0111    -0.0000    -0.0000     0.0000 </r>
      <r>     0.1408     0.0133     0.0133     0.0133    -0.0000    -0.0000     0.0000 </r>
      <r>     0.1642     0.0155     0.0155     0.0155    -0.0000    -0.0000     0.0000 </r>
      <r>     0.1877     0.0177     0.0177     0.0177    -0.0000    -0.0000     0.0000 </r>
      <r>     0.2111     0.0200     0.0200     0.0200    -0.0000    -0.0000     0.0000 </r>
      <r>     0.2346     0.0222     0.0222     0.0222    -0.0000    -0.0000     0.0000 </r>
      <r>     0.2581     0.0245     0.0245     0.0245    -0.0000    -0.0000     0.0000 </r>
      <r>     0.2815     0.0268     0.0268     0.0268    -0.0000    -0.0000     0.0000 </r>
      <r>     0.3050     0.0290     0.0290     0.0290    -0.0000    -0.0000     0.0000 </r>
      <r>     0.3284     0.0313     0.0313     0.0313    -0.0000    -0.0000     0.0000 </r>
      <r>     0.3519     0.0336     0.0336     0.0336    -0.0000    -0.0000     0.0000 </r>
      <r>     0.3754     0.0360     0.0360     0.0360    -0.0000    -0.0000     0.0000 </r>
      <r>     0.3988     0.0383     0.0383     0.0383    -0.0000    -0.0000     0.0000 </r>
      <r>     0.4223     0.0407     0.0407     0.0407    -0.0000    -0.0000     0.0000 </r>
      <r>     0.4457     0.0430     0.0430     0.0430    -0.0000    -0.0000     0.0000 </r>
      <r>     0.4692     0.0454     0.0454     0.0454    -0.0000    -0.0000     0.0000 </r>
      <r>     0.4927     0.0479     0.0479     0.0479    -0.0000    -0.0000     0.0000 </r>
      <r>     0.5161     0.0503     0.0503     0.0503    -0.0000    -0.0000     0.0000 </r>
      <r>     0.5396     0.0528     0.0528     0.0528    -0.0000    -0.0000     0.0000 </r>
      <r>     0.5631     0.0552     0.0552     0.0552    -0.0000    -0.0000     0.0000 </r>
      <r>     0.5865     0.0578     0.0578     0.0578    -0.0000    -0.0000     0.0000 </r>
      <r>     0.6100     0.0603     0.0603     0.0603    -0.0000    -0.0000     0.0000 </r>
      <r>     0.6334     0.0629     0.0629     0.0629    -0.0000    -0.0000     0.0000 </r>
      <r>     0.6569     0.0655     0.0655     0.0655    -0.0000    -0.0000     0.0000 </r>
      <r>     0.6804     0.0681     0.0681     0.0681    -0.0000    -0.0000     0.0000 </r>
      <r>     0.7038     0.0708     0.0708     0.0708    -0.0000    -0.0000     0.0000 </r>
      <r>     0.7273     0.0735     0.0735     0.0735    -0.0000    -0.0000     0.0000 </r>
      <r>     0.7507     0.0762     0.0762     0.0762    -0.0000    -0.0000     0.0000 </r>
      <r>     0.7742     0.0790     0.0790     0.0790    -0.0000    -0.0000    -0.0000 </r>
      <r>     0.7977     0.0818     0.0818     0.0818    -0.0000    -0.0000    -0.0000 </r>
      <r>     0.8211     0.0847     0.0847     0.0847    -0.0000    -0.0000    -0.0000 </r>
      <r>     0.8446     0.0876     0.0876     0.0876    -0.0000    -0.0000    -0.0000 </r>
      <r>     0.8680     0.0905     0.0905     0.0905    -0.0000    -0.0000    -0.0000 </r>
      <r>     0.8915     0.0935     0.0935     0.0935    -0.0000    -0.0000    -0.0000 </r>
      <r>     0.9150     0.0966     0.0966     0.0966    -0.0000    -0.0000    -0.0000 </r>
      <r>     0.9384     0.0997     0.0997     0.0997    -0.0000    -0.0000    -0.0000 </r>
      <r>     0.9619     0.1029     0.1029     0.1029    -0.0000    -0.0000    -0.0000 </r>
      <r>     0.9853     0.1061     0.1061     0.1061    -0.0000    -0.0000    -0.0000 </r>
      <r>     1.0088     0.1094     0.1094     0.1094    -0.0000    -0.0000    -0.0000 </r>
      <r>     1.0323     0.1128     0.1128     0.1128    -0.0000    -0.0000    -0.0000 </r>
      <r>     1.0557     0.1162     0.1162     0.1162    -0.0000    -0.0000    -0.0000 </r>
      <r>     1.0792     0.1197     0.1197     0.1197    -0.0000    -0.0000    -0.0000 </r>
      <r>     1.1026     0.1233     0.1233     0.1233    -0.0000    -0.0000    -0.0000 </r>
      <r>     1.1261     0.1270     0.1270     0.1270    -0.0000    -0.0000    -0.0000 </r>
      <r>     1.1496     0.1308     0.1308     0.1308    -0.0000    -0.0000    -0.0000 </r>
      <r>     1.1730     0.1346     0.1346     0.1346    -0.0000     0.0000    -0.0000 </r>
      <r>     1.1965     0.1386     0.1386     0.1386    -0.0000     0.0000    -0.0000 </r>
      <r>     1.2199     0.1427     0.1427     0.1427    -0.0000     0.0000    -0.0000 </r>
      <r>     1.2434     0.1469     0.1469     0.1469    -0.0000     0.0000    -0.0000 </r>
      <r>     1.2669     0.1512     0.1512     0.1512    -0.0000     0.0000    -0.0000 </r>
      <r>     1.2903     0.1556     0.1556     0.1556    -0.0000     0.0000    -0.0000 </r>
      <r>     1.3138     0.1602     0.1602     0.1602    -0.0000     0.0000    -0.0000 </r>
      <r>     1.3372     0.1649     0.1649     0.1649    -0.0000     0.0000    -0.0000 </r>
      <r>     1.3607     0.1698     0.1698     0.1698    -0.0000     0.0000    -0.0000 </r>
      <r>     1.3842     0.1748     0.1748     0.1748    -0.0000     0.0000    -0.0000 </r>
      <r>     1.4076     0.1800     0.1800     0.1800    -0.0000     0.0000    -0.0000 </r>
      <r>     1.4311     0.1855     0.1855     0.1855    -0.0000     0.0000    -0.0000 </r>
      <r>     1.4545     0.1911     0.1911     0.1911    -0.0000     0.0000    -0.0000 </r>
      <r>     1.4780     0.1970     0.1970     0.1970    -0.0000     0.0000    -0.0000 </r>
      <r>     1.5015     0.2032     0.2032     0.2032    -0.0000     0.0000    -0.0000 </r>
      <r>     1.5249     0.2096     0.2096     0.2096    -0.0000     0.0000    -0.0000 </r>
      <r>     1.5484     0.2165     0.2165     0.2165    -0.0000     0.0000    -0.0000 </r>
      <r>     1.5719     0.2237     0.2237     0.2237    -0.0000     0.0000    -0.0000 </r>
      <r>     1.5953     0.2313     0.2313     0.2313    -0.0000     0.0000    -0.0000 </r>
      <r>     1.6188     0.2393     0.2393     0.2393    -0.0000     0.0000    -0.0000 </r>
      <r>     1.6422     0.2478     0.2478     0.2478    -0.0000     0.0000    -0.0000 </r>
      <r>     1.6657     0.2568     0.2568     0.2568    -0.0000     0.0000    -0.0000 </r>
      <r>     1.6892     0.2663     0.2663     0.2663    -0.0000     0.0000    -0.0000 </r>
      <r>     1.7126     0.2764     0.2764     0.2764    -0.0000     0.0000    -0.0000 </r>
      <r>     1.7361     0.2870     0.2870     0.2870    -0.0000     0.0000    -0.0000 </r>
      <r>     1.7595     0.2982     0.2982     0.2982    -0.0000     0.0000    -0.0000 </r>
      <r>     1.7830     0.3100     0.3100     0.3100    -0.0000     0.0000    -0.0000 </r>
      <r>     1.8065     0.3225     0.3225     0.3225    -0.0000     0.0000    -0.0000 </r>
      <r>     1.8299     0.3356     0.3356     0.3356    -0.0000     0.0000    -0.0000 </r>
      <r>     1.8534     0.3495     0.3495     0.3495    -0.0000     0.0000    -0.0000 </r>
      <r>     1.8768     0.3641     0.3641     0.3641    -0.0000     0.0000    -0.0000 </r>
      <r>     1.9003     0.3796     0.3796     0.3796    -0.0000     0.0000    -0.0000 </r>
      <r>     1.9238     0.3959     0.3959     0.3959    -0.0000     0.0000    -0.0000 </r>
      <r>     1.9472     0.4132     0.4132     0.4132    -0.0000     0.0000    -0.0000 </r>
      <r>     1.9707     0.4314     0.4314     0.4314    -0.0000     0.0000    -0.0000 </r>
      <r>     1.9941     0.4506     0.4506     0.4506    -0.0000     0.0000     0.0000 </r>
      <r>     2.0176     0.4710     0.4710     0.4710    -0.0000     0.0000     0.0000 </r>
      <r>     2.0411     0.4925     0.4925     0.4925    -0.0000     0.0000     0.0000 </r>
      <r>     2.0645     0.5154     0.5154     0.5154    -0.0000     0.0000     0.0000 </r>
      <r>     2.0880     0.5396     0.5396     0.5396     0.0000     0.0000     0.0000 </r>
      <r>     2.1114     0.5652     0.5652     0.5652     0.0000     0.0000     0.0000 </r>
      <r>     2.1349     0.5925     0.5925     0.5925     0.0000     0.0000    -0.0000 </r>
      <r>     2.1584     0.6215     0.6215     0.6215     0.0000     0.0000    -0.0000 </r>
      <r>     2.1818     0.6524     0.6524     0.6524     0.0000     0.0000    -0.0000 </r>
      <r>     2.2053     0.6855     0.6855     0.6855     0.0000     0.0000    -0.0000 </r>
      <r>     2.2287     0.7210     0.7210     0.7210     0.0000     0.0000    -0.0000 </r>
      <r>     2.2522     0.7591     0.7591     0.7591     0.0000     0.0000    -0.0000 </r>
      <r>     2.2757     0.8002     0.8002     0.8002     0.0000     0.0000    -0.0000 </r>
      <r>     2.2991     0.8445     0.8445     0.8445     0.0000     0.0000    -0.0000 </r>
      <r>     2.3226     0.8921     0.8921     0.8921     0.0000     0.0000    -0.0000 </r>
      <r>     2.3460     0.9430     0.9430     0.9430    -0.0000     0.0000    -0.0000 </r>
      <r>     2.3695     0.9973     0.9973     0.9973    -0.0000     0.0000    -0.0000 </r>
      <r>     2.3930     1.0549     1.0549     1.0549    -0.0000     0.0000    -0.0000 </r>
      <r>     2.4164     1.1158     1.1158     1.1158    -0.0000     0.0000    -0.0000 </r>
      <r>     2.4399     1.1801     1.1801     1.1801    -0.0000     0.0000    -0.0000 </r>
      <r>     2.4633     1.2480     1.2480     1.2480    -0.0000     0.0000    -0.0000 </r>
      <r>     2.4868     1.3195     1.3195     1.3195    -0.0000    -0.0000    -0.0000 </r>
      <r>     2.5103     1.3948     1.3948     1.3948    -0.0000    -0.0000    -0.0000 </r>
      <r>     2.5337     1.4743     1.4743     1.4743     0.0000    -0.0000    -0.0000 </r>
      <r>     2.5572     1.5584     1.5584     1.5584     0.0000    -0.0000    -0.0000 </r>
      <r>     2.5807     1.6477     1.6477     1.6477     0.0000     0.0000    -0.0000 </r>
      <r>     2.6041     1.7428     1.7428     1.7428     0.0000     0.0000    -0.0000 </r>
      <r>     2.6276     1.8446     1.8446     1.8446     0.0000     0.0000    -0.0000 </r>
      <r>     2.6510     1.9537     1.9537     1.9537     0.0000     0.0000    -0.0000 </r>
      <r>     2.6745     2.0712     2.0712     2.0712     0.0000     0.0000    -0.0000 </r>
      <r>     2.6980     2.1978     2.1978     2.1978     0.0000     0.0000    -0.0000 </r>
      <r>     2.7214     2.3347     2.3347     2.3347     0.0000     0.0000    -0.0000 </r>
      <r>     2.7449     2.4831     2.4831     2.4831     0.0000     0.0000    -0.0000 </r>
      <r>     2.7683     2.6447     2.6447     2.6447     0.0000     0.0000    -0.0000 </r>
      <r>     2.7918     2.8217     2.8217     2.8217    -0.0000     0.0000    -0.0000 </r>
      <r>     2.8153     3.0169     3.0169     3.0169    -0.0000     0.0000    -0.0000 </r>
      <r>     2.8387     3.2343     3.2343     3.2343     0.0000     0.0000    -0.0000 </r>
      <r>     2.8622     3.4791     3.4791     3.4791     0.0000     0.0000    -0.0000 </r>
      <r>     2.8856     3.7587     3.7587     3.7587     0.0000     0.0000    -0.0000 </r>
      <r>     2.9091     4.0826     4.0826     4.0826     0.0000     0.0000    -0.0000 </r>
      <r>     2.9326     4.4616     4.4616     4.4616    -0.0000     0.0000    -0.0000 </r>
      <r>     2.9560     4.9032     4.9032     4.9032    -0.0000     0.0000    -0.0000 </r>
      <r>     2.9795     5.3993     5.3993     5.3993    -0.0000     0.0000    -0.0000 </r>
      <r>     3.0029     5.9069     5.9069     5.9069    -0.0000     0.0000    -0.0000 </r>
      <r>     3.0264     6.3506     6.3506     6.3506    -0.0000     0.0000    -0.0000 </r>
      <r>     3.0499     6.6768     6.6768     6.6768    -0.0000     0.0000    -0.0000 </r>
      <r>     3.0733     6.9020     6.9020     6.9020    -0.0000     0.0000    -0.0000 </r>
      <r>     3.0968     7.0799     7.0799     7.0799    -0.0000     0.0000    -0.0000 </r>
      <r>     3.1202     7.2486     7.2486     7.2486    -0.0000     0.0000    -0.0000 </r>
      <r>     3.1437     7.4208     7.4208     7.4208     0.0000     0.0000    -0.0000 </r>
      <r>     3.1672     7.5956     7.5956     7.5956     0.0000    -0.0000    -0.0000 </r>
      <r>     3.1906     7.7704     7.7704     7.7704     0.0000    -0.0000    -0.0000 </r>
      <r>     3.2141     7.9449     7.9449     7.9449     0.0000    -0.0000    -0.0000 </r>
      <r>     3.2375     8.1225     8.1225     8.1225     0.0000    -0.0000    -0.0000 </r>
      <r>     3.2610     8.3086     8.3086     8.3086     0.0000    -0.0000    -0.0000 </r>
      <r>     3.2845     8.5088     8.5088     8.5088     0.0000    -0.0000    -0.0000 </r>
      <r>     3.3079     8.7263     8.7263     8.7263     0.0000    -0.0000    -0.0000 </r>
      <r>     3.3314     8.9629     8.9629     8.9629     0.0000    -0.0000    -0.0000 </r>
      <r>     3.3548     9.2195     9.2195     9.2195     0.0000    -0.0000    -0.0000 </r>
      <r>     3.3783     9.4981     9.4981     9.4981     0.0000    -0.0000    -0.0000 </r>
      <r>     3.4018     9.8018     9.8018     9.8018     0.0000    -0.0000     0.0000 </r>
      <r>     3.4252    10.1360    10.1360    10.1360     0.0000    -0.0000     0.0000 </r>
      <r>     3.4487    10.5082    10.5082    10.5082     0.0000    -0.0000     0.0000 </r>
      <r>     3.4722    10.9278    10.9278    10.9278     0.0000    -0.0000     0.0000 </r>
      <r>     3.4956    11.4029    11.4029    11.4029     0.0000    -0.0000     0.0000 </r>
      <r>     3.5191    11.9349    11.9349    11.9349     0.0000    -0.0000     0.0000 </r>
      <r>     3.5425    12.5107    12.5107    12.5107     0.0000    -0.0000     0.0000 </r>
      <r>     3.5660    13.1007    13.1007    13.1007     0.0000    -0.0000     0.0000 </r>
      <r>     3.5895    13.6653    13.6653    13.6653     0.0000    -0.0000    -0.0000 </r>
      <r>     3.6129    14.1643    14.1643    14.1643     0.0000    -0.0000    -0.0000 </r>
      <r>     3.6364    14.5635    14.5635    14.5635     0.0000     0.0000    -0.0000 </r>
      <r>     3.6598    14.8368    14.8368    14.8368     0.0000     0.0000    -0.0000 </r>
      <r>     3.6833    14.9690    14.9690    14.9690     0.0000     0.0000    -0.0000 </r>
      <r>     3.7068    14.9611    14.9611    14.9611     0.0000     0.0000    -0.0000 </r>
      <r>     3.7302    14.8365    14.8365    14.8365     0.0000     0.0000    -0.0000 </r>
      <r>     3.7537    14.6352    14.6352    14.6352    -0.0000     0.0000     0.0000 </r>
      <r>     3.7771    14.3981    14.3981    14.3981    -0.0000     0.0000     0.0000 </r>
      <r>     3.8006    14.1585    14.1585    14.1585    -0.0000     0.0000     0.0000 </r>
      <r>     3.8241    13.9434    13.9434    13.9434    -0.0000     0.0000     0.0000 </r>
      <r>     3.8475    13.7782    13.7782    13.7782    -0.0000     0.0000     0.0000 </r>
      <r>     3.8710    13.6855    13.6855    13.6855    -0.0000     0.0000     0.0000 </r>
      <r>     3.8944    13.6788    13.6788    13.6788    -0.0000     0.0000     0.0000 </r>
      <r>     3.9179    13.7524    13.7524    13.7524    -0.0000     0.0000     0.0000 </r>
      <r>     3.9414    13.8818    13.8818    13.8818    -0.0000     0.0000     0.0000 </r>
      <r>     3.9648    14.0456    14.0456    14.0456    -0.0000     0.0000     0.0000 </r>
      <r>     3.9883    14.2461    14.2461    14.2461    -0.0000     0.0000     0.0000 </r>
      <r>     4.0117    14.5018    14.5018    14.5018    -0.0000     0.0000     0.0000 </r>
      <r>     4.0352    14.8308    14.8308    14.8308    -0.0000     0.0000    -0.0000 </r>
      <r>     4.0587    15.2417    15.2417    15.2417    -0.0000     0.0000    -0.0000 </r>
      <r>     4.0821    15.7234    15.7234    15.7234    -0.0000     0.0000    -0.0000 </r>
      <r>     4.1056    16.2315    16.2315    16.2315    -0.0000     0.0000    -0.0000 </r>
      <r>     4.1290    16.6931    16.6931    16.6931    -0.0000    -0.0000    -0.0000 </r>
      <r>     4.1525    17.0596    17.0596    17.0596    -0.0000    -0.0000    -0.0000 </r>
      <r>     4.1760    17.3516    17.3516    17.3516    -0.0000    -0.0000    -0.0000 </r>
      <r>     4.1994    17.6277    17.6277    17.6277    -0.0000    -0.0000    -0.0000 </r>
      <r>     4.2229    17.9340    17.9340    17.9340    -0.0000    -0.0000    -0.0000 </r>
      <r>     4.2463    18.2926    18.2926    18.2926    -0.0000    -0.0000    -0.0000 </r>
      <r>     4.2698    18.7102    18.7102    18.7102    -0.0000    -0.0000    -0.0000 </r>
      <r>     4.2933    19.1839    19.1839    19.1839    -0.0000    -0.0000     0.0000 </r>
      <r>     4.3167    19.6986    19.6986    19.6986    -0.0000    -0.0000     0.0000 </r>
      <r>     4.3402    20.2257    20.2257    20.2257    -0.0000    -0.0000     0.0000 </r>
      <r>     4.3636    20.7334    20.7334    20.7334    -0.0000    -0.0000     0.0000 </r>
      <r>     4.3871    21.2050    21.2050    21.2050    -0.0000    -0.0000     0.0000 </r>
      <r>     4.4106    21.6439    21.6439    21.6439    -0.0000    -0.0000     0.0000 </r>
      <r>     4.4340    22.0642    22.0642    22.0642    -0.0000    -0.0000     0.0000 </r>
      <r>     4.4575    22.4826    22.4826    22.4826    -0.0000    -0.0000     0.0000 </r>
      <r>     4.4810    22.9183    22.9183    22.9183    -0.0000    -0.0000     0.0000 </r>
      <r>     4.5044    23.3936    23.3936    23.3936    -0.0000    -0.0000     0.0000 </r>
      <r>     4.5279    23.9326    23.9326    23.9326    -0.0000    -0.0000     0.0000 </r>
      <r>     4.5513    24.5551    24.5551    24.5551    -0.0000    -0.0000     0.0000 </r>
      <r>     4.5748    25.2636    25.2636    25.2636    -0.0000    -0.0000     0.0000 </r>
      <r>     4.5983    26.0221    26.0221    26.0221    -0.0000    -0.0000     0.0000 </r>
      <r>     4.6217    26.7429    26.7429    26.7429    -0.0000    -0.0000     0.0000 </r>
      <r>     4.6452    27.3055    27.3055    27.3055    -0.0000    -0.0000     0.0000 </r>
      <r>     4.6686    27.6186    27.6186    27.6186    -0.0000    -0.0000     0.0000 </r>
      <r>     4.6921    27.6655    27.6655    27.6655    -0.0000    -0.0000     0.0000 </r>
      <r>     4.7156    27.4768    27.4768    27.4768    -0.0000    -0.0000     0.0000 </r>
      <r>     4.7390    27.0891    27.0891    27.0891    -0.0000    -0.0000     0.0000 </r>
      <r>     4.7625    26.5405    26.5405    26.5405    -0.0000    -0.0000     0.0000 </r>
      <r>     4.7859    25.8758    25.8758    25.8758    -0.0000    -0.0000     0.0000 </r>
      <r>     4.8094    25.1440    25.1440    25.1440    -0.0000    -0.0000     0.0000 </r>
      <r>     4.8329    24.3936    24.3936    24.3936    -0.0000    -0.0000     0.0000 </r>
      <r>     4.8563    23.6713    23.6713    23.6713    -0.0000    -0.0000     0.0000 </r>
      <r>     4.8798    23.0222    23.0222    23.0222    -0.0000    -0.0000     0.0000 </r>
      <r>     4.9032    22.4810    22.4810    22.4810    -0.0000    -0.0000     0.0000 </r>
      <r>     4.9267    22.0610    22.0610    22.0610    -0.0000    -0.0000     0.0000 </r>
      <r>     4.9502    21.7547    21.7547    21.7547     0.0000    -0.0000     0.0000 </r>
      <r>     4.9736    21.5436    21.5436    21.5436     0.0000    -0.0000     0.0000 </r>
      <r>     4.9971    21.4081    21.4081    21.4081     0.0000    -0.0000     0.0000 </r>
      <r>     5.0205    21.3314    21.3314    21.3314     0.0000    -0.0000     0.0000 </r>
      <r>     5.0440    21.3008    21.3008    21.3008     0.0000    -0.0000     0.0000 </r>
      <r>     5.0675    21.3056    21.3056    21.3056     0.0000    -0.0000     0.0000 </r>
      <r>     5.0909    21.3325    21.3325    21.3325    -0.0000    -0.0000     0.0000 </r>
      <r>     5.1144    21.3671    21.3671    21.3671    -0.0000    -0.0000    -0.0000 </r>
      <r>     5.1378    21.4005    21.4005    21.4005    -0.0000    -0.0000    -0.0000 </r>
      <r>     5.1613    21.4343    21.4343    21.4343    -0.0000    -0.0000    -0.0000 </r>
      <r>     5.1848    21.4727    21.4727    21.4727    -0.0000    -0.0000    -0.0000 </r>
      <r>     5.2082    21.5104    21.5104    21.5104    -0.0000    -0.0000    -0.0000 </r>
      <r>     5.2317    21.5291    21.5291    21.5291    -0.0000    -0.0000    -0.0000 </r>
      <r>     5.2551    21.5057    21.5057    21.5057    -0.0000    -0.0000    -0.0000 </r>
      <r>     5.2786    21.4256    21.4256    21.4256    -0.0000    -0.0000    -0.0000 </r>
      <r>     5.3021    21.2892    21.2892    21.2892    -0.0000    -0.0000    -0.0000 </r>
      <r>     5.3255    21.1092    21.1092    21.1092    -0.0000    -0.0000    -0.0000 </r>
      <r>     5.3490    20.9028    20.9028    20.9028    -0.0000    -0.0000    -0.0000 </r>
      <r>     5.3724    20.6842    20.6842    20.6842    -0.0000    -0.0000    -0.0000 </r>
      <r>     5.3959    20.4600    20.4600    20.4600    -0.0000     0.0000    -0.0000 </r>
      <r>     5.4194    20.2294    20.2294    20.2294    -0.0000     0.0000    -0.0000 </r>
      <r>     5.4428    19.9873    19.9873    19.9873    -0.0000    -0.0000    -0.0000 </r>
      <r>     5.4663    19.7276    19.7276    19.7276    -0.0000    -0.0000    -0.0000 </r>
      <r>     5.4898    19.4463    19.4463    19.4463    -0.0000    -0.0000    -0.0000 </r>
      <r>     5.5132    19.1415    19.1415    19.1415    -0.0000    -0.0000    -0.0000 </r>
      <r>     5.5367    18.8139    18.8139    18.8139    -0.0000    -0.0000    -0.0000 </r>
      <r>     5.5601    18.4642    18.4642    18.4642    -0.0000    -0.0000    -0.0000 </r>
      <r>     5.5836    18.0917    18.0917    18.0917    -0.0000    -0.0000    -0.0000 </r>
      <r>     5.6071    17.6952    17.6952    17.6952    -0.0000    -0.0000    -0.0000 </r>
      <r>     5.6305    17.2771    17.2771    17.2771    -0.0000    -0.0000    -0.0000 </r>
      <r>     5.6540    16.8465    16.8465    16.8465     0.0000    -0.0000    -0.0000 </r>
      <r>     5.6774    16.4170    16.4170    16.4170     0.0000     0.0000    -0.0000 </r>
      <r>     5.7009    16.0019    16.0019    16.0019     0.0000     0.0000    -0.0000 </r>
      <r>     5.7244    15.6099    15.6099    15.6099     0.0000     0.0000    -0.0000 </r>
      <r>     5.7478    15.2413    15.2413    15.2413     0.0000     0.0000    -0.0000 </r>
      <r>     5.7713    14.8893    14.8893    14.8893     0.0000     0.0000    -0.0000 </r>
      <r>     5.7947    14.5486    14.5486    14.5486     0.0000     0.0000    -0.0000 </r>
      <r>     5.8182    14.2208    14.2208    14.2208     0.0000     0.0000    -0.0000 </r>
      <r>     5.8417    13.9130    13.9130    13.9130     0.0000     0.0000    -0.0000 </r>
      <r>     5.8651    13.6339    13.6339    13.6339     0.0000     0.0000    -0.0000 </r>
      <r>     5.8886    13.3947    13.3947    13.3947     0.0000     0.0000    -0.0000 </r>
      <r>     5.9120    13.2100    13.2100    13.2100     0.0000     0.0000    -0.0000 </r>
      <r>     5.9355    13.0938    13.0938    13.0938     0.0000     0.0000    -0.0000 </r>
      <r>     5.9590    13.0492    13.0492    13.0492     0.0000     0.0000    -0.0000 </r>
      <r>     5.9824    13.0596    13.0596    13.0596     0.0000     0.0000    -0.0000 </r>
      <r>     6.0059    13.0944    13.0944    13.0944    -0.0000     0.0000    -0.0000 </r>
      <r>     6.0293    13.1251    13.1251    13.1251    -0.0000     0.0000    -0.0000 </r>
      <r>     6.0528    13.1296    13.1296    13.1296    -0.0000     0.0000    -0.0000 </r>
      <r>     6.0763    13.0851    13.0851    13.0851    -0.0000     0.0000    -0.0000 </r>
      <r>     6.0997    12.9722    12.9722    12.9722    -0.0000     0.0000    -0.0000 </r>
      <r>     6.1232    12.7862    12.7862    12.7862    -0.0000     0.0000    -0.0000 </r>
      <r>     6.1466    12.5363    12.5363    12.5363    -0.0000     0.0000    -0.0000 </r>
      <r>     6.1701    12.2348    12.2348    12.2348    -0.0000     0.0000    -0.0000 </r>
      <r>     6.1936    11.8940    11.8940    11.8940    -0.0000     0.0000    -0.0000 </r>
      <r>     6.2170    11.5310    11.5310    11.5310    -0.0000     0.0000    -0.0000 </r>
      <r>     6.2405    11.1644    11.1644    11.1644     0.0000     0.0000    -0.0000 </r>
      <r>     6.2639    10.8070    10.8070    10.8070     0.0000     0.0000    -0.0000 </r>
      <r>     6.2874    10.4622    10.4622    10.4622     0.0000     0.0000    -0.0000 </r>
      <r>     6.3109    10.1276    10.1276    10.1276     0.0000     0.0000    -0.0000 </r>
      <r>     6.3343     9.8002     9.8002     9.8002     0.0000     0.0000    -0.0000 </r>
      <r>     6.3578     9.4778     9.4778     9.4778     0.0000     0.0000    -0.0000 </r>
      <r>     6.3812     9.1598     9.1598     9.1598     0.0000     0.0000    -0.0000 </r>
      <r>     6.4047     8.8470     8.8470     8.8470     0.0000     0.0000    -0.0000 </r>
      <r>     6.4282     8.5417     8.5417     8.5417     0.0000     0.0000    -0.0000 </r>
      <r>     6.4516     8.2464     8.2464     8.2464     0.0000     0.0000    -0.0000 </r>
      <r>     6.4751     7.9627     7.9627     7.9627     0.0000     0.0000    -0.0000 </r>
      <r>     6.4986     7.6917     7.6917     7.6917     0.0000     0.0000    -0.0000 </r>
      <r>     6.5220     7.4342     7.4342     7.4342     0.0000    -0.0000    -0.0000 </r>
      <r>     6.5455     7.1914     7.1914     7.1914     0.0000    -0.0000    -0.0000 </r>
      <r>     6.5689     6.9648     6.9648     6.9648     0.0000    -0.0000    -0.0000 </r>
      <r>     6.5924     6.7563     6.7563     6.7563     0.0000     0.0000    -0.0000 </r>
      <r>     6.6159     6.5669     6.5669     6.5669     0.0000     0.0000    -0.0000 </r>
      <r>     6.6393     6.3938     6.3938     6.3938     0.0000     0.0000    -0.0000 </r>
      <r>     6.6628     6.2272     6.2272     6.2272     0.0000     0.0000    -0.0000 </r>
      <r>     6.6862     6.0517     6.0517     6.0517     0.0000     0.0000    -0.0000 </r>
      <r>     6.7097     5.8577     5.8577     5.8577     0.0000     0.0000    -0.0000 </r>
      <r>     6.7332     5.6510     5.6510     5.6510     0.0000     0.0000    -0.0000 </r>
      <r>     6.7566     5.4455     5.4455     5.4455     0.0000     0.0000    -0.0000 </r>
      <r>     6.7801     5.2527     5.2527     5.2527     0.0000     0.0000    -0.0000 </r>
      <r>     6.8035     5.0772     5.0772     5.0772     0.0000     0.0000    -0.0000 </r>
      <r>     6.8270     4.9188     4.9188     4.9188     0.0000     0.0000    -0.0000 </r>
      <r>     6.8505     4.7753     4.7753     4.7753     0.0000     0.0000    -0.0000 </r>
      <r>     6.8739     4.6444     4.6444     4.6444     0.0000     0.0000    -0.0000 </r>
      <r>     6.8974     4.5247     4.5247     4.5247     0.0000     0.0000    -0.0000 </r>
      <r>     6.9208     4.4153     4.4153     4.4153     0.0000     0.0000    -0.0000 </r>
      <r>     6.9443     4.3154     4.3154     4.3154     0.0000     0.0000    -0.0000 </r>
      <r>     6.9678     4.2246     4.2246     4.2246     0.0000     0.0000    -0.0000 </r>
      <r>     6.9912     4.1423     4.1423     4.1423     0.0000     0.0000    -0.0000 </r>
      <r>     7.0147     4.0683     4.0683     4.0683     0.0000     0.0000    -0.0000 </r>
      <r>     7.0381     4.0022     4.0022     4.0022     0.0000     0.0000     0.0000 </r>
      <r>     7.0616     3.9436     3.9436     3.9436     0.0000     0.0000     0.0000 </r>
      <r>     7.0851     3.8919     3.8919     3.8919     0.0000     0.0000     0.0000 </r>
      <r>     7.1085     3.8470     3.8470     3.8470     0.0000     0.0000     0.0000 </r>
      <r>     7.1320     3.8087     3.8087     3.8087     0.0000     0.0000    -0.0000 </r>
      <r>     7.1554     3.7772     3.7772     3.7772     0.0000     0.0000    -0.0000 </r>
      <r>     7.1789     3.7524     3.7524     3.7524     0.0000     0.0000    -0.0000 </r>
      <r>     7.2024     3.7336     3.7336     3.7336     0.0000     0.0000    -0.0000 </r>
      <r>     7.2258     3.7191     3.7191     3.7191     0.0000     0.0000    -0.0000 </r>
      <r>     7.2493     3.7062     3.7062     3.7062    -0.0000     0.0000    -0.0000 </r>
      <r>     7.2727     3.6925     3.6925     3.6925    -0.0000     0.0000    -0.0000 </r>
      <r>     7.2962     3.6770     3.6770     3.6770    -0.0000     0.0000    -0.0000 </r>
      <r>     7.3197     3.6598     3.6598     3.6598    -0.0000     0.0000    -0.0000 </r>
      <r>     7.3431     3.6426     3.6426     3.6426    -0.0000     0.0000    -0.0000 </r>
      <r>     7.3666     3.6273     3.6273     3.6273    -0.0000    -0.0000    -0.0000 </r>
      <r>     7.3900     3.6165     3.6165     3.6165    -0.0000     0.0000    -0.0000 </r>
      <r>     7.4135     3.6123     3.6123     3.6123    -0.0000     0.0000    -0.0000 </r>
      <r>     7.4370     3.6163     3.6163     3.6163    -0.0000     0.0000    -0.0000 </r>
      <r>     7.4604     3.6292     3.6292     3.6292    -0.0000     0.0000    -0.0000 </r>
      <r>     7.4839     3.6494     3.6494     3.6494    -0.0000     0.0000    -0.0000 </r>
      <r>     7.5074     3.6720     3.6720     3.6720    -0.0000     0.0000    -0.0000 </r>
      <r>     7.5308     3.6889     3.6889     3.6889     0.0000     0.0000    -0.0000 </r>
      <r>     7.5543     3.6918     3.6918     3.6918     0.0000     0.0000    -0.0000 </r>
      <r>     7.5777     3.6745     3.6745     3.6745     0.0000     0.0000    -0.0000 </r>
      <r>     7.6012     3.6353     3.6353     3.6353     0.0000     0.0000    -0.0000 </r>
      <r>     7.6247     3.5759     3.5759     3.5759     0.0000     0.0000    -0.0000 </r>
      <r>     7.6481     3.5014     3.5014     3.5014     0.0000     0.0000    -0.0000 </r>
      <r>     7.6716     3.4186     3.4186     3.4186     0.0000     0.0000    -0.0000 </r>
      <r>     7.6950     3.3346     3.3346     3.3346     0.0000     0.0000    -0.0000 </r>
      <r>     7.7185     3.2545     3.2545     3.2545     0.0000     0.0000    -0.0000 </r>
      <r>     7.7420     3.1810     3.1810     3.1810     0.0000     0.0000    -0.0000 </r>
      <r>     7.7654     3.1144     3.1144     3.1144     0.0000     0.0000    -0.0000 </r>
      <r>     7.7889     3.0544     3.0544     3.0544     0.0000     0.0000    -0.0000 </r>
      <r>     7.8123     2.9999     2.9999     2.9999     0.0000     0.0000    -0.0000 </r>
      <r>     7.8358     2.9496     2.9496     2.9496     0.0000     0.0000     0.0000 </r>
      <r>     7.8593     2.9021     2.9021     2.9021     0.0000     0.0000     0.0000 </r>
      <r>     7.8827     2.8561     2.8561     2.8561    -0.0000    -0.0000     0.0000 </r>
      <r>     7.9062     2.8112     2.8112     2.8112    -0.0000    -0.0000     0.0000 </r>
      <r>     7.9296     2.7672     2.7672     2.7672    -0.0000     0.0000     0.0000 </r>
      <r>     7.9531     2.7246     2.7246     2.7246    -0.0000     0.0000     0.0000 </r>
      <r>     7.9766     2.6842     2.6842     2.6842    -0.0000     0.0000     0.0000 </r>
      <r>     8.0000     2.6470     2.6470     2.6470    -0.0000     0.0000     0.0000 </r>
      <r>     8.0235     2.6141     2.6141     2.6141    -0.0000     0.0000    -0.0000 </r>
      <r>     8.0469     2.5864     2.5864     2.5864    -0.0000     0.0000    -0.0000 </r>
      <r>     8.0704     2.5638     2.5638     2.5638    -0.0000     0.0000    -0.0000 </r>
      <r>     8.0939     2.5453     2.5453     2.5453    -0.0000     0.0000    -0.0000 </r>
      <r>     8.1173     2.5281     2.5281     2.5281    -0.0000     0.0000    -0.0000 </r>
      <r>     8.1408     2.5083     2.5083     2.5083    -0.0000     0.0000    -0.0000 </r>
      <r>     8.1642     2.4826     2.4826     2.4826    -0.0000     0.0000    -0.0000 </r>
      <r>     8.1877     2.4500     2.4500     2.4500    -0.0000     0.0000    -0.0000 </r>
      <r>     8.2112     2.4118     2.4118     2.4118    -0.0000     0.0000    -0.0000 </r>
      <r>     8.2346     2.3707     2.3707     2.3707    -0.0000     0.0000    -0.0000 </r>
      <r>     8.2581     2.3291     2.3291     2.3291    -0.0000     0.0000    -0.0000 </r>
      <r>     8.2815     2.2888     2.2888     2.2888    -0.0000     0.0000    -0.0000 </r>
      <r>     8.3050     2.2506     2.2506     2.2506    -0.0000     0.0000    -0.0000 </r>
      <r>     8.3285     2.2145     2.2145     2.2145    -0.0000     0.0000    -0.0000 </r>
      <r>     8.3519     2.1807     2.1807     2.1807    -0.0000     0.0000    -0.0000 </r>
      <r>     8.3754     2.1488     2.1488     2.1488    -0.0000     0.0000    -0.0000 </r>
      <r>     8.3989     2.1181     2.1181     2.1181    -0.0000    -0.0000    -0.0000 </r>
      <r>     8.4223     2.0875     2.0875     2.0875    -0.0000    -0.0000    -0.0000 </r>
      <r>     8.4458     2.0557     2.0557     2.0557    -0.0000    -0.0000    -0.0000 </r>
      <r>     8.4692     2.0215     2.0215     2.0215    -0.0000    -0.0000    -0.0000 </r>
      <r>     8.4927     1.9846     1.9846     1.9846    -0.0000    -0.0000    -0.0000 </r>
      <r>     8.5162     1.9449     1.9449     1.9449    -0.0000    -0.0000    -0.0000 </r>
      <r>     8.5396     1.9032     1.9032     1.9032    -0.0000    -0.0000     0.0000 </r>
      <r>     8.5631     1.8607     1.8607     1.8607    -0.0000    -0.0000     0.0000 </r>
      <r>     8.5865     1.8184     1.8184     1.8184    -0.0000    -0.0000     0.0000 </r>
      <r>     8.6100     1.7773     1.7773     1.7773    -0.0000    -0.0000     0.0000 </r>
      <r>     8.6335     1.7385     1.7385     1.7385    -0.0000     0.0000     0.0000 </r>
      <r>     8.6569     1.7019     1.7019     1.7019    -0.0000     0.0000     0.0000 </r>
      <r>     8.6804     1.6653     1.6653     1.6653    -0.0000     0.0000     0.0000 </r>
      <r>     8.7038     1.6247     1.6247     1.6247    -0.0000     0.0000     0.0000 </r>
      <r>     8.7273     1.5764     1.5764     1.5764    -0.0000     0.0000     0.0000 </r>
      <r>     8.7508     1.5211     1.5211     1.5211    -0.0000     0.0000     0.0000 </r>
      <r>     8.7742     1.4643     1.4643     1.4643    -0.0000     0.0000     0.0000 </r>
      <r>     8.7977     1.4116     1.4116     1.4116    -0.0000     0.0000     0.0000 </r>
      <r>     8.8211     1.3654     1.3654     1.3654     0.0000     0.0000     0.0000 </r>
      <r>     8.8446     1.3248     1.3248     1.3248     0.0000     0.0000     0.0000 </r>
      <r>     8.8681     1.2877     1.2877     1.2877     0.0000     0.0000     0.0000 </r>
      <r>     8.8915     1.2521     1.2521     1.2521     0.0000     0.0000     0.0000 </r>
      <r>     8.9150     1.2172     1.2172     1.2172     0.0000     0.0000     0.0000 </r>
      <r>     8.9384     1.1830     1.1830     1.1830     0.0000     0.0000     0.0000 </r>
      <r>     8.9619     1.1502     1.1502     1.1502     0.0000     0.0000     0.0000 </r>
      <r>     8.9854     1.1203     1.1203     1.1203     0.0000     0.0000     0.0000 </r>
      <r>     9.0088     1.0945     1.0945     1.0945     0.0000     0.0000     0.0000 </r>
      <r>     9.0323     1.0734     1.0734     1.0734     0.0000     0.0000     0.0000 </r>
      <r>     9.0557     1.0573     1.0573     1.0573     0.0000     0.0000     0.0000 </r>
      <r>     9.0792     1.0460     1.0460     1.0460    -0.0000     0.0000     0.0000 </r>
      <r>     9.1027     1.0388     1.0388     1.0388    -0.0000     0.0000     0.0000 </r>
      <r>     9.1261     1.0345     1.0345     1.0345    -0.0000     0.0000     0.0000 </r>
      <r>     9.1496     1.0310     1.0310     1.0310    -0.0000     0.0000     0.0000 </r>
      <r>     9.1730     1.0260     1.0260     1.0260    -0.0000     0.0000     0.0000 </r>
      <r>     9.1965     1.0174     1.0174     1.0174    -0.0000     0.0000     0.0000 </r>
      <r>     9.2200     1.0046     1.0046     1.0046    -0.0000     0.0000     0.0000 </r>
      <r>     9.2434     0.9884     0.9884     0.9884    -0.0000     0.0000     0.0000 </r>
      <r>     9.2669     0.9700     0.9700     0.9700    -0.0000     0.0000     0.0000 </r>
      <r>     9.2903     0.9505     0.9505     0.9505    -0.0000     0.0000     0.0000 </r>
      <r>     9.3138     0.9304     0.9304     0.9304    -0.0000     0.0000     0.0000 </r>
      <r>     9.3373     0.9101     0.9101     0.9101    -0.0000     0.0000     0.0000 </r>
      <r>     9.3607     0.8896     0.8896     0.8896    -0.0000     0.0000     0.0000 </r>
      <r>     9.3842     0.8692     0.8692     0.8692    -0.0000     0.0000     0.0000 </r>
      <r>     9.4077     0.8486     0.8486     0.8486    -0.0000    -0.0000     0.0000 </r>
      <r>     9.4311     0.8278     0.8278     0.8278    -0.0000    -0.0000     0.0000 </r>
      <r>     9.4546     0.8064     0.8064     0.8064    -0.0000    -0.0000     0.0000 </r>
      <r>     9.4780     0.7844     0.7844     0.7844    -0.0000    -0.0000     0.0000 </r>
      <r>     9.5015     0.7616     0.7616     0.7616    -0.0000    -0.0000     0.0000 </r>
      <r>     9.5250     0.7381     0.7381     0.7381    -0.0000    -0.0000     0.0000 </r>
      <r>     9.5484     0.7138     0.7138     0.7138    -0.0000    -0.0000     0.0000 </r>
      <r>     9.5719     0.6890     0.6890     0.6890    -0.0000    -0.0000     0.0000 </r>
      <r>     9.5953     0.6641     0.6641     0.6641    -0.0000    -0.0000     0.0000 </r>
      <r>     9.6188     0.6398     0.6398     0.6398    -0.0000    -0.0000    -0.0000 </r>
      <r>     9.6423     0.6166     0.6166     0.6166    -0.0000    -0.0000    -0.0000 </r>
      <r>     9.6657     0.5950     0.5950     0.5950    -0.0000    -0.0000    -0.0000 </r>
      <r>     9.6892     0.5753     0.5753     0.5753    -0.0000    -0.0000    -0.0000 </r>
      <r>     9.7126     0.5573     0.5573     0.5573    -0.0000    -0.0000    -0.0000 </r>
      <r>     9.7361     0.5410     0.5410     0.5410    -0.0000    -0.0000    -0.0000 </r>
      <r>     9.7596     0.5260     0.5260     0.5260    -0.0000    -0.0000    -0.0000 </r>
      <r>     9.7830     0.5123     0.5123     0.5123    -0.0000    -0.0000     0.0000 </r>
      <r>     9.8065     0.4997     0.4997     0.4997    -0.0000    -0.0000     0.0000 </r>
      <r>     9.8299     0.4881     0.4881     0.4881    -0.0000    -0.0000     0.0000 </r>
      <r>     9.8534     0.4776     0.4776     0.4776    -0.0000    -0.0000     0.0000 </r>
      <r>     9.8769     0.4685     0.4685     0.4685    -0.0000    -0.0000     0.0000 </r>
      <r>     9.9003     0.4610     0.4610     0.4610    -0.0000    -0.0000     0.0000 </r>
      <r>     9.9238     0.4554     0.4554     0.4554    -0.0000    -0.0000     0.0000 </r>
      <r>     9.9472     0.4516     0.4516     0.4516    -0.0000    -0.0000     0.0000 </r>
      <r>     9.9707     0.4488     0.4488     0.4488    -0.0000    -0.0000     0.0000 </r>
      <r>     9.9942     0.4462     0.4462     0.4462    -0.0000    -0.0000     0.0000 </r>
      <r>    10.0176     0.4432     0.4432     0.4432    -0.0000    -0.0000     0.0000 </r>
      <r>    10.0411     0.4396     0.4396     0.4396    -0.0000    -0.0000     0.0000 </r>
      <r>    10.0645     0.4355     0.4355     0.4355    -0.0000    -0.0000     0.0000 </r>
      <r>    10.0880     0.4306     0.4306     0.4306    -0.0000    -0.0000     0.0000 </r>
      <r>    10.1115     0.4246     0.4246     0.4246    -0.0000    -0.0000     0.0000 </r>
      <r>    10.1349     0.4164     0.4164     0.4164    -0.0000    -0.0000     0.0000 </r>
      <r>    10.1584     0.4055     0.4055     0.4055    -0.0000    -0.0000     0.0000 </r>
      <r>    10.1818     0.3920     0.3920     0.3920    -0.0000    -0.0000     0.0000 </r>
      <r>    10.2053     0.3771     0.3771     0.3771    -0.0000    -0.0000     0.0000 </r>
      <r>    10.2288     0.3617     0.3617     0.3617    -0.0000    -0.0000     0.0000 </r>
      <r>    10.2522     0.3466     0.3466     0.3466    -0.0000    -0.0000     0.0000 </r>
      <r>    10.2757     0.3323     0.3323     0.3323    -0.0000    -0.0000     0.0000 </r>
      <r>    10.2991     0.3193     0.3193     0.3193    -0.0000    -0.0000     0.0000 </r>
      <r>    10.3226     0.3077     0.3077     0.3077    -0.0000    -0.0000     0.0000 </r>
      <r>    10.3461     0.2978     0.2978     0.2978    -0.0000    -0.0000     0.0000 </r>
      <r>    10.3695     0.2894     0.2894     0.2894    -0.0000    -0.0000     0.0000 </r>
      <r>    10.3930     0.2822     0.2822     0.2822    -0.0000    -0.0000     0.0000 </r>
      <r>    10.4165     0.2759     0.2759     0.2759    -0.0000    -0.0000     0.0000 </r>
      <r>    10.4399     0.2701     0.2701     0.2701    -0.0000    -0.0000     0.0000 </r>
      <r>    10.4634     0.2647     0.2647     0.2647    -0.0000    -0.0000     0.0000 </r>
      <r>    10.4868     0.2595     0.2595     0.2595    -0.0000    -0.0000     0.0000 </r>
      <r>    10.5103     0.2544     0.2544     0.2544    -0.0000    -0.0000     0.0000 </r>
      <r>    10.5338     0.2494     0.2494     0.2494    -0.0000     0.0000     0.0000 </r>
      <r>    10.5572     0.2447     0.2447     0.2447    -0.0000     0.0000     0.0000 </r>
      <r>    10.5807     0.2402     0.2402     0.2402    -0.0000     0.0000     0.0000 </r>
      <r>    10.6041     0.2361     0.2361     0.2361    -0.0000     0.0000     0.0000 </r>
      <r>    10.6276     0.2324     0.2324     0.2324    -0.0000     0.0000     0.0000 </r>
      <r>    10.6511     0.2289     0.2289     0.2289    -0.0000     0.0000     0.0000 </r>
      <r>    10.6745     0.2258     0.2258     0.2258    -0.0000     0.0000     0.0000 </r>
      <r>    10.6980     0.2228     0.2228     0.2228    -0.0000     0.0000     0.0000 </r>
      <r>    10.7214     0.2201     0.2201     0.2201    -0.0000     0.0000     0.0000 </r>
      <r>    10.7449     0.2178     0.2178     0.2178    -0.0000     0.0000     0.0000 </r>
      <r>    10.7684     0.2158     0.2158     0.2158    -0.0000     0.0000     0.0000 </r>
      <r>    10.7918     0.2142     0.2142     0.2142    -0.0000     0.0000     0.0000 </r>
      <r>    10.8153     0.2131     0.2131     0.2131    -0.0000     0.0000     0.0000 </r>
      <r>    10.8387     0.2123     0.2123     0.2123     0.0000     0.0000     0.0000 </r>
      <r>    10.8622     0.2118     0.2118     0.2118     0.0000     0.0000     0.0000 </r>
      <r>    10.8857     0.2115     0.2115     0.2115     0.0000     0.0000     0.0000 </r>
      <r>    10.9091     0.2116     0.2116     0.2116     0.0000     0.0000     0.0000 </r>
      <r>    10.9326     0.2120     0.2120     0.2120     0.0000     0.0000     0.0000 </r>
      <r>    10.9560     0.2128     0.2128     0.2128     0.0000     0.0000     0.0000 </r>
      <r>    10.9795     0.2139     0.2139     0.2139     0.0000     0.0000     0.0000 </r>
      <r>    11.0030     0.2149     0.2149     0.2149     0.0000     0.0000     0.0000 </r>
      <r>    11.0264     0.2153     0.2153     0.2153     0.0000     0.0000     0.0000 </r>
[...]
     <r>     8.9906     0.2072     0.2072     0.2072    -0.0000    -0.0000    -0.0000 </r>
     <r>     9.0007     0.2068     0.2068     0.2068     0.0000     0.0000    -0.0000 </r>
     <r>     9.0107     0.2062     0.2062     0.2062    -0.0000    -0.0000     0.0000 </r>
     <r>     9.0207     0.2056     0.2056     0.2056    -0.0000    -0.0000     0.0000 </r>
     <r>     9.0307     0.2048     0.2048     0.2048     0.0000     0.0000     0.0000 </r>
     <r>     9.0407     0.2039     0.2039     0.2039     0.0000    -0.0000    -0.0000 </r>
     <r>     9.0507     0.1993     0.1993     0.1993     0.0000     0.0000     0.0000 </r>
     <r>     9.0607     0.1849     0.1849     0.1849    -0.0000     0.0000    -0.0000 </r>
     <r>     9.0707     0.1707     0.1707     0.1707    -0.0000    -0.0000     0.0000 </r>
     <r>     9.0807     0.1537     0.1537     0.1537     0.0000     0.0000     0.0000 </r>
     <r>     9.0907     0.1397     0.1397     0.1397    -0.0000     0.0000     0.0000 </r>
     <r>     9.1008     0.1432     0.1432     0.1432     0.0000     0.0000     0.0000 </r>
     <r>     9.1108     0.1466     0.1466     0.1466     0.0000     0.0000    -0.0000 </r>
     <r>     9.1208     0.1535     0.1535     0.1535    -0.0000    -0.0000     0.0000 </r>
     <r>     9.1308     0.1560     0.1560     0.1560    -0.0000     0.0000    -0.0000 </r>
     <r>     9.1408     0.1602     0.1602     0.1602     0.0000     0.0000     0.0000 </r>
     <r>     9.1508     0.1644     0.1644     0.1644     0.0000    -0.0000    -0.0000 </r>
     <r>     9.1608     0.1685     0.1685     0.1685     0.0000     0.0000    -0.0000 </r>
     <r>     9.1708     0.1727     0.1727     0.1727     0.0000     0.0000    -0.0000 </r>
     <r>     9.1808     0.1767     0.1767     0.1767     0.0000    -0.0000     0.0000 </r>
     <r>     9.1908     0.1808     0.1808     0.1808     0.0000     0.0000    -0.0000 </r>
     <r>     9.2009     0.1848     0.1848     0.1848     0.0000    -0.0000     0.0000 </r>
     <r>     9.2109     0.1888     0.1888     0.1888     0.0000     0.0000     0.0000 </r>
     <r>     9.2209     0.1927     0.1927     0.1927     0.0000     0.0000    -0.0000 </r>
     <r>     9.2309     0.2032     0.2032     0.2032    -0.0000    -0.0000     0.0000 </r>
     <r>     9.2409     0.2053     0.2053     0.2053    -0.0000     0.0000    -0.0000 </r>
     <r>     9.2509     0.2073     0.2073     0.2073    -0.0000    -0.0000    -0.0000 </r>
     <r>     9.2609     0.2092     0.2092     0.2092     0.0000     0.0000     0.0000 </r>
     <r>     9.2709     0.2110     0.2110     0.2110     0.0000     0.0000    -0.0000 </r>
     <r>     9.2809     0.2167     0.2167     0.2167    -0.0000    -0.0000    -0.0000 </r>
     <r>     9.2909     0.2182     0.2182     0.2182     0.0000     0.0000     0.0000 </r>
     <r>     9.3010     0.2196     0.2196     0.2196    -0.0000    -0.0000     0.0000 </r>
     <r>     9.3110     0.2208     0.2208     0.2208    -0.0000    -0.0000    -0.0000 </r>
     <r>     9.3210     0.2219     0.2219     0.2219     0.0000    -0.0000     0.0000 </r>
     <r>     9.3310     0.2228     0.2228     0.2228    -0.0000     0.0000    -0.0000 </r>
     <r>     9.3410     0.2237     0.2237     0.2237     0.0000     0.0000    -0.0000 </r>
     <r>     9.3510     0.2243     0.2243     0.2243    -0.0000    -0.0000     0.0000 </r>
     <r>     9.3610     0.2249     0.2249     0.2249    -0.0000    -0.0000     0.0000 </r>
     <r>     9.3710     0.2253     0.2253     0.2253     0.0000    -0.0000     0.0000 </r>
     <r>     9.3810     0.2256     0.2256     0.2256     0.0000    -0.0000     0.0000 </r>
    </set>
   </array>
  </conductivity>
  <dos>
   <i name="efermi">      4.38103602 </i>
   <total>
    <array>
     <dimension dim="1">gridpoints</dimension>
     <dimension dim="2">spin</dimension>
     <field>energy</field>
     <field>total</field>
     <field>integrated</field>
     <set>
      <set comment="spin 1">
       <r>   -10.7646     0.0000     0.0000 </r>
       <r>   -10.6928     0.0000     0.0000 </r>
       <r>   -10.6210     0.0000     0.0000 </r>
       <r>   -10.5493     0.0000     0.0000 </r>
       <r>   -10.4775     0.0000     0.0000 </r>
       <r>   -10.4057     0.0000     0.0000 </r>
       <r>   -10.3340     0.0000     0.0000 </r>
       <r>   -10.2622     0.0000     0.0000 </r>
       <r>   -10.1904     0.0000     0.0000 </r>
       <r>   -10.1186     0.0000     0.0000 </r>
       <r>   -10.0469     0.0000     0.0000 </r>
       <r>    -9.9751     0.0000     0.0000 </r>
       <r>    -9.9033     0.0000     0.0000 </r>
       <r>    -9.8316     0.0000     0.0000 </r>
       <r>    -9.7598     0.0003     0.0000 </r>
       <r>    -9.6880     0.0679     0.0017 </r>
       <r>    -9.6163     0.2551     0.0126 </r>
       <r>    -9.5445     0.5244     0.0407 </r>
       <r>    -9.4727     0.6957     0.0852 </r>
       <r>    -9.4009     0.7464     0.1377 </r>
       <r>    -9.3292     0.7790     0.1921 </r>
       <r>    -9.2574     0.8581     0.2506 </r>
       <r>    -9.1856     0.9712     0.3162 </r>
       <r>    -9.1139     1.0917     0.3902 </r>
       <r>    -9.0421     1.3719     0.4747 </r>
       <r>    -8.9703     1.9109     0.5934 </r>
       <r>    -8.8986     2.3088     0.7456 </r>
       <r>    -8.8268     1.9701     0.8988 </r>
       <r>    -8.7550     1.6898     1.0298 </r>
       <r>    -8.6833     1.6517     1.1488 </r>
       <r>    -8.6115     1.6289     1.2666 </r>
       <r>    -8.5397     1.5904     1.3823 </r>
       <r>    -8.4679     1.5360     1.4945 </r>
       <r>    -8.3962     1.9985     1.6243 </r>
       <r>    -8.3244     1.5059     1.7497 </r>
       <r>    -8.2526     0.8438     1.8260 </r>
       <r>    -8.1809     1.2941     1.8971 </r>
       <r>    -8.1091     2.0528     2.0164 </r>
       <r>    -8.0373     2.4354     2.1831 </r>
       <r>    -7.9656     2.5555     2.3621 </r>
       <r>    -7.8938     2.7823     2.5525 </r>
       <r>    -7.8220     2.8052     2.7453 </r>
       <r>    -7.7502     3.0060     2.9541 </r>
       <r>    -7.6785     5.9769     3.2954 </r>
       <r>    -7.6067     5.1417     3.7047 </r>
       <r>    -7.5349     3.3752     4.0525 </r>
       <r>    -7.4632     2.8793     4.2527 </r>
       <r>    -7.3914     3.0878     4.4666 </r>
       <r>    -7.3196     3.3320     4.6968 </r>
       <r>    -7.2479     4.8687     4.9773 </r>
       <r>    -7.1761     5.5064     5.3786 </r>
       <r>    -7.1043     5.5484     5.7666 </r>
       <r>    -7.0326     6.1545     6.1903 </r>
       <r>    -6.9608     5.6009     6.6179 </r>
       <r>    -6.8890     4.1437     6.9401 </r>
       <r>    -6.8172     3.8598     7.2272 </r>
       <r>    -6.7455     3.5886     7.4944 </r>
       <r>    -6.6737     3.2224     7.7443 </r>
       <r>    -6.6019     1.7116     7.9867 </r>
       <r>    -6.5302     0.0000     8.0000 </r>
       <r>    -6.4584     0.0000     8.0000 </r>
       <r>    -6.3866     0.0000     8.0000 </r>
       <r>    -6.3149     0.0000     8.0000 </r>
       <r>    -6.2431     0.0000     8.0000 </r>
       <r>    -6.1713     0.0000     8.0000 </r>
       <r>    -6.0996     0.0000     8.0000 </r>
       <r>    -6.0278     0.0000     8.0000 </r>
       <r>    -5.9560     0.0000     8.0000 </r>
       <r>    -5.8842     0.0000     8.0000 </r>
       <r>    -5.8125     0.0000     8.0000 </r>
       <r>    -5.7407     0.0000     8.0000 </r>
       <r>    -5.6689     0.0000     8.0000 </r>
       <r>    -5.5972     0.0000     8.0000 </r>
       <r>    -5.5254     0.0000     8.0000 </r>
       <r>    -5.4536     0.0000     8.0000 </r>
       <r>    -5.3819     0.0000     8.0000 </r>
       <r>    -5.3101     0.0000     8.0000 </r>
       <r>    -5.2383     0.0000     8.0000 </r>
       <r>    -5.1665     0.0000     8.0000 </r>
       <r>    -5.0948     0.0000     8.0000 </r>
       <r>    -5.0230     0.0000     8.0000 </r>
       <r>    -4.9512     0.0000     8.0000 </r>
       <r>    -4.8795     0.0000     8.0000 </r>
       <r>    -4.8077     0.0000     8.0000 </r>
       <r>    -4.7359     0.0000     8.0000 </r>
       <r>    -4.6642     0.0000     8.0000 </r>
       <r>    -4.5924     0.0000     8.0000 </r>
       <r>    -4.5206     0.0000     8.0000 </r>
       <r>    -4.4489     0.0000     8.0000 </r>
       <r>    -4.3771     0.0000     8.0000 </r>
       <r>    -4.3053     0.0000     8.0000 </r>
       <r>    -4.2335     0.0000     8.0000 </r>
       <r>    -4.1618     0.0000     8.0000 </r>
       <r>    -4.0900     0.0000     8.0000 </r>
       <r>    -4.0182     0.0000     8.0000 </r>
       <r>    -3.9465     0.0000     8.0000 </r>
       <r>    -3.8747     0.0000     8.0000 </r>
       <r>    -3.8029     0.0000     8.0000 </r>
       <r>    -3.7312     0.0000     8.0000 </r>
       <r>    -3.6594     0.0000     8.0000 </r>
       <r>    -3.5876     0.0000     8.0000 </r>
       <r>    -3.5159     0.0000     8.0000 </r>
       <r>    -3.4441     0.0000     8.0000 </r>
       <r>    -3.3723     0.0000     8.0000 </r>
       <r>    -3.3005     0.1162     8.0014 </r>
       <r>    -3.2288     0.9885     8.0374 </r>
       <r>    -3.1570     2.9515     8.1953 </r>
       <r>    -3.0852     3.7959     8.4106 </r>
       <r>    -3.0135     6.8427     8.7844 </r>
       <r>    -2.9417    12.8969     9.5086 </r>
       <r>    -2.8699     6.7767    10.0831 </r>
       <r>    -2.7982     6.8287    10.5709 </r>
       <r>    -2.7264     6.9427    11.0647 </r>
       <r>    -2.6546     5.3329    11.4972 </r>
       <r>    -2.5828     3.9929    11.8223 </r>
       <r>    -2.5111     3.0720    12.0824 </r>
       <r>    -2.4393     2.2527    12.2510 </r>
       <r>    -2.3675     2.1951    12.4106 </r>
       <r>    -2.2958     2.1406    12.5661 </r>
       <r>    -2.2240     2.0893    12.7179 </r>
       <r>    -2.1522     2.0411    12.8661 </r>
       <r>    -2.0805     1.9961    13.0109 </r>
       <r>    -2.0087     1.9542    13.1527 </r>
       <r>    -1.9369     1.9154    13.2915 </r>
       <r>    -1.8652     1.5780    13.4128 </r>
       <r>    -1.7934     1.5562    13.5253 </r>
       <r>    -1.7216     1.5307    13.6361 </r>
       <r>    -1.6498     1.4989    13.7449 </r>
       <r>    -1.5781     1.4598    13.8510 </r>
       <r>    -1.5063     1.4183    13.9543 </r>
       <r>    -1.4345     1.3744    14.0546 </r>
       <r>    -1.3628     1.3282    14.1516 </r>
       <r>    -1.2910     1.2796    14.2452 </r>
       <r>    -1.2192     1.2287    14.3352 </r>
       <r>    -1.1475     1.2439    14.4240 </r>
       <r>    -1.0757     1.1704    14.5105 </r>
       <r>    -1.0039     1.1093    14.5923 </r>
       <r>    -0.9321     1.0606    14.6701 </r>
       <r>    -0.8604     0.9124    14.7439 </r>
       <r>    -0.7886     0.9718    14.8105 </r>
       <r>    -0.7168     1.1213    14.8855 </r>
       <r>    -0.6451     1.2992    14.9722 </r>
       <r>    -0.5733     1.5057    15.0727 </r>
       <r>    -0.5015     2.2468    15.2377 </r>
       <r>    -0.4298     1.6501    15.3516 </r>
       <r>    -0.3580     1.7708    15.4740 </r>
       <r>    -0.2862     1.9626    15.6075 </r>
       <r>    -0.2145     2.1614    15.7561 </r>
       <r>    -0.1427     3.6713    15.9367 </r>
       <r>    -0.0709     3.9243    16.2075 </r>
       <r>     0.0009     3.1868    16.4904 </r>
       <r>     0.0726     3.8973    16.7388 </r>
       <r>     0.1444     4.9889    17.0561 </r>
       <r>     0.2162     6.1298    17.4564 </r>
       <r>     0.2879     5.9808    17.8924 </r>
       <r>     0.3597     4.6034    18.2620 </r>
       <r>     0.4315     4.2263    18.5788 </r>
       <r>     0.5032     3.7444    18.8605 </r>
       <r>     0.5750     3.5446    19.1217 </r>
       <r>     0.6468     4.4251    19.4012 </r>
       <r>     0.7185     3.0771    19.6658 </r>
       <r>     0.7903     3.2096    19.8908 </r>
       <r>     0.8621     3.4066    20.1282 </r>
       <r>     0.9339     3.5960    20.3795 </r>
       <r>     1.0056     3.9665    20.6504 </r>
       <r>     1.0774     5.3438    20.9629 </r>
       <r>     1.1492     7.8357    21.4423 </r>
       <r>     1.2209     6.3009    21.9622 </r>
       <r>     1.2927     7.3695    22.4447 </r>
       <r>     1.3645     6.4335    22.9505 </r>
       <r>     1.4362     5.5220    23.3768 </r>
       <r>     1.5080     4.6402    23.7419 </r>
       <r>     1.5798     3.6747    24.0336 </r>
       <r>     1.6516     3.3238    24.2833 </r>
       <r>     1.7233     3.2148    24.5165 </r>
       <r>     1.7951     3.4218    24.7509 </r>
       <r>     1.8669     4.2956    25.0288 </r>
       <r>     1.9386     5.0485    25.3640 </r>
       <r>     2.0104     5.2672    25.7565 </r>
       <r>     2.0822     5.2226    26.1444 </r>
       <r>     2.1539     4.7425    26.4781 </r>
       <r>     2.2257     4.9164    26.8248 </r>
       <r>     2.2975     5.7370    27.2197 </r>
       <r>     2.3692     6.6337    27.7113 </r>
       <r>     2.4410     4.6224    28.1140 </r>
       <r>     2.5128     4.1289    28.4280 </r>
       <r>     2.5846     3.6419    28.7068 </r>
       <r>     2.6563     3.1612    28.9509 </r>
       <r>     2.7281     2.8079    29.1657 </r>
       <r>     2.7999     1.9827    29.3138 </r>
       <r>     2.8716     1.8430    29.4500 </r>
       <r>     2.9434     2.3067    29.5936 </r>
       <r>     3.0152     3.0122    29.7842 </r>
       <r>     3.0869     4.2574    30.0668 </r>
       <r>     3.1587     4.2859    30.3578 </r>
       <r>     3.2305     4.6640    30.6796 </r>
       <r>     3.3023     4.7944    31.0132 </r>
       <r>     3.3740     2.8806    31.2880 </r>
       <r>     3.4458     1.4056    31.4060 </r>
       <r>     3.5176     1.2406    31.5009 </r>
       <r>     3.5893     1.0815    31.5842 </r>
       <r>     3.6611     0.9282    31.6563 </r>
       <r>     3.7329     0.7839    31.7176 </r>
       <r>     3.8046     0.8032    31.7735 </r>
       <r>     3.8764     0.8092    31.8318 </r>
       <r>     3.9482     0.7431    31.8879 </r>
       <r>     4.0199     0.6050    31.9367 </r>
       <r>     4.0917     0.3948    31.9730 </r>
       <r>     4.1635     0.1199    31.9917 </r>
       <r>     4.2353     0.0515    31.9977 </r>
       <r>     4.3070     0.0116    31.9998 </r>
       <r>     4.3788     0.0000    32.0000 </r>
       <r>     4.4506     0.0000    32.0000 </r>
       <r>     4.5223     0.0000    32.0000 </r>
       <r>     4.5941     0.0000    32.0000 </r>
       <r>     4.6659     0.0000    32.0000 </r>
       <r>     4.7376     0.0000    32.0000 </r>
       <r>     4.8094     0.0000    32.0000 </r>
       <r>     4.8812     0.0000    32.0000 </r>
       <r>     4.9529     0.0000    32.0000 </r>
       <r>     5.0247     0.0000    32.0000 </r>
       <r>     5.0965     0.0000    32.0000 </r>
       <r>     5.1683     0.0000    32.0000 </r>
       <r>     5.2400     0.0000    32.0000 </r>
       <r>     5.3118     0.0000    32.0000 </r>
       <r>     5.3836     0.0000    32.0000 </r>
       <r>     5.4553     0.0192    32.0001 </r>
       <r>     5.5271     0.2176    32.0110 </r>
       <r>     5.5989     0.2738    32.0286 </r>
       <r>     5.6706     0.3427    32.0506 </r>
       <r>     5.7424     0.4241    32.0781 </r>
       <r>     5.8142     0.5183    32.1118 </r>
       <r>     5.8860     0.6290    32.1528 </r>
       <r>     5.9577     0.7271    32.2017 </r>
       <r>     6.0295     0.7871    32.2560 </r>
       <r>     6.1013     1.2273    32.3382 </r>
       <r>     6.1730     1.1771    32.4161 </r>
       <r>     6.2448     1.4829    32.5096 </r>
       <r>     6.3166     2.1932    32.6390 </r>
       <r>     6.3883     3.6230    32.8567 </r>
       <r>     6.4601     2.6204    33.0732 </r>
       <r>     6.5319     2.8422    33.2691 </r>
       <r>     6.6036     3.0853    33.4817 </r>
       <r>     6.6754     3.3973    33.7142 </r>
       <r>     6.7472     3.7157    33.9694 </r>
       <r>     6.8190     7.7890    34.3481 </r>
       <r>     6.8907     8.3170    34.9868 </r>
       <r>     6.9625     7.4164    35.5782 </r>
       <r>     7.0343     4.9029    36.0029 </r>
       <r>     7.1060     5.8382    36.3953 </r>
       <r>     7.1778     6.9966    36.8337 </r>
       <r>     7.2496     4.0176    37.1675 </r>
       <r>     7.3213     4.0331    37.4564 </r>
       <r>     7.3931     5.2448    37.7539 </r>
       <r>     7.4649     6.1730    38.1663 </r>
       <r>     7.5367     6.6558    38.6293 </r>
       <r>     7.6084     5.2393    39.0613 </r>
       <r>     7.6802     3.8840    39.3777 </r>
       <r>     7.7520     3.6717    39.6482 </r>
       <r>     7.8237     3.4621    39.9011 </r>
       <r>     7.8955     3.4053    40.1475 </r>
       <r>     7.9673     3.3453    40.3898 </r>
       <r>     8.0390     3.3969    40.6284 </r>
       <r>     8.1108     2.8261    40.8511 </r>
       <r>     8.1826     2.3552    41.0364 </r>
       <r>     8.2543     1.9049    41.1804 </r>
       <r>     8.3261     1.9129    41.3173 </r>
       <r>     8.3979     3.9089    41.5618 </r>
       <r>     8.4697     4.7118    41.8587 </r>
       <r>     8.5414     4.7865    42.1757 </r>
       <r>     8.6132    10.4444    42.7586 </r>
       <r>     8.6850     7.5563    43.3630 </r>
       <r>     8.7567     5.8620    43.8829 </r>
       <r>     8.8285     4.7427    44.2396 </r>
       <r>     8.9003     4.4022    44.5660 </r>
       <r>     8.9720     4.1002    44.8714 </r>
       <r>     9.0438     3.7488    45.1533 </r>
       <r>     9.1156     2.7474    45.3644 </r>
       <r>     9.1873     4.6699    45.6578 </r>
       <r>     9.2591     5.4706    46.0179 </r>
       <r>     9.3309     4.8697    46.3787 </r>
       <r>     9.4027     4.7625    46.7251 </r>
       <r>     9.4744     4.5253    47.0592 </r>
       <r>     9.5462     4.1579    47.3716 </r>
       <r>     9.6180     2.6179    47.6312 </r>
       <r>     9.6897     3.3365    47.8415 </r>
       <r>     9.7615     0.3684    47.9987 </r>
       <r>     9.8333     0.0000    48.0000 </r>
       <r>     9.9050     0.0000    48.0000 </r>
       <r>     9.9768     0.0000    48.0000 </r>
       <r>    10.0486     0.0000    48.0000 </r>
       <r>    10.1204     0.0000    48.0000 </r>
       <r>    10.1921     0.0000    48.0000 </r>
       <r>    10.2639     0.0000    48.0000 </r>
       <r>    10.3357     0.0000    48.0000 </r>
       <r>    10.4074     0.0000    48.0000 </r>
       <r>    10.4792     0.0000    48.0000 </r>
       <r>    10.5510     0.0000    48.0000 </r>
       <r>    10.6227     0.0000    48.0000 </r>
       <r>    10.6945     0.0000    48.0000 </r>
       <r>    10.7663     0.0000    48.0000 </r>
      </set>
     </set>
    </array>
   </total>
  </dos>
 </calculation>
 <structure name="finalpos" >
  <crystal>
   <varray name="basis" >
    <v>       5.33054229       0.00000000       0.00000000 </v>
    <v>       0.00000000       5.33054229       0.00000000 </v>
    <v>       0.00000000       0.00000000       5.33054229 </v>
   </varray>
   <i name="volume">    151.46565945 </i>
   <varray name="rec_basis" >
    <v>       0.18759817       0.00000000       0.00000000 </v>
    <v>       0.00000000       0.18759817       0.00000000 </v>
    <v>       0.00000000       0.00000000       0.18759817 </v>
   </varray>
  </crystal>
  <varray name="positions" >
   <v>       0.00000000       0.00000000       0.00000000 </v>
   <v>       0.50000000       0.50000000       0.00000000 </v>
   <v>       0.50000000       0.00000000       0.50000000 </v>
   <v>       0.00000000       0.50000000       0.50000000 </v>
   <v>       0.25000000       0.25000000       0.25000000 </v>
   <v>       0.75000000       0.25000000       0.75000000 </v>
   <v>       0.75000000       0.75000000       0.25000000 </v>
   <v>       0.25000000       0.75000000       0.75000000 </v>
  </varray>
 </structure>
</modeling>
