  64  64   0   0
  0.2393020E+02  0.1152680E-08  0.1152680E-08  0.1152680E-08  0.1000000E-15
  1.000000000000000E-004
  CAR 
 GaAs                                    
      7.66957724    -11.02071768  301      2.31948032      1.00000000
    -11.021  0.0000E+00  0.0000E+00
    -10.958  0.0000E+00  0.0000E+00
    -10.896  0.0000E+00  0.0000E+00
    -10.834  0.0000E+00  0.0000E+00
    -10.772  0.0000E+00  0.0000E+00
    -10.709  0.0000E+00  0.0000E+00
    -10.647  0.0000E+00  0.0000E+00
    -10.585  0.0000E+00  0.0000E+00
    -10.522  0.0000E+00  0.0000E+00
    -10.460  0.0000E+00  0.0000E+00
    -10.398  0.0000E+00  0.0000E+00
    -10.335  0.0000E+00  0.0000E+00
    -10.273  0.0000E+00  0.0000E+00
    -10.211  0.0000E+00  0.0000E+00
    -10.149  0.0000E+00  0.0000E+00
    -10.086  0.0000E+00  0.0000E+00
    -10.024  0.0000E+00  0.0000E+00
     -9.962  0.3730E-01  0.9793E-03
     -9.899  0.5366E-01  0.3674E-02
     -9.837  0.1015E+00  0.9072E-02
     -9.775  0.7307E-01  0.1399E-01
     -9.712  0.6770E-01  0.1825E-01
     -9.650  0.1131E+00  0.2398E-01
     -9.588  0.1681E+00  0.3123E-01
     -9.525  0.1150E+00  0.3954E-01
     -9.463  0.1260E+00  0.4716E-01
     -9.401  0.1943E+00  0.5759E-01
     -9.339  0.9838E-01  0.6672E-01
     -9.276  0.1571E+00  0.7508E-01
     -9.214  0.1446E+00  0.8422E-01
     -9.152  0.2835E+00  0.9906E-01
     -9.089  0.3351E+00  0.1171E+00
     -9.027  0.9562E-01  0.1280E+00
     -8.965  0.4098E+00  0.1378E+00
     -8.902  0.2398E+00  0.1541E+00
     -8.840  0.1939E+00  0.1656E+00
     -8.778  0.4030E+00  0.1873E+00
     -8.716  0.2741E+00  0.2070E+00
     -8.653  0.3220E+00  0.2260E+00
     -8.591  0.3785E+00  0.2480E+00
     -8.529  0.5473E+00  0.2751E+00
     -8.466  0.5649E+00  0.3114E+00
     -8.404  0.7800E+00  0.3445E+00
     -8.342  0.6787E+00  0.3790E+00
     -8.279  0.4074E+00  0.4078E+00
     -8.217  0.4866E+00  0.4302E+00
     -8.155  0.6272E+00  0.4638E+00
     -8.093  0.6498E+00  0.5025E+00
     -8.030  0.5445E+00  0.5328E+00
     -7.968  0.6995E+00  0.5666E+00
     -7.906  0.7842E+00  0.6160E+00
     -7.843  0.7705E-01  0.6400E+00
     -7.781  0.0000E+00  0.6400E+00
     -7.719  0.0000E+00  0.6400E+00
     -7.656  0.0000E+00  0.6400E+00
     -7.594  0.0000E+00  0.6400E+00
     -7.532  0.0000E+00  0.6400E+00
     -7.470  0.0000E+00  0.6400E+00
     -7.407  0.0000E+00  0.6400E+00
     -7.345  0.0000E+00  0.6400E+00
     -7.283  0.0000E+00  0.6400E+00
     -7.220  0.0000E+00  0.6400E+00
     -7.158  0.0000E+00  0.6400E+00
     -7.096  0.0000E+00  0.6400E+00
     -7.033  0.0000E+00  0.6400E+00
     -6.971  0.0000E+00  0.6400E+00
     -6.909  0.0000E+00  0.6400E+00
     -6.847  0.0000E+00  0.6400E+00
     -6.784  0.0000E+00  0.6400E+00
     -6.722  0.0000E+00  0.6400E+00
     -6.660  0.0000E+00  0.6400E+00
     -6.597  0.0000E+00  0.6400E+00
     -6.535  0.0000E+00  0.6400E+00
     -6.473  0.0000E+00  0.6400E+00
     -6.410  0.0000E+00  0.6400E+00
     -6.348  0.0000E+00  0.6400E+00
     -6.286  0.0000E+00  0.6400E+00
     -6.224  0.0000E+00  0.6400E+00
     -6.161  0.0000E+00  0.6400E+00
     -6.099  0.0000E+00  0.6400E+00
     -6.037  0.0000E+00  0.6400E+00
     -5.974  0.0000E+00  0.6400E+00
     -5.912  0.0000E+00  0.6400E+00
     -5.850  0.0000E+00  0.6400E+00
     -5.787  0.0000E+00  0.6400E+00
     -5.725  0.0000E+00  0.6400E+00
     -5.663  0.0000E+00  0.6400E+00
     -5.601  0.0000E+00  0.6400E+00
     -5.538  0.0000E+00  0.6400E+00
     -5.476  0.0000E+00  0.6400E+00
     -5.414  0.0000E+00  0.6400E+00
     -5.351  0.0000E+00  0.6400E+00
     -5.289  0.0000E+00  0.6400E+00
     -5.227  0.0000E+00  0.6400E+00
     -5.164  0.0000E+00  0.6400E+00
     -5.102  0.0000E+00  0.6400E+00
     -5.040  0.0000E+00  0.6400E+00
     -4.978  0.0000E+00  0.6400E+00
     -4.915  0.0000E+00  0.6400E+00
     -4.853  0.0000E+00  0.6400E+00
     -4.791  0.0000E+00  0.6400E+00
     -4.728  0.0000E+00  0.6400E+00
     -4.666  0.0000E+00  0.6400E+00
     -4.604  0.0000E+00  0.6400E+00
     -4.541  0.0000E+00  0.6400E+00
     -4.479  0.0000E+00  0.6400E+00
     -4.417  0.0000E+00  0.6400E+00
     -4.355  0.0000E+00  0.6400E+00
     -4.292  0.0000E+00  0.6400E+00
     -4.230  0.2465E-01  0.6401E+00
     -4.168  0.1501E+00  0.6452E+00
     -4.105  0.2973E+00  0.6567E+00
     -4.043  0.7061E+00  0.6913E+00
     -3.981  0.8511E+00  0.7304E+00
     -3.918  0.1164E+01  0.7836E+00
     -3.856  0.1084E+01  0.8478E+00
     -3.794  0.2681E+00  0.8806E+00
     -3.732  0.1071E+01  0.9304E+00
     -3.669  0.1890E+00  0.9454E+00
     -3.607  0.2316E+00  0.9566E+00
     -3.545  0.5362E+00  0.9777E+00
     -3.482  0.2939E+00  0.9997E+00
     -3.420  0.1961E+00  0.1014E+01
     -3.358  0.1474E+00  0.1024E+01
     -3.295  0.3372E+00  0.1036E+01
     -3.233  0.2948E+00  0.1064E+01
     -3.171  0.1551E+00  0.1073E+01
     -3.108  0.1116E+00  0.1082E+01
     -3.046  0.7541E-01  0.1087E+01
     -2.984  0.1201E+00  0.1093E+01
     -2.922  0.1235E+00  0.1101E+01
     -2.859  0.1752E+00  0.1111E+01
     -2.797  0.1405E+00  0.1120E+01
     -2.735  0.1338E+00  0.1129E+01
     -2.672  0.1288E+00  0.1137E+01
     -2.610  0.1308E+00  0.1145E+01
     -2.548  0.1248E+00  0.1153E+01
     -2.485  0.6233E-01  0.1158E+01
     -2.423  0.6357E-01  0.1162E+01
     -2.361  0.7123E-01  0.1166E+01
     -2.299  0.8147E-01  0.1171E+01
     -2.236  0.1163E+00  0.1177E+01
     -2.174  0.1074E+00  0.1184E+01
     -2.112  0.7004E-01  0.1190E+01
     -2.049  0.8081E-01  0.1195E+01
     -1.987  0.6231E-01  0.1200E+01
     -1.925  0.4831E-01  0.1202E+01
     -1.862  0.4231E-01  0.1205E+01
     -1.800  0.3679E-01  0.1208E+01
     -1.738  0.3768E-01  0.1210E+01
     -1.676  0.4015E-01  0.1212E+01
     -1.613  0.7824E-01  0.1216E+01
     -1.551  0.9781E-01  0.1222E+01
     -1.489  0.8546E-01  0.1228E+01
     -1.426  0.7069E-01  0.1233E+01
     -1.364  0.6908E-01  0.1237E+01
     -1.302  0.1638E+00  0.1243E+01
     -1.239  0.2833E+00  0.1258E+01
     -1.177  0.4898E+00  0.1281E+01
     -1.115  0.4402E+00  0.1310E+01
     -1.053  0.4657E+00  0.1337E+01
     -0.990  0.4475E+00  0.1370E+01
     -0.928  0.3499E+00  0.1396E+01
     -0.866  0.5577E+00  0.1421E+01
     -0.803  0.3475E+00  0.1442E+01
     -0.741  0.2777E+00  0.1463E+01
     -0.679  0.3376E+00  0.1481E+01
     -0.616  0.3823E+00  0.1500E+01
     -0.554  0.4188E+00  0.1526E+01
     -0.492  0.4023E+00  0.1550E+01
     -0.430  0.4581E+00  0.1576E+01
     -0.367  0.5169E+00  0.1606E+01
     -0.305  0.4887E+00  0.1638E+01
     -0.243  0.4814E+00  0.1669E+01
     -0.180  0.4679E+00  0.1697E+01
     -0.118  0.4769E+00  0.1727E+01
     -0.056  0.5960E+00  0.1764E+01
      0.007  0.4769E+00  0.1797E+01
      0.069  0.4961E+00  0.1832E+01
      0.131  0.5014E+00  0.1861E+01
      0.193  0.5507E+00  0.1895E+01
      0.256  0.5527E+00  0.1928E+01
      0.318  0.4390E+00  0.1950E+01
      0.380  0.3751E+00  0.1979E+01
      0.443  0.6099E+00  0.2014E+01
      0.505  0.6957E+00  0.2049E+01
      0.567  0.9235E+00  0.2086E+01
      0.630  0.3394E+00  0.2115E+01
      0.692  0.5144E+00  0.2142E+01
      0.754  0.4964E+00  0.2173E+01
      0.816  0.4089E+00  0.2202E+01
      0.879  0.6275E+00  0.2229E+01
      0.941  0.4005E+00  0.2258E+01
      1.003  0.3737E+00  0.2281E+01
      1.066  0.4484E+00  0.2305E+01
      1.128  0.4644E+00  0.2334E+01
      1.190  0.4327E+00  0.2361E+01
      1.253  0.5518E+00  0.2392E+01
      1.315  0.3986E+00  0.2422E+01
      1.377  0.2422E+00  0.2440E+01
      1.439  0.1981E+00  0.2453E+01
      1.502  0.2115E+00  0.2468E+01
      1.564  0.2305E+00  0.2482E+01
      1.626  0.1814E+00  0.2495E+01
      1.689  0.1161E+00  0.2504E+01
      1.751  0.1351E+00  0.2511E+01
      1.813  0.1219E+00  0.2520E+01
      1.876  0.2016E+00  0.2532E+01
      1.938  0.5917E-01  0.2537E+01
      2.000  0.1202E+00  0.2542E+01
      2.062  0.1148E+00  0.2550E+01
      2.125  0.6157E-01  0.2556E+01
      2.187  0.3621E-01  0.2558E+01
      2.249  0.5105E-02  0.2560E+01
      2.312  0.0000E+00  0.2560E+01
      2.374  0.0000E+00  0.2560E+01
      2.436  0.3847E-07  0.2560E+01
      2.499  0.1338E-04  0.2560E+01
      2.561  0.5068E-04  0.2560E+01
      2.623  0.1119E-03  0.2560E+01
      2.685  0.1972E-03  0.2560E+01
      2.748  0.3063E-03  0.2560E+01
      2.810  0.4395E-03  0.2560E+01
      2.872  0.5966E-03  0.2560E+01
      2.935  0.7777E-03  0.2560E+01
      2.997  0.9827E-03  0.2560E+01
      3.059  0.1212E-02  0.2560E+01
      3.122  0.1465E-02  0.2560E+01
      3.184  0.1813E-02  0.2560E+01
      3.246  0.5382E-02  0.2561E+01
      3.309  0.1344E-01  0.2561E+01
      3.371  0.2115E-01  0.2562E+01
      3.433  0.2866E-01  0.2564E+01
      3.495  0.6394E-01  0.2567E+01
      3.558  0.6921E-01  0.2571E+01
      3.620  0.8517E-01  0.2576E+01
      3.682  0.6868E-01  0.2580E+01
      3.745  0.8439E-01  0.2585E+01
      3.807  0.1117E+00  0.2591E+01
      3.869  0.1364E+00  0.2599E+01
      3.932  0.2365E+00  0.2613E+01
      3.994  0.2827E+00  0.2625E+01
      4.056  0.3693E+00  0.2646E+01
      4.118  0.2720E+00  0.2667E+01
      4.181  0.2004E+00  0.2679E+01
      4.243  0.2592E+00  0.2693E+01
      4.305  0.3017E+00  0.2710E+01
      4.368  0.5503E+00  0.2739E+01
      4.430  0.3919E+00  0.2767E+01
      4.492  0.5986E+00  0.2791E+01
      4.555  0.6454E+00  0.2824E+01
      4.617  0.5132E+00  0.2860E+01
      4.679  0.7178E+00  0.2899E+01
      4.741  0.6753E+00  0.2941E+01
      4.804  0.6247E+00  0.2983E+01
      4.866  0.4266E+00  0.3018E+01
      4.928  0.3846E+00  0.3043E+01
      4.991  0.3717E+00  0.3068E+01
      5.053  0.5199E+00  0.3090E+01
      5.115  0.3722E+00  0.3117E+01
      5.178  0.3103E+00  0.3136E+01
      5.240  0.3455E+00  0.3156E+01
      5.302  0.2618E+00  0.3179E+01
      5.364  0.1739E+00  0.3190E+01
      5.427  0.4026E+00  0.3207E+01
      5.489  0.3244E+00  0.3228E+01
      5.551  0.2138E+00  0.3245E+01
      5.614  0.4480E+00  0.3266E+01
      5.676  0.1844E+00  0.3279E+01
      5.738  0.2018E+00  0.3291E+01
      5.801  0.2116E+00  0.3304E+01
      5.863  0.2038E+00  0.3317E+01
      5.925  0.1489E+00  0.3327E+01
      5.987  0.1225E+00  0.3336E+01
      6.050  0.1019E+00  0.3343E+01
      6.112  0.8446E-01  0.3348E+01
      6.174  0.6744E-01  0.3353E+01
      6.237  0.3423E-01  0.3356E+01
      6.299  0.2397E-01  0.3358E+01
      6.361  0.1238E-01  0.3359E+01
      6.424  0.8971E-02  0.3359E+01
      6.486  0.5884E-02  0.3360E+01
      6.548  0.3266E-03  0.3360E+01
      6.610  0.7737E-04  0.3360E+01
      6.673  0.0000E+00  0.3360E+01
      6.735  0.0000E+00  0.3360E+01
      6.797  0.0000E+00  0.3360E+01
      6.860  0.0000E+00  0.3360E+01
      6.922  0.0000E+00  0.3360E+01
      6.984  0.0000E+00  0.3360E+01
      7.047  0.0000E+00  0.3360E+01
      7.109  0.0000E+00  0.3360E+01
      7.171  0.0000E+00  0.3360E+01
      7.233  0.0000E+00  0.3360E+01
      7.296  0.0000E+00  0.3360E+01
      7.358  0.0000E+00  0.3360E+01
      7.420  0.0000E+00  0.3360E+01
      7.483  0.0000E+00  0.3360E+01
      7.545  0.0000E+00  0.3360E+01
      7.607  0.0000E+00  0.3360E+01
      7.670  0.0000E+00  0.3360E+01
