 vasp.6.4.3 19Mar24 (build Aug 29 2024 15:27:20) complex                        
  
 executed on             LinuxIFC date 2025.03.24  12:03:53
 running    8 mpi-ranks, on    1 nodes
 distrk:  each k-point on    8 cores,    1 groups
 distr:  one band on NCORE=   1 cores,    8 groups


--------------------------------------------------------------------------------------------------------


 INCAR:
   SYSTEM = GaAs
   PREC = Normal
   ENCUT = 400
   ISMEAR = -5
   SIGMA = 0.1
   IBRION = 2
   POTIM = 0.1
   NFREE = 2
   NSW = 100
   ISIF = 2
   LEPSILON = .TRUE.
   LOPTICS = .TRUE.

 POTCAR:    PAW_PBE As 22Sep2009                  
 POTCAR:    PAW_PBE Ga 08Apr2002                  
 -----------------------------------------------------------------------------
|                                                                             |
|           W    W    AA    RRRRR   N    N  II  N    N   GGGG   !!!           |
|           W    W   A  A   R    R  NN   N  II  NN   N  G    G  !!!           |
|           W    W  A    A  R    R  N N  N  II  N N  N  G       !!!           |
|           W WW W  AAAAAA  RRRRR   N  N N  II  N  N N  G  GGG   !            |
|           WW  WW  A    A  R   R   N   NN  II  N   NN  G    G                |
|           W    W  A    A  R    R  N    N  II  N    N   GGGG   !!!           |
|                                                                             |
|     For optimal performance we recommend to set                             |
|       NCORE = 2 up to number-of-cores-per-socket                            |
|     NCORE specifies how many cores store one orbital (NPAR=cpu/NCORE).      |
|     This setting can greatly improve the performance of VASP for DFT.       |
|     The default, NCORE=1 might be grossly inefficient on modern             |
|     multi-core architectures or massively parallel machines. Do your        |
|     own testing! More info at https://www.vasp.at/wiki/index.php/NCORE      |
|     Unfortunately you need to use the default for GW and RPA                |
|     calculations (for HF NCORE is supported but not extensively tested      |
|     yet).                                                                   |
|                                                                             |
 -----------------------------------------------------------------------------

 POTCAR:    PAW_PBE As 22Sep2009                  
   VRHFIN =As: s2p3                                                                                 
   LEXCH  = PE                                                                                      
   EATOM  =   170.1867 eV,   12.5084 Ry                                                             
                                                                                                    
   TITEL  = PAW_PBE As 22Sep2009                                                                    
   LULTRA =        F    use ultrasoft PP ?                                                          
   IUNSCR =        1    unscreen: 0-lin 1-nonlin 2-no                                               
   RPACOR =    1.900    partial core radius                                                         
   POMASS =   74.922; ZVAL   =    5.000    mass and valenz                                          
   RCORE  =    2.100    outmost cutoff radius                                                       
   RWIGS  =    2.300; RWIGS  =    1.217    wigner-seitz radius (au A)                               
   ENMAX  =  208.702; ENMIN  =  156.526 eV                                                          
   ICORE  =        3    local potential                                                             
   LCOR   =        T    correct aug charges                                                         
   LPAW   =        T    paw PP                                                                      
   EAUG   =  462.758                                                                                
   DEXC   =    0.000                                                                                
   RMAX   =    2.144    core radius for proj-oper                                                   
   RAUG   =    1.300    factor for augmentation sphere                                              
   RDEP   =    2.140    radius for radial grids                                                     
   RDEPT  =    1.956    core radius for aug-charge                                                  
                                                                                                    
   Atomic configuration                                                                             
   10 entries                                                                                       
     n  l   j            E        occ.                                                              
     1  0  0.50    -11718.0418   2.0000                                                             
     2  0  0.50     -1486.5454   2.0000                                                             
     2  1  1.50     -1303.3889   6.0000                                                             
     3  0  0.50      -190.2849   2.0000                                                             
     3  1  1.50      -133.6555   6.0000                                                             
     3  2  2.50       -40.6443  10.0000                                                             
     4  0  0.50       -14.4936   2.0000                                                             
     4  1  0.50        -5.1947   3.0000                                                             
     4  2  1.50        -5.4423   0.0000                                                             
     4  3  2.50        -5.4423   0.0000                                                             
   Description                                                                                      
     l       E           TYP  RCUT    TYP  RCUT                                                     
     0    -14.4935570     23  2.100                                                                 
     0    -11.9212055     23  2.100                                                                 
     1     -5.1947127     23  2.100                                                                 
     1     27.2116520     23  2.100                                                                 
     2     -5.4423304     23  2.100                                                                 
     3     -1.3605826      7  2.100                                                                 
  local pseudopotential read in
  partial core-charges read in
  partial kinetic energy density read in
  atomic valenz-charges read in
  non local Contribution for L=           0  read in
    real space projection operators read in
  non local Contribution for L=           0  read in
    real space projection operators read in
  non local Contribution for L=           1  read in
    real space projection operators read in
  non local Contribution for L=           1  read in
    real space projection operators read in
  non local Contribution for L=           2  read in
    real space projection operators read in
    PAW grid and wavefunctions read in
 
   number of l-projection  operators is LMAX  =           5
   number of lm-projection operators is LMMAX =          13
 
 POTCAR:    PAW_PBE Ga 08Apr2002                  
   VRHFIN =Ga: s2p1                                                                                 
   LEXCH  = PE                                                                                      
   EATOM  =    58.8688 eV,    4.3267 Ry                                                             
                                                                                                    
   TITEL  = PAW_PBE Ga 08Apr2002                                                                    
   LULTRA =        F    use ultrasoft PP ?                                                          
   IUNSCR =        1    unscreen: 0-lin 1-nonlin 2-no                                               
   RPACOR =    2.170    partial core radius                                                         
   POMASS =   69.723; ZVAL   =    3.000    mass and valenz                                          
   RCORE  =    2.600    outmost cutoff radius                                                       
   RWIGS  =    2.650; RWIGS  =    1.402    wigner-seitz radius (au A)                               
   ENMAX  =  134.678; ENMIN  =  101.009 eV                                                          
   ICORE  =        3    local potential                                                             
   LCOR   =        T    correct aug charges                                                         
   LPAW   =        T    paw PP                                                                      
   EAUG   =  320.264                                                                                
   DEXC   =    0.000                                                                                
   RMAX   =    2.658    core radius for proj-oper                                                   
   RAUG   =    1.300    factor for augmentation sphere                                              
   RDEP   =    2.684    radius for radial grids                                                     
   RDEPT  =    2.308    core radius for aug-charge                                                  
                                                                                                    
   Atomic configuration                                                                             
   10 entries                                                                                       
     n  l   j            E        occ.                                                              
     1  0  0.50    -10228.7830   2.0000                                                             
     2  0  0.50     -1262.1604   2.0000                                                             
     2  1  1.50     -1098.6333   6.0000                                                             
     3  0  0.50      -148.1110   2.0000                                                             
     3  1  1.50       -98.8436   6.0000                                                             
     3  2  2.50       -19.1549  10.0000                                                             
     4  0  0.50        -8.9483   2.0000                                                             
     4  1  0.50        -2.5791   1.0000                                                             
     4  2  1.50         5.4423   0.0000                                                             
     4  3  2.50        -2.7416   0.0000                                                             
   Description                                                                                      
     l       E           TYP  RCUT    TYP  RCUT                                                     
     0     -8.9483097     23  2.600                                                                 
     0     -5.8232215     23  2.600                                                                 
     1     -2.5790793     23  2.600                                                                 
     1      5.2230115     23  2.600                                                                 
     2      1.3605826     23  2.600                                                                 
     3     -1.3605826      7  2.600                                                                 
  local pseudopotential read in
  partial core-charges read in
  partial kinetic energy density read in
  atomic valenz-charges read in
  non local Contribution for L=           0  read in
    real space projection operators read in
  non local Contribution for L=           0  read in
    real space projection operators read in
  non local Contribution for L=           1  read in
    real space projection operators read in
  non local Contribution for L=           1  read in
    real space projection operators read in
  non local Contribution for L=           2  read in
    real space projection operators read in
    PAW grid and wavefunctions read in
 
   number of l-projection  operators is LMAX  =           5
   number of lm-projection operators is LMMAX =          13
 
 -----------------------------------------------------------------------------
|                                                                             |
|               ----> ADVICE to this user running VASP <----                  |
|                                                                             |
|     You have a (more or less) 'large supercell' and for larger cells it     |
|     might be more efficient to use real-space projection operators.         |
|     Therefore, try LREAL= Auto in the INCAR file.                           |
|     Mind: For very accurate calculation, you might also keep the            |
|     reciprocal projection scheme (i.e. LREAL=.FALSE.).                      |
|                                                                             |
 -----------------------------------------------------------------------------

  PAW_PBE As 22Sep2009                  :
 energy of atom  1       EATOM= -170.1867
 kinetic energy error for atom=    0.0013 (will be added to EATOM!!)
  PAW_PBE Ga 08Apr2002                  :
 energy of atom  2       EATOM=  -58.8688
 kinetic energy error for atom=    0.0001 (will be added to EATOM!!)
 
 
 POSCAR: cubic gallium arsenide
  positions in direct lattice
  velocities in cartesian coordinates


 exchange-correlation table for PE
   RHO(1)=    0.500       N(1)  =     2000
   RHO(2)=  100.500       N(2)  =     4000
 


--------------------------------------------------------------------------------------------------------


 ion  position               nearest neighbor table
   1  0.000  0.000  0.000-  33 2.50  46 2.50  55 2.50  60 2.50
   2  0.000  0.000  0.500-  34 2.50  45 2.50  56 2.50  59 2.50
   3  0.000  0.500  0.000-  35 2.50  48 2.50  53 2.50  58 2.50
   4  0.000  0.500  0.500-  36 2.50  47 2.50  54 2.50  57 2.50
   5  0.500  0.000  0.000-  37 2.50  42 2.50  51 2.50  64 2.50
   6  0.500  0.000  0.500-  38 2.50  41 2.50  52 2.50  63 2.50
   7  0.500  0.500  0.000-  39 2.50  44 2.50  49 2.50  62 2.50
   8  0.500  0.500  0.500-  40 2.50  43 2.50  50 2.50  61 2.50
   9  0.250  0.250  0.000-  33 2.50  42 2.50  49 2.50  58 2.50
  10  0.250  0.250  0.500-  34 2.50  41 2.50  50 2.50  57 2.50
  11  0.250  0.750  0.000-  35 2.50  44 2.50  51 2.50  60 2.50
  12  0.250  0.750  0.500-  36 2.50  43 2.50  52 2.50  59 2.50
  13  0.750  0.250  0.000-  37 2.50  46 2.50  53 2.50  62 2.50
  14  0.750  0.250  0.500-  38 2.50  45 2.50  54 2.50  61 2.50
  15  0.750  0.750  0.000-  39 2.50  48 2.50  55 2.50  64 2.50
  16  0.750  0.750  0.500-  40 2.50  47 2.50  56 2.50  63 2.50
  17  0.250  0.000  0.250-  33 2.50  41 2.50  51 2.50  59 2.50
  18  0.250  0.000  0.750-  34 2.50  42 2.50  52 2.50  60 2.50
  19  0.250  0.500  0.250-  35 2.50  43 2.50  49 2.50  57 2.50
  20  0.250  0.500  0.750-  36 2.50  44 2.50  50 2.50  58 2.50
  21  0.750  0.000  0.250-  37 2.50  45 2.50  55 2.50  63 2.50
  22  0.750  0.000  0.750-  38 2.50  46 2.50  56 2.50  64 2.50
  23  0.750  0.500  0.250-  39 2.50  47 2.50  53 2.50  61 2.50
  24  0.750  0.500  0.750-  40 2.50  48 2.50  54 2.50  62 2.50
  25  0.000  0.250  0.250-  33 2.50  45 2.50  53 2.50  57 2.50
  26  0.000  0.250  0.750-  34 2.50  46 2.50  54 2.50  58 2.50
  27  0.000  0.750  0.250-  35 2.50  47 2.50  55 2.50  59 2.50
  28  0.000  0.750  0.750-  36 2.50  48 2.50  56 2.50  60 2.50
  29  0.500  0.250  0.250-  37 2.50  41 2.50  49 2.50  61 2.50
  30  0.500  0.250  0.750-  38 2.50  42 2.50  50 2.50  62 2.50
  31  0.500  0.750  0.250-  39 2.50  43 2.50  51 2.50  63 2.50
  32  0.500  0.750  0.750-  40 2.50  44 2.50  52 2.50  64 2.50
  33  0.125  0.125  0.125-   1 2.50   9 2.50  17 2.50  25 2.50
  34  0.125  0.125  0.625-   2 2.50  10 2.50  18 2.50  26 2.50
  35  0.125  0.625  0.125-   3 2.50  11 2.50  19 2.50  27 2.50
  36  0.125  0.625  0.625-   4 2.50  12 2.50  20 2.50  28 2.50
  37  0.625  0.125  0.125-   5 2.50  13 2.50  21 2.50  29 2.50
  38  0.625  0.125  0.625-   6 2.50  14 2.50  22 2.50  30 2.50
  39  0.625  0.625  0.125-   7 2.50  15 2.50  23 2.50  31 2.50
  40  0.625  0.625  0.625-   8 2.50  16 2.50  24 2.50  32 2.50
  41  0.375  0.125  0.375-   6 2.50  10 2.50  17 2.50  29 2.50
  42  0.375  0.125  0.875-   5 2.50   9 2.50  18 2.50  30 2.50
  43  0.375  0.625  0.375-   8 2.50  12 2.50  19 2.50  31 2.50
  44  0.375  0.625  0.875-   7 2.50  11 2.50  20 2.50  32 2.50
  45  0.875  0.125  0.375-   2 2.50  14 2.50  21 2.50  25 2.50
  46  0.875  0.125  0.875-   1 2.50  13 2.50  22 2.50  26 2.50
  47  0.875  0.625  0.375-   4 2.50  16 2.50  23 2.50  27 2.50
  48  0.875  0.625  0.875-   3 2.50  15 2.50  24 2.50  28 2.50
  49  0.375  0.375  0.125-   7 2.50   9 2.50  19 2.50  29 2.50
  50  0.375  0.375  0.625-   8 2.50  10 2.50  20 2.50  30 2.50
  51  0.375  0.875  0.125-   5 2.50  11 2.50  17 2.50  31 2.50
  52  0.375  0.875  0.625-   6 2.50  12 2.50  18 2.50  32 2.50
  53  0.875  0.375  0.125-   3 2.50  13 2.50  23 2.50  25 2.50
  54  0.875  0.375  0.625-   4 2.50  14 2.50  24 2.50  26 2.50
  55  0.875  0.875  0.125-   1 2.50  15 2.50  21 2.50  27 2.50
  56  0.875  0.875  0.625-   2 2.50  16 2.50  22 2.50  28 2.50
  57  0.125  0.375  0.375-   4 2.50  10 2.50  19 2.50  25 2.50
  58  0.125  0.375  0.875-   3 2.50   9 2.50  20 2.50  26 2.50
  59  0.125  0.875  0.375-   2 2.50  12 2.50  17 2.50  27 2.50
  60  0.125  0.875  0.875-   1 2.50  11 2.50  18 2.50  28 2.50
  61  0.625  0.375  0.375-   8 2.50  14 2.50  23 2.50  29 2.50
  62  0.625  0.375  0.875-   7 2.50  13 2.50  24 2.50  30 2.50
  63  0.625  0.875  0.375-   6 2.50  16 2.50  21 2.50  31 2.50
  64  0.625  0.875  0.875-   5 2.50  15 2.50  22 2.50  32 2.50
 
  LATTYP: Found a simple cubic cell.
 ALAT       =    11.5267998336
  
  Lattice vectors:
  
 A1 = (  11.5267998336,   0.0000000000,   0.0000000000)
 A2 = (   0.0000000000,  11.5267998336,   0.0000000000)
 A3 = (   0.0000000000,   0.0000000000,  11.5267998336)


Analysis of symmetry for initial positions (statically):
=====================================================================
 Subroutine PRICEL returns following result:
 
  LATTYP: Found a face centered cubic cell.
 ALAT       =     5.7633999168
  
  Lattice vectors:
  
 A1 = (   2.8816999584,  -2.8816999584,   0.0000000000)
 A2 = (   2.8816999584,   0.0000000000,   2.8816999584)
 A3 = (   0.0000000000,  -2.8816999584,   2.8816999584)
 
  32 primitive cells build up your supercell.
 

 Routine SETGRP: Setting up the symmetry group for a 
 simple cubic supercell.


 Subroutine GETGRP returns: Found 24 space group operations
 (whereof 24 operations were pure point group operations)
 out of a pool of 48 trial point group operations.


The static configuration has the point symmetry T_d .


Analysis of symmetry for dynamics (positions and initial velocities):
=====================================================================
 Subroutine PRICEL returns following result:
 
  LATTYP: Found a face centered cubic cell.
 ALAT       =     5.7633999168
  
  Lattice vectors:
  
 A1 = (   2.8816999584,  -2.8816999584,   0.0000000000)
 A2 = (   2.8816999584,   0.0000000000,   2.8816999584)
 A3 = (   0.0000000000,  -2.8816999584,   2.8816999584)
 
  32 primitive cells build up your supercell.
 

 Routine SETGRP: Setting up the symmetry group for a 
 simple cubic supercell.


 Subroutine GETGRP returns: Found 24 space group operations
 (whereof 24 operations were pure point group operations)
 out of a pool of 48 trial point group operations.


The dynamic configuration has the point symmetry T_d .


 Subroutine INISYM returns: Found 24 space group operations
 (whereof 24 operations are pure point group operations),
 and found    32 'primitive' translations


----------------------------------------------------------------------------------------

                                     Primitive cell                                     

  volume of cell :      47.8604

  direct lattice vectors                    reciprocal lattice vectors
     2.881699958 -2.881699958  0.000000000     0.173508695 -0.173508695 -0.173508695
     2.881699958  0.000000000  2.881699958     0.173508695  0.173508695  0.173508695
     0.000000000 -2.881699958  2.881699958    -0.173508695 -0.173508695  0.173508695

  length of vectors
     4.075339164  4.075339164  4.075339164     0.300525876  0.300525876  0.300525876

  position of ions in fractional coordinates (direct lattice)
     0.000000000  0.000000000  0.000000000
     0.750000000  0.750000000  0.750000000

  ion indices of the primitive-cell ions
   primitive index   ion index
                 1           1
                 2          33

----------------------------------------------------------------------------------------

 
 
 KPOINTS: Automatic mesh                          

Automatic generation of k-mesh.
 Grid dimensions read from file:
 generate k-points for:    5    5    5

 Generating k-lattice:

  Cartesian coordinates                     Fractional coordinates (reciprocal lattice)
     0.017350870  0.000000000  0.000000000     0.200000000  0.000000000  0.000000000
     0.000000000  0.017350870  0.000000000     0.000000000  0.200000000  0.000000000
     0.000000000  0.000000000  0.017350870     0.000000000  0.000000000  0.200000000

  Length of vectors
     0.017350870  0.017350870  0.017350870

  Shift w.r.t. Gamma in fractional coordinates (k-lattice)
     0.000000000  0.000000000  0.000000000

 TETIRR: Found     57 inequivalent tetrahedra from      750
 
 Subroutine IBZKPT returns following result:
 ===========================================
 
 Found     10 irreducible k-points:
 
 Following reciprocal coordinates:
            Coordinates               Weight
  0.000000  0.000000  0.000000      1.000000
  0.200000  0.000000  0.000000      6.000000
  0.400000  0.000000  0.000000      6.000000
  0.200000  0.200000  0.000000     12.000000
  0.400000  0.200000  0.000000     24.000000
  0.400000  0.400000  0.000000     12.000000
  0.200000  0.200000  0.200000      8.000000
  0.400000  0.200000  0.200000     24.000000
  0.400000  0.400000  0.200000     24.000000
  0.400000  0.400000  0.400000      8.000000
 
 Following cartesian coordinates:
            Coordinates               Weight
  0.000000  0.000000  0.000000      1.000000
  0.017351  0.000000  0.000000      6.000000
  0.034702  0.000000  0.000000      6.000000
  0.017351  0.017351  0.000000     12.000000
  0.034702  0.017351  0.000000     24.000000
  0.034702  0.034702  0.000000     12.000000
  0.017351  0.017351  0.017351      8.000000
  0.034702  0.017351  0.017351     24.000000
  0.034702  0.034702  0.017351     24.000000
  0.034702  0.034702  0.034702      8.000000
 
 
 Subroutine IBZKPT_HF returns following result:
 ==============================================
 
 Found    125 k-points in 1st BZ
 the following    125 k-points will be used (e.g. in the exchange kernel)
 Following reciprocal coordinates:   # in IRBZ
  0.000000  0.000000  0.000000    0.00800000   1 t-inv F
  0.200000  0.000000  0.000000    0.00800000   2 t-inv F
  0.400000  0.000000  0.000000    0.00800000   3 t-inv F
  0.200000  0.200000  0.000000    0.00800000   4 t-inv F
  0.400000  0.200000  0.000000    0.00800000   5 t-inv F
  0.400000  0.400000  0.000000    0.00800000   6 t-inv F
  0.200000  0.200000  0.200000    0.00800000   7 t-inv F
  0.400000  0.200000  0.200000    0.00800000   8 t-inv F
  0.400000  0.400000  0.200000    0.00800000   9 t-inv F
  0.400000  0.400000  0.400000    0.00800000  10 t-inv F
  0.000000  0.200000  0.000000    0.00800000   2 t-inv F
  0.000000  0.000000  0.200000    0.00800000   2 t-inv F
  0.000000 -0.200000  0.000000    0.00800000   2 t-inv F
  0.000000  0.000000 -0.200000    0.00800000   2 t-inv F
 -0.200000  0.000000  0.000000    0.00800000   2 t-inv F
  0.000000  0.400000  0.000000    0.00800000   3 t-inv F
  0.000000  0.000000  0.400000    0.00800000   3 t-inv F
  0.000000 -0.400000  0.000000    0.00800000   3 t-inv F
  0.000000  0.000000 -0.400000    0.00800000   3 t-inv F
 -0.400000  0.000000  0.000000    0.00800000   3 t-inv F
  0.000000  0.200000  0.200000    0.00800000   4 t-inv F
  0.200000  0.000000  0.200000    0.00800000   4 t-inv F
  0.200000 -0.200000  0.000000    0.00800000   4 t-inv F
  0.200000  0.000000 -0.200000    0.00800000   4 t-inv F
  0.000000 -0.200000 -0.200000    0.00800000   4 t-inv F
 -0.200000 -0.200000  0.000000    0.00800000   4 t-inv F
  0.000000 -0.200000  0.200000    0.00800000   4 t-inv F
 -0.200000  0.000000  0.200000    0.00800000   4 t-inv F
 -0.200000  0.200000  0.000000    0.00800000   4 t-inv F
 -0.200000  0.000000 -0.200000    0.00800000   4 t-inv F
  0.000000  0.200000 -0.200000    0.00800000   4 t-inv F
  0.000000  0.400000  0.200000    0.00800000   5 t-inv F
  0.200000  0.000000  0.400000    0.00800000   5 t-inv F
  0.200000 -0.400000  0.000000    0.00800000   5 t-inv F
  0.400000  0.000000 -0.200000    0.00800000   5 t-inv F
  0.000000 -0.200000 -0.400000    0.00800000   5 t-inv F
 -0.400000 -0.200000  0.000000    0.00800000   5 t-inv F
  0.000000 -0.400000  0.200000    0.00800000   5 t-inv F
 -0.200000  0.000000  0.400000    0.00800000   5 t-inv F
 -0.200000  0.400000  0.000000    0.00800000   5 t-inv F
 -0.400000  0.000000 -0.200000    0.00800000   5 t-inv F
  0.000000  0.200000 -0.400000    0.00800000   5 t-inv F
  0.000000 -0.400000 -0.200000    0.00800000   5 t-inv F
  0.200000  0.000000 -0.400000    0.00800000   5 t-inv F
  0.400000 -0.200000  0.000000    0.00800000   5 t-inv F
  0.000000 -0.200000  0.400000    0.00800000   5 t-inv F
 -0.200000 -0.400000  0.000000    0.00800000   5 t-inv F
 -0.400000  0.000000  0.200000    0.00800000   5 t-inv F
 -0.200000  0.000000 -0.400000    0.00800000   5 t-inv F
 -0.400000  0.200000  0.000000    0.00800000   5 t-inv F
  0.000000  0.400000 -0.200000    0.00800000   5 t-inv F
  0.400000  0.000000  0.200000    0.00800000   5 t-inv F
  0.200000  0.400000  0.000000    0.00800000   5 t-inv F
  0.000000  0.200000  0.400000    0.00800000   5 t-inv F
  0.000000  0.400000  0.400000    0.00800000   6 t-inv F
  0.400000  0.000000  0.400000    0.00800000   6 t-inv F
  0.400000 -0.400000  0.000000    0.00800000   6 t-inv F
  0.400000  0.000000 -0.400000    0.00800000   6 t-inv F
  0.000000 -0.400000 -0.400000    0.00800000   6 t-inv F
 -0.400000 -0.400000  0.000000    0.00800000   6 t-inv F
  0.000000 -0.400000  0.400000    0.00800000   6 t-inv F
 -0.400000  0.000000  0.400000    0.00800000   6 t-inv F
 -0.400000  0.400000  0.000000    0.00800000   6 t-inv F
 -0.400000  0.000000 -0.400000    0.00800000   6 t-inv F
  0.000000  0.400000 -0.400000    0.00800000   6 t-inv F
  0.200000 -0.200000 -0.200000    0.00800000   7 t-inv F
 -0.200000 -0.200000  0.200000    0.00800000   7 t-inv F
 -0.200000  0.200000 -0.200000    0.00800000   7 t-inv F
  0.200000  0.400000  0.200000    0.00800000   8 t-inv F
  0.200000  0.200000  0.400000    0.00800000   8 t-inv F
  0.200000 -0.400000 -0.200000    0.00800000   8 t-inv F
  0.400000 -0.200000 -0.200000    0.00800000   8 t-inv F
  0.200000 -0.200000 -0.400000    0.00800000   8 t-inv F
 -0.400000 -0.200000  0.200000    0.00800000   8 t-inv F
 -0.200000 -0.400000  0.200000    0.00800000   8 t-inv F
 -0.200000 -0.200000  0.400000    0.00800000   8 t-inv F
 -0.200000  0.400000 -0.200000    0.00800000   8 t-inv F
 -0.400000  0.200000 -0.200000    0.00800000   8 t-inv F
 -0.200000  0.200000 -0.400000    0.00800000   8 t-inv F
  0.200000  0.400000  0.400000    0.00800000   9 t-inv F
  0.400000  0.200000  0.400000    0.00800000   9 t-inv F
  0.400000 -0.400000 -0.200000    0.00800000   9 t-inv F
  0.400000 -0.200000 -0.400000    0.00800000   9 t-inv F
  0.200000 -0.400000 -0.400000    0.00800000   9 t-inv F
 -0.400000 -0.400000  0.200000    0.00800000   9 t-inv F
 -0.200000 -0.400000  0.400000    0.00800000   9 t-inv F
 -0.400000 -0.200000  0.400000    0.00800000   9 t-inv F
 -0.400000  0.400000 -0.200000    0.00800000   9 t-inv F
 -0.400000  0.200000 -0.400000    0.00800000   9 t-inv F
 -0.200000  0.400000 -0.400000    0.00800000   9 t-inv F
  0.400000 -0.400000 -0.400000    0.00800000  10 t-inv F
 -0.400000 -0.400000  0.400000    0.00800000  10 t-inv F
 -0.400000  0.400000 -0.400000    0.00800000  10 t-inv F
 -0.200000 -0.200000 -0.200000    0.00800000   7 t-inv T
 -0.200000  0.200000  0.200000    0.00800000   7 t-inv T
  0.200000  0.200000 -0.200000    0.00800000   7 t-inv T
  0.200000 -0.200000  0.200000    0.00800000   7 t-inv T
 -0.400000 -0.200000 -0.200000    0.00800000   8 t-inv T
 -0.200000 -0.400000 -0.200000    0.00800000   8 t-inv T
 -0.200000 -0.200000 -0.400000    0.00800000   8 t-inv T
 -0.200000  0.400000  0.200000    0.00800000   8 t-inv T
 -0.400000  0.200000  0.200000    0.00800000   8 t-inv T
 -0.200000  0.200000  0.400000    0.00800000   8 t-inv T
  0.400000  0.200000 -0.200000    0.00800000   8 t-inv T
  0.200000  0.400000 -0.200000    0.00800000   8 t-inv T
  0.200000  0.200000 -0.400000    0.00800000   8 t-inv T
  0.200000 -0.400000  0.200000    0.00800000   8 t-inv T
  0.400000 -0.200000  0.200000    0.00800000   8 t-inv T
  0.200000 -0.200000  0.400000    0.00800000   8 t-inv T
 -0.400000 -0.400000 -0.200000    0.00800000   9 t-inv T
 -0.200000 -0.400000 -0.400000    0.00800000   9 t-inv T
 -0.400000 -0.200000 -0.400000    0.00800000   9 t-inv T
 -0.400000  0.400000  0.200000    0.00800000   9 t-inv T
 -0.400000  0.200000  0.400000    0.00800000   9 t-inv T
 -0.200000  0.400000  0.400000    0.00800000   9 t-inv T
  0.400000  0.400000 -0.200000    0.00800000   9 t-inv T
  0.200000  0.400000 -0.400000    0.00800000   9 t-inv T
  0.400000  0.200000 -0.400000    0.00800000   9 t-inv T
  0.400000 -0.400000  0.200000    0.00800000   9 t-inv T
  0.400000 -0.200000  0.400000    0.00800000   9 t-inv T
  0.200000 -0.400000  0.400000    0.00800000   9 t-inv T
 -0.400000 -0.400000 -0.400000    0.00800000  10 t-inv T
 -0.400000  0.400000  0.400000    0.00800000  10 t-inv T
  0.400000  0.400000 -0.400000    0.00800000  10 t-inv T
  0.400000 -0.400000  0.400000    0.00800000  10 t-inv T


--------------------------------------------------------------------------------------------------------




 Dimension of arrays:
   k-points           NKPTS =     10   k-points in BZ     NKDIM =     10   number of bands    NBANDS=    168
   number of dos      NEDOS =    301   number of ions     NIONS =     64
   non local maximal  LDIM  =      5   non local SUM 2l+1 LMDIM =     13
   total plane-waves  NPLWV = 175616
   max r-space proj   IRMAX =      1   max aug-charges    IRDMAX=   8440
   dimension x,y,z NGX =    56 NGY =   56 NGZ =   56
   dimension x,y,z NGXF=   112 NGYF=  112 NGZF=  112
   support grid    NGXF=   112 NGYF=  112 NGZF=  112
   ions per type =              32  32
   NGX,Y,Z   is equivalent  to a cutoff of   8.08,  8.08,  8.08 a.u.
   NGXF,Y,Z  is equivalent  to a cutoff of  16.15, 16.15, 16.15 a.u.

 SYSTEM =  GaAs                                    
 POSCAR =  cubic gallium arsenide                  

 Startparameter for this run:
   NWRITE =      2    write-flag & timer
   PREC   = normal    normal or accurate (medium, high low for compatibility)
   ISTART =      0    job   : 0-new  1-cont  2-samecut
   ICHARG =      2    charge: 1-file 2-atom 10-const
   ISPIN  =      1    spin polarized calculation?
   LNONCOLLINEAR =      F non collinear calculations
   LSORBIT =      F    spin-orbit coupling
   INIWAV =      1    electr: 0-lowe 1-rand  2-diag
   LASPH  =      F    aspherical Exc in radial PAW
 Electronic Relaxation 1
   ENCUT  =  400.0 eV  29.40 Ry    5.42 a.u.  18.80 18.80 18.80*2*pi/ulx,y,z
   ENINI  =  400.0     initial cutoff
   ENAUG  =  462.8 eV  augmentation charge cutoff
   NELM   =     60;   NELMIN=  2; NELMDL= -5     # of ELM steps 
   EDIFF  = 0.1E-05   stopping-criterion for ELM
   LREAL  =      F    real-space projection
   NLSPLINE    = F    spline interpolate recip. space projectors
   LCOMPAT=      F    compatible to vasp.4.4
   GGA_COMPAT  = T    GGA compatible to vasp.4.4-vasp.4.6
   LMAXPAW     = -100 max onsite density
   LMAXMIX     =    2 max onsite mixed and CHGCAR
   VOSKOWN=      0    Vosko Wilk Nusair interpolation
   ROPT   =    0.00000   0.00000
 Ionic relaxation
   EDIFFG = 0.1E-02   stopping-criterion for IOM
   NSW    =    100    number of steps for IOM
   NBLOCK =      1;   KBLOCK =    100    inner block; outer block 
   IBRION =      2    ionic relax: 0-MD 1-quasi-New 2-CG
   NFREE  =      2    steps in history (QN), initial steepest desc. (CG)
   ISIF   =      2    stress and relaxation
   IWAVPR =     11    prediction:  0-non 1-charg 2-wave 3-comb
   ISYM   =      2    0-nonsym 1-usesym 2-fastsym
   LCORR  =      T    Harris-Foulkes like correction to forces

   POTIM  = 0.1000    time-step for ionic-motion
   TEIN   =    0.0    initial temperature
   TEBEG  =    0.0;   TEEND  =   0.0 temperature during run
   SMASS  =  -3.00    Nose mass-parameter (am)
   estimated Nose-frequenzy (Omega)   =  0.10E-29 period in steps = 0.63E+47 mass=  -0.304E-26a.u.
   SCALEE = 1.0000    scale energy and forces
   NPACO  =    256;   APACO  = 10.0  distance and # of slots for P.C.
   PSTRESS=    0.0 pullay stress

  Mass of Ions in am
   POMASS =  74.92 69.72
  Ionic Valenz
   ZVAL   =   5.00  3.00
  Atomic Wigner-Seitz radii
   RWIGS  =  -1.00 -1.00
  virtual crystal weights 
   VCA    =   1.00  1.00
   NELECT =     256.0000    total number of electrons
   NUPDOWN=      -1.0000    fix difference up-down

 DOS related values:
   EMIN   =  10.00;   EMAX   =-10.00  energy-range for DOS
   EFERMI =   0.00;   METHOD = LEGACY      
   ISMEAR =    -5;   SIGMA  =   0.10  broadening in eV -4-tet -1-fermi 0-gaus

 Electronic relaxation 2 (details)
   IALGO  =     38    algorithm
   LDIAG  =      T    sub-space diagonalisation (order eigenvalues)
   LSUBROT=      F    optimize rotation matrix (better conditioning)
   TURBO    =      0    0=normal 1=particle mesh
   IRESTART =      0    0=no restart 2=restart with 2 vectors
   NREBOOT  =      0    no. of reboots
   NMIN     =      0    reboot dimension
   EREF     =   0.00    reference energy to select bands
   IMIX   =      4    mixing-type and parameters
     AMIX     =   0.40;   BMIX     =  1.00
     AMIX_MAG =   1.60;   BMIX_MAG =  1.00
     AMIN     =   0.10
     WC   =   100.;   INIMIX=   1;  MIXPRE=   1;  MAXMIX= -45

 Intra band minimization:
   WEIMIN = 0.0010     energy-eigenvalue tresh-hold
   EBREAK =  0.15E-08  absolut break condition
   DEPER  =   0.30     relativ break condition  

   TIME   =   0.40     timestep for ELM

  volume/ion in A,a.u.               =      23.93       161.49
  Fermi-wavevector in a.u.,A,eV,Ry     =   0.901805  1.704165 11.064974  0.813253
  Thomas-Fermi vector in A             =   2.024931
 
 Write flags
   LWAVE        =      T    write WAVECAR
   LDOWNSAMPLE  =      F    k-point downsampling of WAVECAR
   LCHARG       =      T    write CHGCAR
   LVTOT        =      F    write LOCPOT, total local potential
   LVHAR        =      F    write LOCPOT, Hartree potential only
   WRT_POTENTIAL= false  ! write potential to hdf5 file
   LELF         =      F    write electronic localiz. function (ELF)
   LORBIT       =      0    0 simple, 1 ext, 2 COOP (PROOUT), +10 PAW based schemes


 Dipole corrections
   LMONO      =      F    monopole corrections only (constant potential shift)
   LDIPOL     =      F    correct potential (dipole corrections)
   IDIPOL     =      0    1-x, 2-y, 3-z, 4-all directions 
   EPSILON    =  1.0000000 bulk dielectric constant
   LVACPOTAV  =      F  vacuum potentials using an averaging scheme for the charge density
   VACPOTFLAT =  0.1000000 required flatness to determine vacuum potential
 Exchange correlation treatment:
   GGA     = PE    functional components
   XC_C    = 1    coefficients multiplying the functional components
   LIBXC   =     F    Libxc                    
   VOSKOWN =     0    Vosko Wilk Nusair interpolation
   LHFCALC =     F    Hartree Fock is set to
   LHFONE  =     F    Hartree Fock one center treatment
   AEXX    =    0.0000 exact exchange contribution

 Parameters of functionals:
   PE:
     No parameter
 
 Van der Waals corrections
   IVDW    =     0    specifies the selected vdW correction

 Linear response parameters
   LEPSILON=     T    determine dielectric tensor
   LRPA    =     F    only Hartree local field effects (RPA)
   LNABLA  =     F    use nabla operator in PAW spheres
   LVEL    =     F    velocity operator in full k-point grid
   CSHIFT  =0.1000    complex shift for real part using Kramers Kronig
   OMEGAMAX=  -1.0    maximum frequency
   DEG_THRESHOLD= 0.2000000E-02 threshold for treating states as degnerate
   RTIME   =   -0.100 relaxation time in fs
  (WPLASMAI=    0.000 imaginary part of plasma frequency in eV, 0.658/RTIME)
   DFIELD  = 0.0000000 0.0000000 0.0000000 field for delta impulse in time
 
  Optional k-point grid parameters
   LKPOINTS_OPT  =     F    use optional k-point grid
   KPOINTS_OPT_MODE=     1    mode for optional k-point grid
 
 Orbital magnetization related:
   ORBITALMAG=     F  switch on orbital magnetization
   LCHIMAG   =     F  perturbation theory with respect to B field
   DQ        =  0.001000  dq finite difference perturbation B field
   LLRAUG    =     F  two centre corrections for induced B field
   LBONE     =     F  B-component reconstruction in AE one-centre
   LVGVCALC  =     T  calculate vGv susceptibility
   LVGVAPPL  =     F  apply vGv susceptibility instead of pGv for G=0

 Random number generation:
   RANDOM_GENERATOR = DEFAULT
   PCG_SEED         = not used


--------------------------------------------------------------------------------------------------------


 conjugate gradient relaxation of ions
 charge density and potential will be updated during run
 non-spin polarized calculation
 Variant of blocked Davidson
 Davidson routine will perform the subspace rotation
 perform sub-space diagonalisation
    after iterative eigenvector-optimisation
 modified Broyden-mixing scheme, WC =      100.0
 initial mixing is a Kerker type mixing with AMIX =  0.4000 and BMIX =      1.0000
 Hartree-type preconditioning will be used
 using additional bands           40
 reciprocal scheme for non local part
 use partial core corrections
 calculate Harris-corrections to forces 
   (improved forces if not selfconsistent)
 use gradient corrections 
 use of overlap-Matrix (Vanderbilt PP)
 Fermi weights with tetrahedron method with Bloechl corrections


--------------------------------------------------------------------------------------------------------


  energy-cutoff  :      400.00
  volume of cell :     1531.53
      direct lattice vectors                 reciprocal lattice vectors
    11.526799834  0.000000000  0.000000000     0.086754348  0.000000000  0.000000000
     0.000000000 11.526799834  0.000000000     0.000000000  0.086754348  0.000000000
     0.000000000  0.000000000 11.526799834     0.000000000  0.000000000  0.086754348

  length of vectors
    11.526799834 11.526799834 11.526799834     0.086754348  0.086754348  0.086754348


 
 k-points in units of 2pi/SCALE and weight: Automatic mesh                          
   0.00000000  0.00000000  0.00000000       0.008
   0.01735087  0.00000000  0.00000000       0.048
   0.03470174  0.00000000  0.00000000       0.048
   0.01735087  0.01735087  0.00000000       0.096
   0.03470174  0.01735087  0.00000000       0.192
   0.03470174  0.03470174  0.00000000       0.096
   0.01735087  0.01735087  0.01735087       0.064
   0.03470174  0.01735087  0.01735087       0.192
   0.03470174  0.03470174  0.01735087       0.192
   0.03470174  0.03470174  0.03470174       0.064
 
 k-points in reciprocal lattice and weights: Automatic mesh                          
   0.00000000  0.00000000  0.00000000       0.008
   0.20000000  0.00000000  0.00000000       0.048
   0.40000000  0.00000000  0.00000000       0.048
   0.20000000  0.20000000  0.00000000       0.096
   0.40000000  0.20000000  0.00000000       0.192
   0.40000000  0.40000000  0.00000000       0.096
   0.20000000  0.20000000  0.20000000       0.064
   0.40000000  0.20000000  0.20000000       0.192
   0.40000000  0.40000000  0.20000000       0.192
   0.40000000  0.40000000  0.40000000       0.064
 
 position of ions in fractional coordinates (direct lattice) 
   0.00000000  0.00000000  0.00000000
   0.00000000  0.00000000  0.50000000
   0.00000000  0.50000000  0.00000000
   0.00000000  0.50000000  0.50000000
   0.50000000  0.00000000  0.00000000
   0.50000000  0.00000000  0.50000000
   0.50000000  0.50000000  0.00000000
   0.50000000  0.50000000  0.50000000
   0.25000000  0.25000000  0.00000000
   0.25000000  0.25000000  0.50000000
   0.25000000  0.75000000  0.00000000
   0.25000000  0.75000000  0.50000000
   0.75000000  0.25000000  0.00000000
   0.75000000  0.25000000  0.50000000
   0.75000000  0.75000000  0.00000000
   0.75000000  0.75000000  0.50000000
   0.25000000  0.00000000  0.25000000
   0.25000000  0.00000000  0.75000000
   0.25000000  0.50000000  0.25000000
   0.25000000  0.50000000  0.75000000
   0.75000000  0.00000000  0.25000000
   0.75000000  0.00000000  0.75000000
   0.75000000  0.50000000  0.25000000
   0.75000000  0.50000000  0.75000000
   0.00000000  0.25000000  0.25000000
   0.00000000  0.25000000  0.75000000
   0.00000000  0.75000000  0.25000000
   0.00000000  0.75000000  0.75000000
   0.50000000  0.25000000  0.25000000
   0.50000000  0.25000000  0.75000000
   0.50000000  0.75000000  0.25000000
   0.50000000  0.75000000  0.75000000
   0.12500000  0.12500000  0.12500000
   0.12500000  0.12500000  0.62500000
   0.12500000  0.62500000  0.12500000
   0.12500000  0.62500000  0.62500000
   0.62500000  0.12500000  0.12500000
   0.62500000  0.12500000  0.62500000
   0.62500000  0.62500000  0.12500000
   0.62500000  0.62500000  0.62500000
   0.37500000  0.12500000  0.37500000
   0.37500000  0.12500000  0.87500000
   0.37500000  0.62500000  0.37500000
   0.37500000  0.62500000  0.87500000
   0.87500000  0.12500000  0.37500000
   0.87500000  0.12500000  0.87500000
   0.87500000  0.62500000  0.37500000
   0.87500000  0.62500000  0.87500000
   0.37500000  0.37500000  0.12500000
   0.37500000  0.37500000  0.62500000
   0.37500000  0.87500000  0.12500000
   0.37500000  0.87500000  0.62500000
   0.87500000  0.37500000  0.12500000
   0.87500000  0.37500000  0.62500000
   0.87500000  0.87500000  0.12500000
   0.87500000  0.87500000  0.62500000
   0.12500000  0.37500000  0.37500000
   0.12500000  0.37500000  0.87500000
   0.12500000  0.87500000  0.37500000
   0.12500000  0.87500000  0.87500000
   0.62500000  0.37500000  0.37500000
   0.62500000  0.37500000  0.87500000
   0.62500000  0.87500000  0.37500000
   0.62500000  0.87500000  0.87500000
 
 position of ions in cartesian coordinates  (Angst):
   0.00000000  0.00000000  0.00000000
   0.00000000  0.00000000  5.76339992
   0.00000000  5.76339992  0.00000000
   0.00000000  5.76339992  5.76339992
   5.76339992  0.00000000  0.00000000
   5.76339992  0.00000000  5.76339992
   5.76339992  5.76339992  0.00000000
   5.76339992  5.76339992  5.76339992
   2.88169996  2.88169996  0.00000000
   2.88169996  2.88169996  5.76339992
   2.88169996  8.64509988  0.00000000
   2.88169996  8.64509988  5.76339992
   8.64509988  2.88169996  0.00000000
   8.64509988  2.88169996  5.76339992
   8.64509988  8.64509988  0.00000000
   8.64509988  8.64509988  5.76339992
   2.88169996  0.00000000  2.88169996
   2.88169996  0.00000000  8.64509988
   2.88169996  5.76339992  2.88169996
   2.88169996  5.76339992  8.64509988
   8.64509988  0.00000000  2.88169996
   8.64509988  0.00000000  8.64509988
   8.64509988  5.76339992  2.88169996
   8.64509988  5.76339992  8.64509988
   0.00000000  2.88169996  2.88169996
   0.00000000  2.88169996  8.64509988
   0.00000000  8.64509988  2.88169996
   0.00000000  8.64509988  8.64509988
   5.76339992  2.88169996  2.88169996
   5.76339992  2.88169996  8.64509988
   5.76339992  8.64509988  2.88169996
   5.76339992  8.64509988  8.64509988
   1.44084998  1.44084998  1.44084998
   1.44084998  1.44084998  7.20424990
   1.44084998  7.20424990  1.44084998
   1.44084998  7.20424990  7.20424990
   7.20424990  1.44084998  1.44084998
   7.20424990  1.44084998  7.20424990
   7.20424990  7.20424990  1.44084998
   7.20424990  7.20424990  7.20424990
   4.32254994  1.44084998  4.32254994
   4.32254994  1.44084998 10.08594985
   4.32254994  7.20424990  4.32254994
   4.32254994  7.20424990 10.08594985
  10.08594985  1.44084998  4.32254994
  10.08594985  1.44084998 10.08594985
  10.08594985  7.20424990  4.32254994
  10.08594985  7.20424990 10.08594985
   4.32254994  4.32254994  1.44084998
   4.32254994  4.32254994  7.20424990
   4.32254994 10.08594985  1.44084998
   4.32254994 10.08594985  7.20424990
  10.08594985  4.32254994  1.44084998
  10.08594985  4.32254994  7.20424990
  10.08594985 10.08594985  1.44084998
  10.08594985 10.08594985  7.20424990
   1.44084998  4.32254994  4.32254994
   1.44084998  4.32254994 10.08594985
   1.44084998 10.08594985  4.32254994
   1.44084998 10.08594985 10.08594985
   7.20424990  4.32254994  4.32254994
   7.20424990  4.32254994 10.08594985
   7.20424990 10.08594985  4.32254994
   7.20424990 10.08594985 10.08594985
 


--------------------------------------------------------------------------------------------------------


 k-point     1 :   0.0000 0.0000 0.0000  plane waves:   27825
 k-point     2 :   0.2000 0.0000 0.0000  plane waves:   27809
 k-point     3 :   0.4000 0.0000 0.0000  plane waves:   27798
 k-point     4 :   0.2000 0.2000 0.0000  plane waves:   27827
 k-point     5 :   0.4000 0.2000 0.0000  plane waves:   27828
 k-point     6 :   0.4000 0.4000 0.0000  plane waves:   27820
 k-point     7 :   0.2000 0.2000 0.2000  plane waves:   27805
 k-point     8 :   0.4000 0.2000 0.2000  plane waves:   27770
 k-point     9 :   0.4000 0.4000 0.2000  plane waves:   27829
 k-point    10 :   0.4000 0.4000 0.4000  plane waves:   27853

 maximum and minimum number of plane-waves per node :     27853    27770

 maximum number of plane-waves:     27853
 maximum index in each direction: 
   IXMAX=   18   IYMAX=   18   IZMAX=   18
   IXMIN=  -19   IYMIN=  -19   IZMIN=  -19


 serial   3D FFT for wavefunctions
 parallel 3D FFT for charge:
    minimum data exchange during FFTs selected (reduces bandwidth)


 total amount of memory used by VASP MPI-rank0   237129. kBytes
=======================================================================

   base      :      30000. kBytes
   nonl-proj :      86465. kBytes
   fftplans  :       6720. kBytes
   grid      :      17034. kBytes
   one-center:        519. kBytes
   wavefun   :      96391. kBytes
 
     INWAV:  cpu time      0.0000: real time      0.0003
 Broyden mixing: mesh for mixing (old mesh)
   NGX = 37   NGY = 37   NGZ = 37
  (NGX  =112   NGY  =112   NGZ  =112)
  gives a total of  50653 points

 initial charge density was supplied:
 charge density of overlapping atoms calculated
 number of electron     256.0000000 magnetization 
 keeping initial charge density in first step


--------------------------------------------------------------------------------------------------------


 Maximum index for augmentation-charges         1031 (set IRDMAX)


--------------------------------------------------------------------------------------------------------


 First call to EWALD:  gamma=   0.154
 Maximum number of real-space cells 3x 3x 3
 Maximum number of reciprocal cells 3x 3x 3

    FEWALD:  cpu time      0.0030: real time      0.0030


--------------------------------------- Ionic step        1  -------------------------------------------




--------------------------------------- Iteration      1(   1)  ---------------------------------------


    POTLOK:  cpu time      0.1227: real time      0.1273
    SETDIJ:  cpu time      0.0124: real time      0.0126
     EDDAV:  cpu time     41.1055: real time     41.6995
 BZINTS: Fermi energy:    9.755179;  256.000000 electrons
         Band energy: 0.380366E+03;  BLOECHL correction:   -0.051910
       DOS:  cpu time      0.0043: real time      0.0043
    --------------------------------------------
      LOOP:  cpu time     41.2449: real time     41.8438

 eigenvalue-minimisations  :  3360
 total energy-change (2. order) : 0.9347958E+03  (-0.8083760E+04)
 number of electron     256.0000000 magnetization 
 augmentation part      256.0000000 magnetization 

 Free energy of the ion-electron system (eV)
  ---------------------------------------------------
  alpha Z        PSCENC =       571.82363354
  Ewald energy   TEWEN  =     -7193.38444655
  -Hartree energ DENC   =      -601.75088863
  -exchange      EXHF   =         0.00000000
  -V(xc)+E(xc)   XCENC  =      -996.21742910
  PAW double counting   =      6692.16565901    -5247.93935635
  entropy T*S    EENTRO =         0.00000000
  eigenvalues    EBANDS =       380.36554357
  atomic energy  EATOM  =      7329.73306348
  Solvation  Ediel_sol  =         0.00000000
  ---------------------------------------------------
  free energy    TOTEN  =       934.79577897 eV

  energy without entropy =      934.79577897  energy(sigma->0) =      934.79577897


--------------------------------------------------------------------------------------------------------




--------------------------------------- Iteration      1(   2)  ---------------------------------------


     EDDAV:  cpu time     46.1729: real time     46.7109
 BZINTS: Fermi energy:    3.019252;  256.000000 electrons
         Band energy:-0.721806E+03;  BLOECHL correction:    0.000000
       DOS:  cpu time      0.0035: real time      0.0036
    --------------------------------------------
      LOOP:  cpu time     46.1764: real time     46.7145

 eigenvalue-minimisations  :  4000
 total energy-change (2. order) :-0.1102171E+04  (-0.1051295E+04)
 number of electron     256.0000000 magnetization 
 augmentation part      256.0000000 magnetization 

 Free energy of the ion-electron system (eV)
  ---------------------------------------------------
  alpha Z        PSCENC =       571.82363354
  Ewald energy   TEWEN  =     -7193.38444655
  -Hartree energ DENC   =      -601.75088863
  -exchange      EXHF   =         0.00000000
  -V(xc)+E(xc)   XCENC  =      -996.21742910
  PAW double counting   =      6692.16565901    -5247.93935635
  entropy T*S    EENTRO =         0.00000000
  eigenvalues    EBANDS =      -721.80563190
  atomic energy  EATOM  =      7329.73306348
  Solvation  Ediel_sol  =         0.00000000
  ---------------------------------------------------
  free energy    TOTEN  =      -167.37539650 eV

  energy without entropy =     -167.37539650  energy(sigma->0) =     -167.37539650


--------------------------------------------------------------------------------------------------------




--------------------------------------- Iteration      1(   3)  ---------------------------------------


     EDDAV:  cpu time     46.6632: real time     47.1951
 BZINTS: Fermi energy:    1.825541;  256.000000 electrons
         Band energy:-0.822153E+03;  BLOECHL correction:    0.000000
       DOS:  cpu time      0.0027: real time      0.0027
    --------------------------------------------
      LOOP:  cpu time     46.6659: real time     47.1978

 eigenvalue-minimisations  :  4128
 total energy-change (2. order) :-0.1003471E+03  (-0.9900346E+02)
 number of electron     256.0000000 magnetization 
 augmentation part      256.0000000 magnetization 

 Free energy of the ion-electron system (eV)
  ---------------------------------------------------
  alpha Z        PSCENC =       571.82363354
  Ewald energy   TEWEN  =     -7193.38444655
  -Hartree energ DENC   =      -601.75088863
  -exchange      EXHF   =         0.00000000
  -V(xc)+E(xc)   XCENC  =      -996.21742910
  PAW double counting   =      6692.16565901    -5247.93935635
  entropy T*S    EENTRO =         0.00000000
  eigenvalues    EBANDS =      -822.15269952
  atomic energy  EATOM  =      7329.73306348
  Solvation  Ediel_sol  =         0.00000000
  ---------------------------------------------------
  free energy    TOTEN  =      -267.72246412 eV

  energy without entropy =     -267.72246412  energy(sigma->0) =     -267.72246412


--------------------------------------------------------------------------------------------------------




--------------------------------------- Iteration      1(   4)  ---------------------------------------


     EDDAV:  cpu time     45.8923: real time     46.4777
 BZINTS: Fermi energy:    1.767710;  256.000000 electrons
         Band energy:-0.824621E+03;  BLOECHL correction:    0.000000
       DOS:  cpu time      0.0033: real time      0.0033
    --------------------------------------------
      LOOP:  cpu time     45.8956: real time     46.4811

 eigenvalue-minimisations  :  4024
 total energy-change (2. order) :-0.2468579E+01  (-0.2442864E+01)
 number of electron     256.0000000 magnetization 
 augmentation part      256.0000000 magnetization 

 Free energy of the ion-electron system (eV)
  ---------------------------------------------------
  alpha Z        PSCENC =       571.82363354
  Ewald energy   TEWEN  =     -7193.38444655
  -Hartree energ DENC   =      -601.75088863
  -exchange      EXHF   =         0.00000000
  -V(xc)+E(xc)   XCENC  =      -996.21742910
  PAW double counting   =      6692.16565901    -5247.93935635
  entropy T*S    EENTRO =         0.00000000
  eigenvalues    EBANDS =      -824.62127899
  atomic energy  EATOM  =      7329.73306348
  Solvation  Ediel_sol  =         0.00000000
  ---------------------------------------------------
  free energy    TOTEN  =      -270.19104359 eV

  energy without entropy =     -270.19104359  energy(sigma->0) =     -270.19104359


--------------------------------------------------------------------------------------------------------




--------------------------------------- Iteration      1(   5)  ---------------------------------------


     EDDAV:  cpu time     48.1942: real time     48.8097
 BZINTS: Fermi energy:    1.814405;  256.000000 electrons
         Band energy:-0.824686E+03;  BLOECHL correction:    0.000000
       DOS:  cpu time      0.0027: real time      0.0028
    CHARGE:  cpu time      0.6115: real time      0.6170
    MIXING:  cpu time      0.0030: real time      0.0031
    --------------------------------------------
      LOOP:  cpu time     48.8115: real time     49.4325

 eigenvalue-minimisations  :  4112
 total energy-change (2. order) :-0.6460029E-01  (-0.6440364E-01)
 number of electron     255.9999565 magnetization 
 augmentation part      -41.5315939 magnetization 

 Broyden mixing:
  rms(total) = 0.20186E+01    rms(broyden)= 0.20186E+01
  rms(prec ) = 0.23017E+01
  weight for this iteration     100.00

 Free energy of the ion-electron system (eV)
  ---------------------------------------------------
  alpha Z        PSCENC =       571.82363354
  Ewald energy   TEWEN  =     -7193.38444655
  -Hartree energ DENC   =      -601.75088863
  -exchange      EXHF   =         0.00000000
  -V(xc)+E(xc)   XCENC  =      -996.21742910
  PAW double counting   =      6692.16565901    -5247.93935635
  entropy T*S    EENTRO =         0.00000000
  eigenvalues    EBANDS =      -824.68587927
  atomic energy  EATOM  =      7329.73306348
  Solvation  Ediel_sol  =         0.00000000
  ---------------------------------------------------
  free energy    TOTEN  =      -270.25564388 eV

  energy without entropy =     -270.25564388  energy(sigma->0) =     -270.25564388


--------------------------------------------------------------------------------------------------------




--------------------------------------- Iteration      1(   6)  ---------------------------------------


    POTLOK:  cpu time      0.1170: real time      0.1214
    SETDIJ:  cpu time      0.0174: real time      0.0178
     EDDAV:  cpu time     48.3174: real time     48.9092
 BZINTS: Fermi energy:    2.061917;  256.000000 electrons
         Band energy:-0.773006E+03;  BLOECHL correction:    0.000000
       DOS:  cpu time      0.0037: real time      0.0038
    CHARGE:  cpu time      0.6235: real time      0.6292
    MIXING:  cpu time      0.0037: real time      0.0037
    --------------------------------------------
      LOOP:  cpu time     49.0827: real time     49.6851

 eigenvalue-minimisations  :  3928
 total energy-change (2. order) : 0.4198783E+01  (-0.6518351E+00)
 number of electron     255.9999573 magnetization 
 augmentation part      -41.4050217 magnetization 

 Broyden mixing:
  rms(total) = 0.11852E+01    rms(broyden)= 0.11852E+01
  rms(prec ) = 0.13103E+01
  weight for this iteration     100.00

 eigenvalues of (default mixing * dielectric matrix)
  average eigenvalue GAMMA=   2.2615
  2.2615

 Free energy of the ion-electron system (eV)
  ---------------------------------------------------
  alpha Z        PSCENC =       571.82363354
  Ewald energy   TEWEN  =     -7193.38444655
  -Hartree energ DENC   =      -652.51613995
  -exchange      EXHF   =         0.00000000
  -V(xc)+E(xc)   XCENC  =      -987.40615639
  PAW double counting   =      9415.64339994    -7976.94372549
  entropy T*S    EENTRO =         0.00000000
  eigenvalues    EBANDS =      -773.00648976
  atomic energy  EATOM  =      7329.73306348
  Solvation  Ediel_sol  =         0.00000000
  ---------------------------------------------------
  free energy    TOTEN  =      -266.05686118 eV

  energy without entropy =     -266.05686118  energy(sigma->0) =     -266.05686118


--------------------------------------------------------------------------------------------------------




--------------------------------------- Iteration      1(   7)  ---------------------------------------


    POTLOK:  cpu time      0.1275: real time      0.1361
    SETDIJ:  cpu time      0.0175: real time      0.0178
     EDDAV:  cpu time     48.8858: real time     49.4690
 BZINTS: Fermi energy:    2.319788;  256.000000 electrons
         Band energy:-0.724103E+03;  BLOECHL correction:    0.000000
       DOS:  cpu time      0.0036: real time      0.0037
    CHARGE:  cpu time      0.5167: real time      0.5211
    MIXING:  cpu time      0.0042: real time      0.0042
    --------------------------------------------
      LOOP:  cpu time     49.5553: real time     50.1519

 eigenvalue-minimisations  :  4056
 total energy-change (2. order) : 0.8351863E+00  (-0.4316526E+00)
 number of electron     255.9999579 magnetization 
 augmentation part      -41.2761498 magnetization 

 Broyden mixing:
  rms(total) = 0.24485E+00    rms(broyden)= 0.24485E+00
  rms(prec ) = 0.28773E+00
  weight for this iteration     100.00

 eigenvalues of (default mixing * dielectric matrix)
  average eigenvalue GAMMA=   1.9365
  1.6143  2.2588

 Free energy of the ion-electron system (eV)
  ---------------------------------------------------
  alpha Z        PSCENC =       571.82363354
  Ewald energy   TEWEN  =     -7193.38444655
  -Hartree energ DENC   =      -705.60565206
  -exchange      EXHF   =         0.00000000
  -V(xc)+E(xc)   XCENC  =      -976.56121365
  PAW double counting   =     13956.05165454   -12523.17566394
  entropy T*S    EENTRO =         0.00000000
  eigenvalues    EBANDS =      -724.10305027
  atomic energy  EATOM  =      7329.73306348
  Solvation  Ediel_sol  =         0.00000000
  ---------------------------------------------------
  free energy    TOTEN  =      -265.22167490 eV

  energy without entropy =     -265.22167490  energy(sigma->0) =     -265.22167490


--------------------------------------------------------------------------------------------------------




--------------------------------------- Iteration      1(   8)  ---------------------------------------


    POTLOK:  cpu time      0.1075: real time      0.1115
    SETDIJ:  cpu time      0.0110: real time      0.0112
     EDDAV:  cpu time     46.7027: real time     47.2677
 BZINTS: Fermi energy:    2.291452;  256.000000 electrons
         Band energy:-0.725802E+03;  BLOECHL correction:    0.000000
       DOS:  cpu time      0.0029: real time      0.0030
    CHARGE:  cpu time      0.5123: real time      0.5172
    MIXING:  cpu time      0.0051: real time      0.0051
    --------------------------------------------
      LOOP:  cpu time     47.3415: real time     47.9157

 eigenvalue-minimisations  :  3912
 total energy-change (2. order) : 0.4118667E-01  (-0.5028425E-01)
 number of electron     255.9999578 magnetization 
 augmentation part      -41.2848960 magnetization 

 Broyden mixing:
  rms(total) = 0.61554E-01    rms(broyden)= 0.61554E-01
  rms(prec ) = 0.71638E-01
  weight for this iteration     100.00

 eigenvalues of (default mixing * dielectric matrix)
  average eigenvalue GAMMA=   1.9496
  2.6803  1.5843  1.5843

 Free energy of the ion-electron system (eV)
  ---------------------------------------------------
  alpha Z        PSCENC =       571.82363354
  Ewald energy   TEWEN  =     -7193.38444655
  -Hartree energ DENC   =      -704.91716312
  -exchange      EXHF   =         0.00000000
  -V(xc)+E(xc)   XCENC  =      -975.20821417
  PAW double counting   =     14622.97069331   -13190.39601811
  entropy T*S    EENTRO =         0.00000000
  eigenvalues    EBANDS =      -725.80203661
  atomic energy  EATOM  =      7329.73306348
  Solvation  Ediel_sol  =         0.00000000
  ---------------------------------------------------
  free energy    TOTEN  =      -265.18048823 eV

  energy without entropy =     -265.18048823  energy(sigma->0) =     -265.18048823


--------------------------------------------------------------------------------------------------------




--------------------------------------- Iteration      1(   9)  ---------------------------------------


    POTLOK:  cpu time      0.1048: real time      0.1160
    SETDIJ:  cpu time      0.0125: real time      0.0126
     EDDAV:  cpu time     46.6978: real time     47.2598
 BZINTS: Fermi energy:    2.284331;  256.000000 electrons
         Band energy:-0.721915E+03;  BLOECHL correction:    0.000000
       DOS:  cpu time      0.0028: real time      0.0029
    CHARGE:  cpu time      0.5021: real time      0.5065
    MIXING:  cpu time      0.0039: real time      0.0039
    --------------------------------------------
      LOOP:  cpu time     47.3239: real time     47.9017

 eigenvalue-minimisations  :  3800
 total energy-change (2. order) :-0.1180088E-01  (-0.3536321E-02)
 number of electron     255.9999578 magnetization 
 augmentation part      -41.2861253 magnetization 

 Broyden mixing:
  rms(total) = 0.23128E-01    rms(broyden)= 0.23128E-01
  rms(prec ) = 0.24574E-01
  weight for this iteration     100.00

 eigenvalues of (default mixing * dielectric matrix)
  average eigenvalue GAMMA=   1.6605
  2.5811  1.6645  1.6645  0.7317

 Free energy of the ion-electron system (eV)
  ---------------------------------------------------
  alpha Z        PSCENC =       571.82363354
  Ewald energy   TEWEN  =     -7193.38444655
  -Hartree energ DENC   =      -709.51693603
  -exchange      EXHF   =         0.00000000
  -V(xc)+E(xc)   XCENC  =      -974.30636084
  PAW double counting   =     14814.09814113   -13381.72433024
  entropy T*S    EENTRO =         0.00000000
  eigenvalues    EBANDS =      -721.91505361
  atomic energy  EATOM  =      7329.73306348
  Solvation  Ediel_sol  =         0.00000000
  ---------------------------------------------------
  free energy    TOTEN  =      -265.19228912 eV

  energy without entropy =     -265.19228912  energy(sigma->0) =     -265.19228912


--------------------------------------------------------------------------------------------------------




--------------------------------------- Iteration      1(  10)  ---------------------------------------


    POTLOK:  cpu time      0.1164: real time      0.1207
    SETDIJ:  cpu time      0.0117: real time      0.0119
     EDDAV:  cpu time     49.5541: real time     50.1439
 BZINTS: Fermi energy:    2.327022;  256.000000 electrons
         Band energy:-0.721861E+03;  BLOECHL correction:    0.000000
       DOS:  cpu time      0.0042: real time      0.0043
    CHARGE:  cpu time      0.6409: real time      0.6462
    MIXING:  cpu time      0.0040: real time      0.0040
    --------------------------------------------
      LOOP:  cpu time     50.3312: real time     50.9310

 eigenvalue-minimisations  :  4216
 total energy-change (2. order) :-0.1053033E-02  (-0.9602872E-04)
 number of electron     255.9999578 magnetization 
 augmentation part      -41.2865413 magnetization 

 Broyden mixing:
  rms(total) = 0.10766E-01    rms(broyden)= 0.10766E-01
  rms(prec ) = 0.12532E-01
  weight for this iteration     100.00

 eigenvalues of (default mixing * dielectric matrix)
  average eigenvalue GAMMA=   1.9230
  3.1111  2.4959  1.0346  1.4868  1.4868

 Free energy of the ion-electron system (eV)
  ---------------------------------------------------
  alpha Z        PSCENC =       571.82363354
  Ewald energy   TEWEN  =     -7193.38444655
  -Hartree energ DENC   =      -709.60637035
  -exchange      EXHF   =         0.00000000
  -V(xc)+E(xc)   XCENC  =      -974.34960419
  PAW double counting   =     14731.82163968   -13299.37072020
  entropy T*S    EENTRO =         0.00000000
  eigenvalues    EBANDS =      -721.86053756
  atomic energy  EATOM  =      7329.73306348
  Solvation  Ediel_sol  =         0.00000000
  ---------------------------------------------------
  free energy    TOTEN  =      -265.19334215 eV

  energy without entropy =     -265.19334215  energy(sigma->0) =     -265.19334215


--------------------------------------------------------------------------------------------------------




--------------------------------------- Iteration      1(  11)  ---------------------------------------


    POTLOK:  cpu time      0.1425: real time      0.1500
    SETDIJ:  cpu time      0.0119: real time      0.0122
     EDDAV:  cpu time     45.1625: real time     45.7161
 BZINTS: Fermi energy:    2.323382;  256.000000 electrons
         Band energy:-0.721432E+03;  BLOECHL correction:    0.000000
       DOS:  cpu time      0.0024: real time      0.0025
    CHARGE:  cpu time      0.4975: real time      0.5016
    MIXING:  cpu time      0.0051: real time      0.0052
    --------------------------------------------
      LOOP:  cpu time     45.8220: real time     46.3877

 eigenvalue-minimisations  :  3616
 total energy-change (2. order) :-0.1302488E-02  (-0.2176019E-03)
 number of electron     255.9999578 magnetization 
 augmentation part      -41.2838428 magnetization 

 Broyden mixing:
  rms(total) = 0.49717E-02    rms(broyden)= 0.49717E-02
  rms(prec ) = 0.52176E-02
  weight for this iteration     100.00

 eigenvalues of (default mixing * dielectric matrix)
  average eigenvalue GAMMA=   1.7892
  3.0740  2.4862  1.6598  1.6598  0.9552  0.8999

 Free energy of the ion-electron system (eV)
  ---------------------------------------------------
  alpha Z        PSCENC =       571.82363354
  Ewald energy   TEWEN  =     -7193.38444655
  -Hartree energ DENC   =      -710.17384050
  -exchange      EXHF   =         0.00000000
  -V(xc)+E(xc)   XCENC  =      -974.26807203
  PAW double counting   =     14682.30510273   -13249.79853366
  entropy T*S    EENTRO =         0.00000000
  eigenvalues    EBANDS =      -721.43155165
  atomic energy  EATOM  =      7329.73306348
  Solvation  Ediel_sol  =         0.00000000
  ---------------------------------------------------
  free energy    TOTEN  =      -265.19464464 eV

  energy without entropy =     -265.19464464  energy(sigma->0) =     -265.19464464


--------------------------------------------------------------------------------------------------------




--------------------------------------- Iteration      1(  12)  ---------------------------------------


    POTLOK:  cpu time      0.1088: real time      0.1124
    SETDIJ:  cpu time      0.0108: real time      0.0110
     EDDAV:  cpu time     47.3727: real time     47.9516
 BZINTS: Fermi energy:    2.321220;  256.000000 electrons
         Band energy:-0.721388E+03;  BLOECHL correction:    0.000000
       DOS:  cpu time      0.0023: real time      0.0024
    CHARGE:  cpu time      0.4712: real time      0.4756
    MIXING:  cpu time      0.0059: real time      0.0059
    --------------------------------------------
      LOOP:  cpu time     47.9717: real time     48.5588

 eigenvalue-minimisations  :  4128
 total energy-change (2. order) :-0.6869195E-05  (-0.2968605E-05)
 number of electron     255.9999578 magnetization 
 augmentation part      -41.2837758 magnetization 

 Broyden mixing:
  rms(total) = 0.22352E-02    rms(broyden)= 0.22352E-02
  rms(prec ) = 0.24948E-02
  weight for this iteration     100.00

 eigenvalues of (default mixing * dielectric matrix)
  average eigenvalue GAMMA=   1.8879
  3.2490  2.6153  2.6153  1.3487  1.3487  1.0194  1.0194

 Free energy of the ion-electron system (eV)
  ---------------------------------------------------
  alpha Z        PSCENC =       571.82363354
  Ewald energy   TEWEN  =     -7193.38444655
  -Hartree energ DENC   =      -710.20510056
  -exchange      EXHF   =         0.00000000
  -V(xc)+E(xc)   XCENC  =      -974.27391593
  PAW double counting   =     14688.08809575   -13255.58846044
  entropy T*S    EENTRO =         0.00000000
  eigenvalues    EBANDS =      -721.38752079
  atomic energy  EATOM  =      7329.73306348
  Solvation  Ediel_sol  =         0.00000000
  ---------------------------------------------------
  free energy    TOTEN  =      -265.19465151 eV

  energy without entropy =     -265.19465151  energy(sigma->0) =     -265.19465151


--------------------------------------------------------------------------------------------------------




--------------------------------------- Iteration      1(  13)  ---------------------------------------


    POTLOK:  cpu time      0.1139: real time      0.1190
    SETDIJ:  cpu time      0.0120: real time      0.0123
     EDDAV:  cpu time     44.7562: real time     45.2901
 BZINTS: Fermi energy:    2.320659;  256.000000 electrons
         Band energy:-0.721261E+03;  BLOECHL correction:    0.000000
       DOS:  cpu time      0.0028: real time      0.0029
    CHARGE:  cpu time      0.6005: real time      0.6063
    MIXING:  cpu time      0.0051: real time      0.0052
    --------------------------------------------
      LOOP:  cpu time     45.4906: real time     46.0359

 eigenvalue-minimisations  :  3832
 total energy-change (2. order) :-0.9176934E-05  (-0.7750846E-05)
 number of electron     255.9999578 magnetization 
 augmentation part      -41.2830627 magnetization 

 Broyden mixing:
  rms(total) = 0.98915E-03    rms(broyden)= 0.98915E-03
  rms(prec ) = 0.11078E-02
  weight for this iteration     100.00

 eigenvalues of (default mixing * dielectric matrix)
  average eigenvalue GAMMA=   1.8420
  3.3787  2.7762  2.4450  1.6240  1.6240  1.1005  0.8937  0.8937

 Free energy of the ion-electron system (eV)
  ---------------------------------------------------
  alpha Z        PSCENC =       571.82363354
  Ewald energy   TEWEN  =     -7193.38444655
  -Hartree energ DENC   =      -710.33017115
  -exchange      EXHF   =         0.00000000
  -V(xc)+E(xc)   XCENC  =      -974.26913156
  PAW double counting   =     14691.86062111   -13259.36711240
  entropy T*S    EENTRO =         0.00000000
  eigenvalues    EBANDS =      -721.26111715
  atomic energy  EATOM  =      7329.73306348
  Solvation  Ediel_sol  =         0.00000000
  ---------------------------------------------------
  free energy    TOTEN  =      -265.19466068 eV

  energy without entropy =     -265.19466068  energy(sigma->0) =     -265.19466068


--------------------------------------------------------------------------------------------------------




--------------------------------------- Iteration      1(  14)  ---------------------------------------


    POTLOK:  cpu time      0.1276: real time      0.1320
    SETDIJ:  cpu time      0.0122: real time      0.0124
     EDDAV:  cpu time     38.3010: real time     38.8237
 BZINTS: Fermi energy:    2.320037;  256.000000 electrons
         Band energy:-0.721274E+03;  BLOECHL correction:    0.000000
       DOS:  cpu time      0.0026: real time      0.0027
    --------------------------------------------
      LOOP:  cpu time     38.4433: real time     38.9707

 eigenvalue-minimisations  :  3216
 total energy-change (2. order) : 0.6447044E-06  (-0.4034029E-06)
 number of electron     255.9999578 magnetization 
 augmentation part      -41.2830627 magnetization 

 Free energy of the ion-electron system (eV)
  ---------------------------------------------------
  alpha Z        PSCENC =       571.82363354
  Ewald energy   TEWEN  =     -7193.38444655
  -Hartree energ DENC   =      -710.31804207
  -exchange      EXHF   =         0.00000000
  -V(xc)+E(xc)   XCENC  =      -974.26925401
  PAW double counting   =     14691.89676868   -13259.40203346
  entropy T*S    EENTRO =         0.00000000
  eigenvalues    EBANDS =      -721.27434965
  atomic energy  EATOM  =      7329.73306348
  Solvation  Ediel_sol  =         0.00000000
  ---------------------------------------------------
  free energy    TOTEN  =      -265.19466004 eV

  energy without entropy =     -265.19466004  energy(sigma->0) =     -265.19466004


--------------------------------------------------------------------------------------------------------




 average (electrostatic) potential at core
  the test charge radii are     1.0621  1.2767
  (the norm of the test charge is              1.0000)
       1 -51.8959       2 -51.8959       3 -51.8959       4 -51.8959       5 -51.8959
       6 -51.8959       7 -51.8959       8 -51.8959       9 -51.8959      10 -51.8959
      11 -51.8959      12 -51.8959      13 -51.8959      14 -51.8959      15 -51.8959
      16 -51.8959      17 -51.8959      18 -51.8959      19 -51.8959      20 -51.8959
      21 -51.8959      22 -51.8959      23 -51.8959      24 -51.8959      25 -51.8959
      26 -51.8959      27 -51.8959      28 -51.8959      29 -51.8959      30 -51.8959
      31 -51.8959      32 -51.8959      33 -15.0696      34 -15.0696      35 -15.0696
      36 -15.0696      37 -15.0696      38 -15.0696      39 -15.0696      40 -15.0696
      41 -15.0696      42 -15.0696      43 -15.0696      44 -15.0696      45 -15.0696
      46 -15.0696      47 -15.0696      48 -15.0696      49 -15.0696      50 -15.0696
      51 -15.0696      52 -15.0696      53 -15.0696      54 -15.0696      55 -15.0696
      56 -15.0696      57 -15.0696      58 -15.0696      59 -15.0696      60 -15.0696
      61 -15.0696      62 -15.0696      63 -15.0696      64 -15.0696
 
 
 
 E-fermi :   2.3200     XC(G=0):  -8.9508     alpha+bet : -8.0800

 val. band max:        2.2849965363   @ k =   0.0000   0.0000   0.0000
 cond. band min:       2.4327935613   @ k =   0.0000   0.0000   0.0000
 fundamental gap:      0.1477970250
 Fermi energy:         2.3200369618

 k-point     1 :       0.0000    0.0000    0.0000
  band No.  band energies     occupation 
      1     -10.0206      2.00000
      2      -9.2185      2.00000
      3      -9.2185      2.00000
      4      -9.2185      2.00000
      5      -9.2185      2.00000
      6      -9.2185      2.00000
      7      -9.2185      2.00000
      8      -8.6164      2.00000
      9      -8.6164      2.00000
     10      -8.6164      2.00000
     11      -8.6164      2.00000
     12      -8.6164      2.00000
     13      -8.6164      2.00000
     14      -8.6164      2.00000
     15      -8.6164      2.00000
     16      -8.6164      2.00000
     17      -8.6164      2.00000
     18      -8.6164      2.00000
     19      -8.6164      2.00000
     20      -8.5297      2.00000
     21      -8.5297      2.00000
     22      -8.5297      2.00000
     23      -8.5297      2.00000
     24      -7.8826      2.00000
     25      -7.8826      2.00000
     26      -7.8826      2.00000
     27      -7.8477      2.00000
     28      -7.8477      2.00000
     29      -7.8477      2.00000
     30      -7.8477      2.00000
     31      -7.8477      2.00000
     32      -7.8477      2.00000
     33      -4.2414      2.00000
     34      -4.2414      2.00000
     35      -4.2414      2.00000
     36      -4.0671      2.00000
     37      -4.0671      2.00000
     38      -4.0671      2.00000
     39      -4.0671      2.00000
     40      -4.0671      2.00000
     41      -4.0671      2.00000
     42      -4.0207      2.00000
     43      -4.0207      2.00000
     44      -4.0207      2.00000
     45      -4.0207      2.00000
     46      -3.1727      2.00000
     47      -3.1727      2.00000
     48      -3.1727      2.00000
     49      -3.1727      2.00000
     50      -3.1727      2.00000
     51      -3.1727      2.00000
     52      -3.1727      2.00000
     53      -3.1727      2.00000
     54      -3.1727      2.00000
     55      -3.1727      2.00000
     56      -3.1727      2.00000
     57      -3.1727      2.00000
     58      -1.7648      2.00000
     59      -1.7648      2.00000
     60      -1.7648      2.00000
     61      -1.7648      2.00000
     62      -1.7648      2.00000
     63      -1.7648      2.00000
     64      -0.9885      2.00000
     65      -0.9885      2.00000
     66      -0.9885      2.00000
     67      -0.9885      2.00000
     68      -0.9885      2.00000
     69      -0.9885      2.00000
     70      -0.8252      2.00000
     71      -0.8252      2.00000
     72      -0.8252      2.00000
     73      -0.8252      2.00000
     74      -0.8252      2.00000
     75      -0.8252      2.00000
     76      -0.8252      2.00000
     77      -0.8252      2.00000
     78      -0.8252      2.00000
     79      -0.8252      2.00000
     80      -0.8252      2.00000
     81      -0.8252      2.00000
     82      -0.7788      2.00000
     83      -0.7788      2.00000
     84      -0.7788      2.00000
     85      -0.7788      2.00000
     86      -0.7788      2.00000
     87      -0.7788      2.00000
     88      -0.1823      2.00000
     89      -0.1823      2.00000
     90      -0.1823      2.00000
     91      -0.1823      2.00000
     92      -0.1823      2.00000
     93      -0.1823      2.00000
     94       0.7338      2.00000
     95       0.7338      2.00000
     96       0.7338      2.00000
     97       0.7338      2.00000
     98       0.7338      2.00000
     99       0.7338      2.00000
    100       0.7338      2.00000
    101       0.7338      2.00000
    102       0.7338      2.00000
    103       0.7338      2.00000
    104       0.7338      2.00000
    105       0.7338      2.00000
    106       1.1648      2.00000
    107       1.1648      2.00000
    108       1.1648      2.00000
    109       1.1648      2.00000
    110       1.1648      2.00000
    111       1.1648      2.00000
    112       1.1648      2.00000
    113       1.1648      2.00000
    114       1.1648      2.00000
    115       1.1648      2.00000
    116       1.1648      2.00000
    117       1.1648      2.00000
    118       1.2351      2.00000
    119       1.2351      2.00000
    120       1.2351      2.00000
    121       1.2351      2.00000
    122       1.2351      2.00000
    123       1.2351      2.00000
    124       1.2351      2.00000
    125       1.2351      2.00000
[...]
   15.677851    0.405008    0.405008    0.405008    0.000000    0.000000   -0.000000
   15.697900    0.406534    0.406534    0.406534    0.000000    0.000000   -0.000000
   15.717948    0.408109    0.408109    0.408109    0.000000    0.000000   -0.000000
   15.737996    0.409733    0.409733    0.409733    0.000000    0.000000   -0.000000
   15.758045    0.411403    0.411403    0.411403    0.000000    0.000000   -0.000000
   15.778093    0.413106    0.413106    0.413106    0.000000    0.000000   -0.000000
   15.798142    0.414830    0.414830    0.414830    0.000000    0.000000   -0.000000
   15.818190    0.416567    0.416567    0.416567    0.000000    0.000000   -0.000000
   15.838238    0.418310    0.418310    0.418310    0.000000    0.000000   -0.000000
   15.858287    0.420056    0.420056    0.420056    0.000000    0.000000   -0.000000
   15.878335    0.421799    0.421799    0.421799    0.000000    0.000000   -0.000000
   15.898384    0.423540    0.423540    0.423540    0.000000    0.000000   -0.000000
   15.918432    0.425275    0.425275    0.425275    0.000000    0.000000   -0.000000
   15.938480    0.427007    0.427007    0.427007    0.000000    0.000000   -0.000000
   15.958529    0.428739    0.428739    0.428739    0.000000    0.000000   -0.000000
   15.978577    0.430475    0.430475    0.430475    0.000000    0.000000   -0.000000
   15.998626    0.432218    0.432218    0.432218    0.000000    0.000000   -0.000000
   16.018674    0.433965    0.433965    0.433965    0.000000    0.000000   -0.000000
   16.038722    0.435710    0.435710    0.435710    0.000000    0.000000   -0.000000
   16.058771    0.437447    0.437447    0.437447    0.000000    0.000000   -0.000000
   16.078819    0.439171    0.439171    0.439171    0.000000    0.000000   -0.000000
   16.098868    0.440883    0.440883    0.440883    0.000000    0.000000   -0.000000
   16.118916    0.442585    0.442585    0.442585    0.000000    0.000000   -0.000000
   16.138964    0.444280    0.444280    0.444280    0.000000    0.000000   -0.000000
   16.159013    0.445971    0.445971    0.445971    0.000000    0.000000   -0.000000
   16.179061    0.447661    0.447661    0.447661    0.000000    0.000000   -0.000000
   16.199110    0.449348    0.449348    0.449348    0.000000    0.000000   -0.000000
   16.219158    0.451030    0.451030    0.451030    0.000000    0.000000   -0.000000
   16.239207    0.452704    0.452704    0.452704    0.000000    0.000000   -0.000000
   16.259255    0.454368    0.454368    0.454368    0.000000    0.000000   -0.000000
   16.279303    0.456020    0.456020    0.456020    0.000000    0.000000   -0.000000
   16.299352    0.457661    0.457661    0.457661    0.000000    0.000000   -0.000000
   16.319400    0.459289    0.459289    0.459289    0.000000    0.000000   -0.000000
   16.339449    0.460905    0.460905    0.460905    0.000000    0.000000   -0.000000
   16.359497    0.462509    0.462509    0.462509    0.000000    0.000000   -0.000000
   16.379545    0.464102    0.464102    0.464102    0.000000    0.000000   -0.000000
   16.399594    0.465683    0.465683    0.465683    0.000000    0.000000   -0.000000
   16.419642    0.467253    0.467253    0.467253    0.000000    0.000000   -0.000000
   16.439691    0.468813    0.468813    0.468813    0.000000    0.000000   -0.000000
   16.459739    0.470363    0.470363    0.470363    0.000000    0.000000   -0.000000
   16.479787    0.471902    0.471902    0.471902    0.000000    0.000000   -0.000000
   16.499836    0.473432    0.473432    0.473432    0.000000    0.000000   -0.000000
   16.519884    0.474952    0.474952    0.474952    0.000000    0.000000   -0.000000
   16.539933    0.476463    0.476463    0.476463    0.000000    0.000000   -0.000000
   16.559981    0.477964    0.477964    0.477964    0.000000    0.000000   -0.000000
   16.580029    0.479456    0.479456    0.479456    0.000000    0.000000   -0.000000
   16.600078    0.480940    0.480940    0.480940    0.000000    0.000000   -0.000000
   16.620126    0.482414    0.482414    0.482414    0.000000    0.000000   -0.000000
   16.640175    0.483880    0.483880    0.483880    0.000000    0.000000   -0.000000
   16.660223    0.485338    0.485338    0.485338    0.000000    0.000000   -0.000000
   16.680271    0.486787    0.486787    0.486787    0.000000    0.000000   -0.000000
   16.700320    0.488228    0.488228    0.488228    0.000000    0.000000   -0.000000
   16.720368    0.489661    0.489661    0.489661    0.000000    0.000000   -0.000000
   16.740417    0.491085    0.491085    0.491085    0.000000    0.000000   -0.000000
   16.760465    0.492502    0.492502    0.492502    0.000000    0.000000   -0.000000
   16.780513    0.493912    0.493912    0.493912    0.000000    0.000000   -0.000000
   16.800562    0.495313    0.495313    0.495313    0.000000    0.000000   -0.000000
   16.820610    0.496707    0.496707    0.496707    0.000000    0.000000   -0.000000
   16.840659    0.498094    0.498094    0.498094    0.000000    0.000000   -0.000000
   16.860707    0.499473    0.499473    0.499473    0.000000    0.000000   -0.000000
   16.880755    0.500845    0.500845    0.500845    0.000000    0.000000   -0.000000
   16.900804    0.502210    0.502210    0.502210    0.000000    0.000000   -0.000000
   16.920852    0.503568    0.503568    0.503568    0.000000    0.000000   -0.000000
   16.940901    0.504920    0.504920    0.504920    0.000000    0.000000   -0.000000
   16.960949    0.506264    0.506264    0.506264    0.000000    0.000000   -0.000000
   16.980997    0.507601    0.507601    0.507601    0.000000    0.000000   -0.000000
   17.001046    0.508932    0.508932    0.508932    0.000000    0.000000   -0.000000
   17.021094    0.510257    0.510257    0.510257    0.000000    0.000000   -0.000000
   17.041143    0.511574    0.511574    0.511574    0.000000    0.000000   -0.000000
   17.061191    0.512886    0.512886    0.512886    0.000000    0.000000   -0.000000
   17.081239    0.514191    0.514191    0.514191    0.000000    0.000000   -0.000000
   17.101288    0.515489    0.515489    0.515489    0.000000    0.000000   -0.000000
   17.121336    0.516782    0.516782    0.516782    0.000000    0.000000   -0.000000
   17.141385    0.518068    0.518068    0.518068    0.000000    0.000000   -0.000000
   17.161433    0.519348    0.519348    0.519348    0.000000    0.000000   -0.000000
   17.181481    0.520622    0.520622    0.520622    0.000000    0.000000   -0.000000
   17.201530    0.521890    0.521890    0.521890    0.000000    0.000000   -0.000000
   17.221578    0.523152    0.523152    0.523152    0.000000    0.000000   -0.000000
   17.241627    0.524409    0.524409    0.524409    0.000000    0.000000   -0.000000
   17.261675    0.525659    0.525659    0.525659    0.000000    0.000000   -0.000000
   17.281723    0.526904    0.526904    0.526904    0.000000    0.000000   -0.000000
   17.301772    0.528143    0.528143    0.528143    0.000000    0.000000   -0.000000
   17.321820    0.529376    0.529376    0.529376    0.000000    0.000000   -0.000000
   17.341869    0.530604    0.530604    0.530604    0.000000    0.000000   -0.000000
   17.361917    0.531826    0.531826    0.531826    0.000000    0.000000   -0.000000
   17.381965    0.533043    0.533043    0.533043    0.000000    0.000000   -0.000000
   17.402014    0.534254    0.534254    0.534254    0.000000    0.000000   -0.000000
   17.422062    0.535460    0.535460    0.535460    0.000000    0.000000   -0.000000
   17.442111    0.536660    0.536660    0.536660    0.000000    0.000000   -0.000000
   17.462159    0.537855    0.537855    0.537855    0.000000    0.000000   -0.000000
   17.482208    0.539045    0.539045    0.539045    0.000000    0.000000   -0.000000
   17.502256    0.540230    0.540230    0.540230    0.000000    0.000000   -0.000000
   17.522304    0.541409    0.541409    0.541409    0.000000    0.000000   -0.000000
   17.542353    0.542583    0.542583    0.542583    0.000000    0.000000   -0.000000
   17.562401    0.543753    0.543753    0.543753    0.000000    0.000000   -0.000000
   17.582450    0.544917    0.544917    0.544917    0.000000    0.000000   -0.000000
   17.602498    0.546076    0.546076    0.546076    0.000000    0.000000   -0.000000
   17.622546    0.547230    0.547230    0.547230    0.000000    0.000000   -0.000000
   17.642595    0.548379    0.548379    0.548379    0.000000    0.000000   -0.000000
   17.662643    0.549523    0.549523    0.549523    0.000000    0.000000   -0.000000
   17.682692    0.550662    0.550662    0.550662    0.000000    0.000000   -0.000000
   17.702740    0.551797    0.551797    0.551797    0.000000    0.000000   -0.000000
   17.722788    0.552926    0.552926    0.552926    0.000000    0.000000   -0.000000
   17.742837    0.554051    0.554051    0.554051    0.000000    0.000000   -0.000000
   17.762885    0.555171    0.555171    0.555171    0.000000    0.000000   -0.000000
   17.782934    0.556286    0.556286    0.556286    0.000000    0.000000   -0.000000
   17.802982    0.557397    0.557397    0.557397    0.000000    0.000000   -0.000000
   17.823030    0.558503    0.558503    0.558503    0.000000    0.000000   -0.000000
   17.843079    0.559605    0.559605    0.559605    0.000000    0.000000   -0.000000
   17.863127    0.560702    0.560702    0.560702    0.000000    0.000000   -0.000000
   17.883176    0.561794    0.561794    0.561794    0.000000    0.000000   -0.000000
   17.903224    0.562882    0.562882    0.562882    0.000000    0.000000   -0.000000
   17.923272    0.563965    0.563965    0.563965    0.000000    0.000000   -0.000000
   17.943321    0.565044    0.565044    0.565044    0.000000    0.000000   -0.000000
   17.963369    0.566119    0.566119    0.566119    0.000000    0.000000   -0.000000
   17.983418    0.567189    0.567189    0.567189    0.000000    0.000000   -0.000000
   18.003466    0.568255    0.568255    0.568255    0.000000    0.000000   -0.000000
   18.023514    0.569316    0.569316    0.569316    0.000000    0.000000   -0.000000
   18.043563    0.570373    0.570373    0.570373    0.000000    0.000000   -0.000000
   18.063611    0.571426    0.571426    0.571426    0.000000    0.000000   -0.000000
   18.083660    0.572475    0.572475    0.572475    0.000000    0.000000   -0.000000
   18.103708    0.573519    0.573519    0.573519    0.000000    0.000000   -0.000000
   18.123756    0.574559    0.574559    0.574559    0.000000    0.000000   -0.000000
   18.143805    0.575595    0.575595    0.575595    0.000000    0.000000   -0.000000
   18.163853    0.576627    0.576627    0.576627    0.000000    0.000000   -0.000000
   18.183902    0.577655    0.577655    0.577655    0.000000    0.000000   -0.000000
   18.203950    0.578679    0.578679    0.578679    0.000000    0.000000   -0.000000
   18.223998    0.579699    0.579699    0.579699    0.000000    0.000000   -0.000000
   18.244047    0.580714    0.580714    0.580714    0.000000    0.000000   -0.000000
   18.264095    0.581726    0.581726    0.581726    0.000000    0.000000   -0.000000
   18.284144    0.582734    0.582734    0.582734    0.000000    0.000000   -0.000000
   18.304192    0.583737    0.583737    0.583737    0.000000    0.000000   -0.000000
   18.324240    0.584737    0.584737    0.584737    0.000000    0.000000   -0.000000
   18.344289    0.585733    0.585733    0.585733    0.000000    0.000000   -0.000000
   18.364337    0.586725    0.586725    0.586725    0.000000    0.000000   -0.000000
   18.384386    0.587713    0.587713    0.587713    0.000000    0.000000   -0.000000
   18.404434    0.588698    0.588698    0.588698    0.000000    0.000000   -0.000000
   18.424482    0.589678    0.589678    0.589678    0.000000    0.000000   -0.000000
   18.444531    0.590655    0.590655    0.590655    0.000000    0.000000   -0.000000
   18.464579    0.591628    0.591628    0.591628    0.000000    0.000000   -0.000000
   18.484628    0.592597    0.592597    0.592597    0.000000    0.000000   -0.000000
   18.504676    0.593563    0.593563    0.593563    0.000000    0.000000   -0.000000
   18.524724    0.594525    0.594525    0.594525    0.000000    0.000000   -0.000000
   18.544773    0.595483    0.595483    0.595483    0.000000    0.000000   -0.000000
   18.564821    0.596437    0.596437    0.596437    0.000000    0.000000   -0.000000
   18.584870    0.597388    0.597388    0.597388    0.000000    0.000000   -0.000000
   18.604918    0.598336    0.598336    0.598336    0.000000    0.000000   -0.000000
   18.624966    0.599279    0.599279    0.599279    0.000000    0.000000   -0.000000
   18.645015    0.600219    0.600219    0.600219    0.000000    0.000000   -0.000000
   18.665063    0.601156    0.601156    0.601156    0.000000    0.000000   -0.000000
   18.685112    0.602089    0.602089    0.602089    0.000000    0.000000   -0.000000
   18.705160    0.603019    0.603019    0.603019    0.000000    0.000000   -0.000000
   18.725208    0.603945    0.603945    0.603945    0.000000    0.000000   -0.000000
   18.745257    0.604867    0.604867    0.604867    0.000000    0.000000   -0.000000
   18.765305    0.605786    0.605786    0.605786    0.000000    0.000000   -0.000000
   18.785354    0.606702    0.606702    0.606702    0.000000    0.000000   -0.000000
   18.805402    0.607615    0.607615    0.607615    0.000000    0.000000   -0.000000
   18.825451    0.608523    0.608523    0.608523    0.000000    0.000000   -0.000000
   18.845499    0.609429    0.609429    0.609429    0.000000    0.000000   -0.000000
   18.865547    0.610331    0.610331    0.610331    0.000000    0.000000   -0.000000
   18.885596    0.611230    0.611230    0.611230    0.000000    0.000000   -0.000000
   18.905644    0.612126    0.612126    0.612126    0.000000    0.000000   -0.000000
   18.925693    0.613018    0.613018    0.613018    0.000000    0.000000   -0.000000
   18.945741    0.613907    0.613907    0.613907    0.000000    0.000000   -0.000000
   18.965789    0.614793    0.614793    0.614793    0.000000    0.000000   -0.000000
   18.985838    0.615675    0.615675    0.615675    0.000000    0.000000   -0.000000
   19.005886    0.616555    0.616555    0.616555    0.000000    0.000000   -0.000000
   19.025935    0.617431    0.617431    0.617431    0.000000    0.000000   -0.000000
   19.045983    0.618304    0.618304    0.618304    0.000000    0.000000   -0.000000
   19.066031    0.619173    0.619173    0.619173    0.000000    0.000000   -0.000000
   19.086080    0.620040    0.620040    0.620040    0.000000    0.000000   -0.000000
   19.106128    0.620903    0.620903    0.620903    0.000000    0.000000   -0.000000
   19.126177    0.621764    0.621764    0.621764    0.000000    0.000000   -0.000000
   19.146225    0.622621    0.622621    0.622621    0.000000    0.000000   -0.000000
   19.166273    0.623475    0.623475    0.623475    0.000000    0.000000   -0.000000
   19.186322    0.624326    0.624326    0.624326    0.000000    0.000000   -0.000000
   19.206370    0.625174    0.625174    0.625174    0.000000    0.000000   -0.000000
   19.226419    0.626019    0.626019    0.626019    0.000000    0.000000   -0.000000
   19.246467    0.626861    0.626861    0.626861    0.000000    0.000000   -0.000000
   19.266515    0.627700    0.627700    0.627700    0.000000    0.000000   -0.000000
   19.286564    0.628536    0.628536    0.628536    0.000000    0.000000   -0.000000
   19.306612    0.629369    0.629369    0.629369    0.000000    0.000000   -0.000000
   19.326661    0.630199    0.630199    0.630199    0.000000    0.000000   -0.000000
   19.346709    0.631026    0.631026    0.631026    0.000000    0.000000   -0.000000
   19.366757    0.631851    0.631851    0.631851    0.000000    0.000000   -0.000000
   19.386806    0.632672    0.632672    0.632672    0.000000    0.000000   -0.000000
   19.406854    0.633490    0.633490    0.633490    0.000000    0.000000   -0.000000
   19.426903    0.634306    0.634306    0.634306    0.000000    0.000000   -0.000000
   19.446951    0.635118    0.635118    0.635118    0.000000    0.000000   -0.000000
   19.466999    0.635928    0.635928    0.635928    0.000000    0.000000   -0.000000
   19.487048    0.636735    0.636735    0.636735    0.000000    0.000000   -0.000000
   19.507096    0.637539    0.637539    0.637539    0.000000    0.000000   -0.000000
   19.527145    0.638341    0.638341    0.638341    0.000000    0.000000   -0.000000
   19.547193    0.639139    0.639139    0.639139    0.000000    0.000000   -0.000000
   19.567241    0.639935    0.639935    0.639935    0.000000    0.000000   -0.000000
   19.587290    0.640728    0.640728    0.640728    0.000000    0.000000   -0.000000
   19.607338    0.641518    0.641518    0.641518    0.000000    0.000000   -0.000000
   19.627387    0.642306    0.642306    0.642306    0.000000    0.000000   -0.000000
   19.647435    0.643091    0.643091    0.643091    0.000000    0.000000   -0.000000
   19.667483    0.643873    0.643873    0.643873    0.000000    0.000000   -0.000000
   19.687532    0.644652    0.644652    0.644652    0.000000    0.000000   -0.000000
   19.707580    0.645429    0.645429    0.645429    0.000000    0.000000   -0.000000
   19.727629    0.646203    0.646203    0.646203    0.000000    0.000000   -0.000000
   19.747677    0.646974    0.646974    0.646974    0.000000    0.000000   -0.000000
   19.767725    0.647743    0.647743    0.647743    0.000000    0.000000   -0.000000
   19.787774    0.648509    0.648509    0.648509    0.000000    0.000000   -0.000000
   19.807822    0.649272    0.649272    0.649272    0.000000    0.000000   -0.000000
   19.827871    0.650033    0.650033    0.650033    0.000000    0.000000   -0.000000
   19.847919    0.650792    0.650792    0.650792    0.000000    0.000000   -0.000000
   19.867967    0.651547    0.651547    0.651547    0.000000    0.000000   -0.000000
   19.888016    0.652301    0.652301    0.652301    0.000000    0.000000   -0.000000
   19.908064    0.653051    0.653051    0.653051    0.000000    0.000000   -0.000000
   19.928113    0.653799    0.653799    0.653799    0.000000    0.000000   -0.000000
   19.948161    0.654545    0.654545    0.654545    0.000000    0.000000   -0.000000
   19.968209    0.655288    0.655288    0.655288    0.000000    0.000000   -0.000000
   19.988258    0.656028    0.656028    0.656028    0.000000    0.000000   -0.000000
   20.008306    0.656766    0.656766    0.656766    0.000000    0.000000   -0.000000
   20.028355    0.657502    0.657502    0.657502    0.000000    0.000000   -0.000000
 
 The outermost node in the dielectric function lies at epsilon=  12.1


--------------------------------------------------------------------------------------------------------


    OPTICS:  cpu time     24.9123: real time     25.1795
    4ORBIT:  cpu time      0.0000: real time      0.0000
 BZINTS: Fermi energy:    2.319480;  256.000000 electrons
         Band energy:-0.721288E+03;  BLOECHL correction:    0.000000

 total amount of memory used by VASP MPI-rank0   237129. kBytes
=======================================================================

   base      :      30000. kBytes
   nonl-proj :      86465. kBytes
   fftplans  :       6720. kBytes
   grid      :      17034. kBytes
   one-center:        519. kBytes
   wavefun   :      96391. kBytes
 
  
  
 General timing and accounting informations for this job:
 ========================================================
  
                  Total CPU time used (sec):     8526.092
                            User time (sec):     8131.270
                          System time (sec):      394.822
                         Elapsed time (sec):     8606.029
  
                   Maximum memory used (kb):     1336704.
                   Average memory used (kb):          N/A
  
                          Minor page faults:       140344
                          Major page faults:           16
                 Voluntary context switches:         4735
