<?xml version="1.0" encoding="ISO-8859-1"?>
<modeling>
 <generator>
  <i name="program" type="string">vasp </i>
  <i name="version" type="string">6.4.3  </i>
  <i name="subversion" type="string">19Mar24 (build Aug 29 2024 15:27:20) complex                          parallel </i>
  <i name="platform" type="string">LinuxIFC </i>
  <i name="date" type="string">2025 03 24 </i>
  <i name="time" type="string">12:03:53 </i>
 </generator>
 <incar>
  <i type="string" name="SYSTEM">GaAs</i>
  <i type="string" name="PREC">Normal</i>
  <i type="int" name="IBRION">     2</i>
  <i type="int" name="NFREE">     2</i>
  <i type="int" name="NSW">   100</i>
  <i type="int" name="ISIF">     2</i>
  <i name="ENCUT">    400.00000000</i>
  <i name="POTIM">      0.10000000</i>
  <i type="int" name="ISMEAR">    -5</i>
  <i name="SIGMA">      0.10000000</i>
  <i type="logical" name="LOPTICS"> T  </i>
  <i type="logical" name="LEPSILON"> T  </i>
 </incar>
 <primitive_cell>
  <structure name="primitive_cell" >
   <crystal>
    <varray name="basis" >
     <v>       2.88169996      -2.88169996       0.00000000 </v>
     <v>       2.88169996       0.00000000       2.88169996 </v>
     <v>       0.00000000      -2.88169996       2.88169996 </v>
    </varray>
    <i name="volume">     47.86039476 </i>
    <varray name="rec_basis" >
     <v>       0.17350870      -0.17350870      -0.17350870 </v>
     <v>       0.17350870       0.17350870       0.17350870 </v>
     <v>      -0.17350870      -0.17350870       0.17350870 </v>
    </varray>
   </crystal>
   <varray name="positions" >
    <v>       0.00000000       0.00000000       0.00000000 </v>
    <v>       0.75000000       0.75000000       0.75000000 </v>
   </varray>
  </structure>
  <varray name="primitive_index" >
   <v type="int" >        1 </v>
   <v type="int" >       33 </v>
  </varray>
 </primitive_cell>
 <kpoints>
  <generation param="Gamma">
   <v type="int" name="divisions">       5        5        5 </v>
   <v name="usershift">      0.00000000       0.00000000       0.00000000 </v>
   <v name="genvec1">      0.20000000       0.00000000       0.00000000 </v>
   <v name="genvec2">      0.00000000       0.20000000       0.00000000 </v>
   <v name="genvec3">      0.00000000       0.00000000       0.20000000 </v>
   <v name="shift">      0.00000000       0.00000000       0.00000000 </v>
  </generation>
  <varray name="kpointlist" >
   <v>       0.00000000       0.00000000       0.00000000 </v>
   <v>       0.20000000       0.00000000       0.00000000 </v>
   <v>       0.40000000       0.00000000       0.00000000 </v>
   <v>       0.20000000       0.20000000       0.00000000 </v>
   <v>       0.40000000       0.20000000       0.00000000 </v>
   <v>       0.40000000       0.40000000       0.00000000 </v>
   <v>       0.20000000       0.20000000       0.20000000 </v>
   <v>       0.40000000       0.20000000       0.20000000 </v>
   <v>       0.40000000       0.40000000       0.20000000 </v>
   <v>       0.40000000       0.40000000       0.40000000 </v>
  </varray>
  <varray name="weights" >
   <v>       0.00800000 </v>
   <v>       0.04800000 </v>
   <v>       0.04800000 </v>
   <v>       0.09600000 </v>
   <v>       0.19200000 </v>
   <v>       0.09600000 </v>
   <v>       0.06400000 </v>
   <v>       0.19200000 </v>
   <v>       0.19200000 </v>
   <v>       0.06400000 </v>
  </varray>
  <varray name="tetrahedronlist"  type="int" >
   <v type="int" >       12        7        8        8        9 </v>
   <v type="int" >       18        8        8        9        9 </v>
   <v type="int" >       24        8        9        9       10 </v>
   <v type="int" >       12        8        9        9        9 </v>
   <v type="int" >       24        9        9        9       10 </v>
   <v type="int" >       18        9        9       10       10 </v>
   <v type="int" >       24        4        5        7        8 </v>
   <v type="int" >       12        5        7        8        8 </v>
   <v type="int" >       24        5        8        8        9 </v>
   <v type="int" >       24        4        5        5        8 </v>
   <v type="int" >       24        5        5        6        8 </v>
   <v type="int" >       12        5        6        8        9 </v>
   <v type="int" >       12        9       10       10       10 </v>
   <v type="int" >       12        8        8        9       10 </v>
   <v type="int" >       12        8        9       10       10 </v>
   <v type="int" >       12        5        5        8        9 </v>
   <v type="int" >       12        5        8        9        9 </v>
   <v type="int" >       12        5        5        6        9 </v>
   <v type="int" >       12        5        6        6        9 </v>
   <v type="int" >       12        5        6        9        9 </v>
   <v type="int" >       12        5        6        8        8 </v>
   <v type="int" >       12        5        6        6        8 </v>
   <v type="int" >       12        6        8        8        9 </v>
   <v type="int" >       12        6        8        9        9 </v>
   <v type="int" >       12        6        6        8        9 </v>
   <v type="int" >       12        7        8        9       10 </v>
   <v type="int" >       12        4        5        8        9 </v>
   <v type="int" >       12        4        7        8        9 </v>
   <v type="int" >       12        4        5        6        9 </v>
   <v type="int" >       12        5        6        7        8 </v>
   <v type="int" >       12        4        5        6        7 </v>
   <v type="int" >       12        6        7        8        9 </v>
   <v type="int" >       12        2        4        7        8 </v>
   <v type="int" >       12        2        4        5        8 </v>
   <v type="int" >       12        2        3        5        8 </v>
   <v type="int" >       12        4        4        5        7 </v>
   <v type="int" >       12        2        4        4        5 </v>
   <v type="int" >       12        2        3        4        5 </v>
   <v type="int" >       12        3        4        5        5 </v>
   <v type="int" >       12        2        3        4        7 </v>
   <v type="int" >       12        3        4        5        7 </v>
   <v type="int" >       12        3        5        7        8 </v>
   <v type="int" >        6       10       10       10       10 </v>
   <v type="int" >       12        6        6        9        9 </v>
   <v type="int" >       12        6        9        9        9 </v>
   <v type="int" >       12        6        6        6        9 </v>
   <v type="int" >       12        3        5        8        8 </v>
   <v type="int" >       12        3        5        5        8 </v>
   <v type="int" >       12        3        3        5        8 </v>
   <v type="int" >       12        5        5        5        8 </v>
   <v type="int" >       12        3        5        5        5 </v>
   <v type="int" >        6        3        3        5        5 </v>
   <v type="int" >        6        5        5        8        8 </v>
   <v type="int" >       12        2        4        4        7 </v>
   <v type="int" >       12        2        2        4        4 </v>
   <v type="int" >       12        1        2        2        4 </v>
   <v type="int" >       12        1        2        4        7 </v>
  </varray>
  <i name="volumeweight">      0.00133333 </i>
 </kpoints>
 <parameters>
  <separator name="general" >
   <i type="string" name="SYSTEM">GaAs</i>
   <i type="logical" name="LCOMPAT"> F  </i>
  </separator>
  <separator name="electronic" >
   <i type="string" name="PREC">normal</i>
   <i name="ENMAX">    400.00000000</i>
   <i name="ENAUG">    462.75800000</i>
   <i name="EDIFF">      0.00000100</i>
   <i type="int" name="IALGO">    38</i>
   <i type="int" name="IWAVPR">    11</i>
   <i type="int" name="NBANDS">   168</i>
   <i type="int" name="NBANDSLOW">    -1</i>
   <i type="int" name="NBANDSHIGH">    -1</i>
   <i name="NELECT">    256.00000000</i>
   <i type="int" name="TURBO">     0</i>
   <i type="int" name="IRESTART">     0</i>
   <i type="int" name="NREBOOT">     0</i>
   <i type="int" name="NMIN">     0</i>
   <i name="EREF">      0.00000000</i>
   <separator name="electronic smearing" >
    <i type="int" name="ISMEAR">    -5</i>
    <i name="SIGMA">      0.10000000</i>
    <i name="KSPACING">      0.50000000</i>
    <i type="logical" name="KGAMMA"> T  </i>
    <i type="logical" name="KBLOWUP"> T  </i>
   </separator>
   <separator name="electronic projectors" >
    <i type="logical" name="LREAL"> F  </i>
    <v name="ROPT">      0.00000000      0.00000000</v>
    <i type="int" name="LMAXPAW">  -100</i>
    <i type="int" name="LMAXMIX">     2</i>
    <i type="logical" name="NLSPLINE"> F  </i>
   </separator>
   <separator name="electronic startup" >
    <i type="int" name="ISTART">     0</i>
    <i type="int" name="ICHARG">     2</i>
    <i type="int" name="INIWAV">     1</i>
   </separator>
   <separator name="electronic spin" >
    <i type="int" name="ISPIN">     1</i>
    <i type="logical" name="LNONCOLLINEAR"> F  </i>
    <v name="MAGMOM">      1.00000000      1.00000000      1.00000000      1.00000000      1.00000000      1.00000000      1.00000000      1.00000000      1.00000000      1.00000000      1.00000000      1.00000000      1.00000000      1.00000000      1.00000000      1.00000000      1.00000000      1.00000000      1.00000000      1.00000000
      1.00000000      1.00000000      1.00000000      1.00000000      1.00000000      1.00000000      1.00000000      1.00000000      1.00000000      1.00000000      1.00000000      1.00000000      1.00000000      1.00000000      1.00000000      1.00000000      1.00000000      1.00000000      1.00000000      1.00000000
      1.00000000      1.00000000      1.00000000      1.00000000      1.00000000      1.00000000      1.00000000      1.00000000      1.00000000      1.00000000      1.00000000      1.00000000      1.00000000      1.00000000      1.00000000      1.00000000      1.00000000      1.00000000      1.00000000      1.00000000
      1.00000000      1.00000000      1.00000000      1.00000000</v>
    <i name="NUPDOWN">     -1.00000000</i>
    <i type="logical" name="LSORBIT"> F  </i>
    <v name="SAXIS">      0.00000000      0.00000000      1.00000000</v>
    <i type="logical" name="LSPIRAL"> F  </i>
    <v name="QSPIRAL">      0.00000000      0.00000000      0.00000000</v>
    <i type="logical" name="LZEROZ"> F  </i>
   </separator>
   <separator name="electronic exchange-correlation" >
    <i type="logical" name="LASPH"> F  </i>
   </separator>
   <separator name="electronic convergence" >
    <i type="int" name="NELM">    60</i>
    <i type="int" name="NELMDL">    -5</i>
    <i type="int" name="NELMIN">     2</i>
    <i name="ENINI">    400.00000000</i>
    <separator name="electronic convergence detail" >
     <i type="logical" name="LDIAG"> T  </i>
     <i type="logical" name="LSUBROT"> F  </i>
     <i name="WEIMIN">      0.00100000</i>
     <i name="EBREAK">      0.00000000</i>
     <i name="DEPER">      0.30000000</i>
     <i type="int" name="NRMM">     4</i>
     <i name="TIME">      0.40000000</i>
    </separator>
   </separator>
   <separator name="electronic mixer" >
    <i name="AMIX">      0.40000000</i>
    <i name="BMIX">      1.00000000</i>
    <i name="AMIN">      0.10000000</i>
    <i name="AMIX_MAG">      1.60000000</i>
    <i name="BMIX_MAG">      1.00000000</i>
    <separator name="electronic mixer details" >
     <i type="int" name="IMIX">     4</i>
     <i type="logical" name="MIXFIRST"> F  </i>
     <i type="int" name="MAXMIX">   -45</i>
     <i name="WC">    100.00000000</i>
     <i type="int" name="INIMIX">     1</i>
     <i type="int" name="MIXPRE">     1</i>
     <i type="int" name="MREMOVE">     5</i>
    </separator>
   </separator>
   <separator name="electronic dipolcorrection" >
    <i type="logical" name="LDIPOL"> F  </i>
    <i type="logical" name="LMONO"> F  </i>
    <i type="int" name="IDIPOL">     0</i>
    <i name="EPSILON">      1.00000000</i>
    <v name="DIPOL">   -100.00000000   -100.00000000   -100.00000000</v>
    <i name="EFIELD">      0.00000000</i>
    <i type="logical" name="LVACPOTAV"> F  </i>
   </separator>
  </separator>
  <separator name="grids" >
   <i type="int" name="NGX">    56</i>
   <i type="int" name="NGY">    56</i>
   <i type="int" name="NGZ">    56</i>
   <i type="int" name="NGXF">   112</i>
   <i type="int" name="NGYF">   112</i>
   <i type="int" name="NGZF">   112</i>
   <i type="logical" name="ADDGRID"> F  </i>
  </separator>
  <separator name="ionic" >
   <i type="int" name="NSW">   100</i>
   <i type="int" name="IBRION">     2</i>
   <i type="int" name="MDALGO">     0</i>
   <i type="int" name="ISIF">     2</i>
   <i name="PSTRESS">      0.00000000</i>
   <i name="EDIFFG">      0.00100000</i>
   <i type="int" name="NFREE">     2</i>
   <i name="POTIM">      0.10000000</i>
   <i name="SMASS">     -3.00000000</i>
   <i name="SCALEE">      1.00000000</i>
  </separator>
  <separator name="ionic md" >
   <i name="TEBEG">      0.00010000</i>
   <i name="TEEND">      0.00010000</i>
   <i type="int" name="NBLOCK">     1</i>
   <i type="int" name="KBLOCK">   100</i>
   <i type="int" name="NPACO">   256</i>
   <i name="APACO">     10.00000000</i>
  </separator>
  <separator name="symmetry" >
   <i type="int" name="ISYM">     2</i>
   <i name="SYMPREC">      0.00001000</i>
  </separator>
  <separator name="dos" >
   <i type="int" name="LORBIT">     0</i>
   <v name="RWIGS">     -1.00000000     -1.00000000</v>
   <i type="int" name="NEDOS">   301</i>
   <i name="EMIN">     10.00000000</i>
   <i name="EMAX">    -10.00000000</i>
   <i name="EFERMI">      0.00000000</i>
  </separator>
  <separator name="writing" >
   <i type="int" name="NWRITE">     2</i>
   <i type="logical" name="LWAVE"> T  </i>
   <i type="logical" name="LDOWNSAMPLE"> F  </i>
   <i type="logical" name="LCHARG"> T  </i>
   <i type="logical" name="LPARD"> F  </i>
   <i type="logical" name="LVTOT"> F  </i>
   <i type="logical" name="LVHAR"> F  </i>
   <i type="logical" name="LELF"> F  </i>
   <i type="logical" name="LOPTICS"> T  </i>
   <v name="STM">      0.00000000      0.00000000      0.00000000      0.00000000      0.00000000      0.00000000      0.00000000</v>
  </separator>
  <separator name="performance" >
   <i type="int" name="NPAR">     8</i>
   <i type="int" name="NSIM">     4</i>
   <i type="int" name="NBLK">    -1</i>
   <i type="logical" name="LPLANE"> T  </i>
   <i type="logical" name="LSCALAPACK"> T  </i>
   <i type="logical" name="LSCAAWARE"> F  </i>
   <i type="logical" name="LSCALU"> F  </i>
   <i type="logical" name="LASYNC"> F  </i>
   <i type="logical" name="LORBITALREAL"> F  </i>
  </separator>
  <separator name="miscellaneous" >
   <i type="int" name="IDIOT">     3</i>
   <i type="int" name="PHON_NSTRUCT">    -1</i>
   <i type="logical" name="LMUSIC"> F  </i>
   <v name="POMASS">     74.92200000     69.72300000</v>
   <v name="DARWINR">      0.00000000      0.00000000</v>
   <v name="DARWINV">      1.00000000      1.00000000</v>
   <i type="logical" name="LCORR"> T  </i>
  </separator>
  <i type="logical" name="GGA_COMPAT"> T  </i>
  <i type="logical" name="LBERRY"> F  </i>
  <i type="int" name="ICORELEVEL">     0</i>
  <i type="logical" name="LDAU"> F  </i>
  <i type="int" name="I_CONSTRAINED_M">     0</i>
  <separator name="electronic exchange-correlation" >
   <i type="string" name="GGA    ">PE</i>
   <i type="string" name="XC_C">1</i>
   <i type="int" name="VOSKOWN">     0</i>
   <i type="logical" name="LHFCALC"> F  </i>
   <i type="string" name="PRECFOCK"></i>
   <i type="logical" name="LSYMGRAD"> F  </i>
   <i type="logical" name="LHFONE"> F  </i>
   <i type="logical" name="LRHFCALC"> F  </i>
   <i type="logical" name="LTHOMAS"> F  </i>
   <i type="logical" name="LMODELHF"> F  </i>
   <i type="logical" name="LFOCKACE"> F  </i>
   <i name="ENCUT4O">     -1.00000000</i>
   <i type="int" name="EXXOEP">     0</i>
   <i type="int" name="FOURORBIT">     0</i>
   <i name="AEXX">      0.00000000</i>
   <i name="HFALPHA">      0.00000000</i>
   <i name="MCALPHA">      0.00000000</i>
   <i name="ALDAX">      1.00000000</i>
   <i name="AGGAX">      1.00000000</i>
   <i name="AMGGAX">      1.00000000</i>
   <i name="ALDAC">      1.00000000</i>
   <i name="AGGAC">      1.00000000</i>
   <i name="AMGGAC">      1.00000000</i>
   <i type="int" name="NKREDX">     1</i>
   <i type="int" name="NKREDY">     1</i>
   <i type="int" name="NKREDZ">     1</i>
   <i type="logical" name="SHIFTRED"> F  </i>
   <i type="logical" name="ODDONLY"> F  </i>
   <i type="logical" name="EVENONLY"> F  </i>
   <i type="int" name="LMAXFOCK">     0</i>
   <i type="int" name="NMAXFOCKAE">     0</i>
   <i type="logical" name="LFOCKAEDFT"> F  </i>
   <i name="HFSCREEN">      0.00000000</i>
   <i name="HFSCREENC">      0.00000000</i>
   <i type="int" name="NBANDSGWLOW">     0</i>
  </separator>
  <separator name="vdW DFT" >
   <i type="logical" name="LUSE_VDW"> F  </i>
   <i type="int" name="IVDW_NL">    -1</i>
   <i type="logical" name="LSPIN_VDW"> F  </i>
   <i name="ZAB_VDW">     -0.84910000</i>
   <i name="GAMMA_VDW">      1.39626340</i>
   <i name="ALPHA_VDW">      0.00000000</i>
   <i name="PARAM1">      0.12340000</i>
   <i name="PARAM2">      1.00000000</i>
   <i name="BPARAM">      6.30000000</i>
   <i name="CPARAM">      0.00930000</i>
  </separator>
  <separator name="model GW" >
   <i type="int" name="MODEL_GW">     0</i>
   <i name="MODEL_EPS0">     14.35811843</i>
   <i name="MODEL_ALPHA">      1.00000000</i>
  </separator>
  <separator name="linear response parameters" >
   <i type="logical" name="LEPSILON"> T  </i>
   <i type="logical" name="LRPA"> F  </i>
   <i type="logical" name="LNABLA"> F  </i>
   <i type="logical" name="LVEL"> F  </i>
   <i name="CSHIFT">      0.10000000</i>
   <i name="OMEGAMAX">     -1.00000000</i>
   <i name="DEG_THRESHOLD">      0.00200000</i>
   <i name="RTIME">     -0.10000000</i>
   <i name="WPLASMAI">      0.00000000</i>
   <v name="DFIELD">      0.00000000      0.00000000      0.00000000</v>
   <v name="WPLASMA">      0.00000000      0.00000000      0.00000000      0.00000000      0.00000000      0.00000000      0.00000000      0.00000000      0.00000000</v>
  </separator>
  <separator name="orbital magnetization" >
   <i type="logical" name="NUCIND"> F  </i>
   <v name="MAGPOS">      0.00000000      0.00000000      0.00000000</v>
   <i type="logical" name="LNICSALL"> T  </i>
   <i type="logical" name="ORBITALMAG"> F  </i>
   <i type="logical" name="LMAGBLOCH"> F  </i>
   <i type="logical" name="LCHIMAG"> F  </i>
   <i type="logical" name="LGAUGE"> T  </i>
   <i type="int" name="MAGATOM">     0</i>
   <v name="MAGDIPOL">      0.00000000      0.00000000      0.00000000</v>
   <v name="AVECCONST">      0.00000000      0.00000000      0.00000000</v>
  </separator>
  <separator name="response functions" >
   <i type="logical" name="LALL_IN_ONE"> F  </i>
   <i type="int" name="IALL_IN_ONE">    -1</i>
   <i type="int" name="NBANDS_WAVE">    -1</i>
   <i type="logical" name="LFINITE_TEMPERATURE"> F  </i>
   <i type="logical" name="LADDER"> F  </i>
   <i type="logical" name="LRPAFORCE"> F  </i>
   <i type="logical" name="LFXC"> F  </i>
   <i type="logical" name="LHARTREE"> T  </i>
   <i type="int" name="IBSE">     0</i>
   <v type="int" name="KPOINT">    -1     0     0     0</v>
   <i type="logical" name="LTCTC"> F  </i>
   <i type="logical" name="LTCTE"> F  </i>
   <i type="logical" name="LTETE"> F  </i>
   <i type="logical" name="LTRIPLET"> F  </i>
   <i type="logical" name="LFXCEPS"> F  </i>
   <i type="logical" name="LFXHEG"> F  </i>
   <i type="int" name="NATURALO">     2</i>
   <i type="logical" name="LHOLEGF"> F  </i>
   <i type="logical" name="L2ORDER"> F  </i>
   <i type="logical" name="LDMP1"> F  </i>
   <i type="logical" name="LMP2LT"> F  </i>
   <i type="logical" name="LSMP2LT"> F  </i>
   <i type="logical" name="LGWLF"> F  </i>
   <i name="ENCUTGW">     -1.60000002</i>
   <i name="ENCUTGWSOFT">     -1.60000002</i>
   <i name="ENCUTLF">     -1.00000000</i>
   <i type="logical" name="ESF_SPLINES"> F  </i>
   <i name="ESF_CONV">      0.01000000</i>
   <i type="int" name="ESF_NINTER">    15</i>
   <i type="int" name="LMAXMP2">    -1</i>
   <i name="SCISSOR">      0.00000000</i>
   <i type="int" name="NOMEGA">     0</i>
   <i type="int" name="NOMEGAR">     0</i>
   <i type="int" name="NBANDSGW">    -1</i>
   <i type="int" name="NBANDSO">    -1</i>
   <i type="int" name="NBANDSV">    -1</i>
   <i type="int" name="NELMGW">     1</i>
   <i type="int" name="NELMHF">     1</i>
   <i type="int" name="DIM">     3</i>
   <i type="int" name="IESPILON">     4</i>
   <i type="int" name="ANTIRES">     0</i>
   <i name="OMEGAMAX">    -30.00000000</i>
   <i name="OMEGAMIN">    -30.00000000</i>
   <i name="OMEGATL">   -200.00000000</i>
   <i type="int" name="OMEGAGRID">     0</i>
   <i name="CSHIFT">     -0.10000000</i>
   <i type="logical" name="LSELFENERGY"> F  </i>
   <i type="logical" name="LSPECTRAL"> F  </i>
   <i type="logical" name="LSPECTRALGW"> F  </i>
   <i type="logical" name="LSINGLES"> F  </i>
   <i type="logical" name="LFERMIGW"> F  </i>
   <i type="logical" name="ODDONLYGW"> F  </i>
   <i type="logical" name="EVENONLYGW"> F  </i>
   <i type="int" name="NKREDLFX">     1</i>
   <i type="int" name="NKREDLFY">     1</i>
   <i type="int" name="NKREDLFZ">     1</i>
   <i type="int" name="MAXMEM">  2800</i>
   <i type="int" name="TELESCOPE">     0</i>
   <i type="int" name="NTAUPAR">    -1</i>
   <i type="int" name="NOMEGAPAR">    -1</i>
   <i name="DAMP_NEWTON">      0.80000001</i>
   <i name="LAMBDA">      1.00000000</i>
  </separator>
  <separator name="External order field" >
   <i name="OFIELD_KAPPA">      0.00000000</i>
   <v name="OFIELD_K">      0.00000000      0.00000000      0.00000000</v>
   <i name="OFIELD_Q6_NEAR">      0.00000000</i>
   <i name="OFIELD_Q6_FAR">      0.00000000</i>
   <i name="OFIELD_A">      0.00000000</i>
  </separator>
  <separator name="optional k-points parameters" >
   <i type="int" name="KPOINTS_OPT_MODE">     1</i>
   <i type="logical" name="LKPOINTS_OPT"> F  </i>
  </separator>
 </parameters>
 <atominfo>
  <atoms>      64 </atoms>
  <types>       2 </types>
  <array name="atoms" >
   <dimension dim="1">ion</dimension>
   <field type="string">element</field>
   <field type="int">atomtype</field>
   <set>
    <rc><c>As</c><c>   1</c></rc>
    <rc><c>As</c><c>   1</c></rc>
    <rc><c>As</c><c>   1</c></rc>
    <rc><c>As</c><c>   1</c></rc>
    <rc><c>As</c><c>   1</c></rc>
    <rc><c>As</c><c>   1</c></rc>
    <rc><c>As</c><c>   1</c></rc>
    <rc><c>As</c><c>   1</c></rc>
    <rc><c>As</c><c>   1</c></rc>
    <rc><c>As</c><c>   1</c></rc>
    <rc><c>As</c><c>   1</c></rc>
    <rc><c>As</c><c>   1</c></rc>
    <rc><c>As</c><c>   1</c></rc>
    <rc><c>As</c><c>   1</c></rc>
    <rc><c>As</c><c>   1</c></rc>
    <rc><c>As</c><c>   1</c></rc>
    <rc><c>As</c><c>   1</c></rc>
    <rc><c>As</c><c>   1</c></rc>
    <rc><c>As</c><c>   1</c></rc>
    <rc><c>As</c><c>   1</c></rc>
    <rc><c>As</c><c>   1</c></rc>
    <rc><c>As</c><c>   1</c></rc>
    <rc><c>As</c><c>   1</c></rc>
    <rc><c>As</c><c>   1</c></rc>
    <rc><c>As</c><c>   1</c></rc>
    <rc><c>As</c><c>   1</c></rc>
    <rc><c>As</c><c>   1</c></rc>
    <rc><c>As</c><c>   1</c></rc>
    <rc><c>As</c><c>   1</c></rc>
    <rc><c>As</c><c>   1</c></rc>
    <rc><c>As</c><c>   1</c></rc>
    <rc><c>As</c><c>   1</c></rc>
    <rc><c>Ga</c><c>   2</c></rc>
    <rc><c>Ga</c><c>   2</c></rc>
    <rc><c>Ga</c><c>   2</c></rc>
    <rc><c>Ga</c><c>   2</c></rc>
    <rc><c>Ga</c><c>   2</c></rc>
    <rc><c>Ga</c><c>   2</c></rc>
    <rc><c>Ga</c><c>   2</c></rc>
    <rc><c>Ga</c><c>   2</c></rc>
    <rc><c>Ga</c><c>   2</c></rc>
    <rc><c>Ga</c><c>   2</c></rc>
    <rc><c>Ga</c><c>   2</c></rc>
    <rc><c>Ga</c><c>   2</c></rc>
    <rc><c>Ga</c><c>   2</c></rc>
    <rc><c>Ga</c><c>   2</c></rc>
    <rc><c>Ga</c><c>   2</c></rc>
    <rc><c>Ga</c><c>   2</c></rc>
    <rc><c>Ga</c><c>   2</c></rc>
    <rc><c>Ga</c><c>   2</c></rc>
    <rc><c>Ga</c><c>   2</c></rc>
    <rc><c>Ga</c><c>   2</c></rc>
    <rc><c>Ga</c><c>   2</c></rc>
    <rc><c>Ga</c><c>   2</c></rc>
    <rc><c>Ga</c><c>   2</c></rc>
    <rc><c>Ga</c><c>   2</c></rc>
    <rc><c>Ga</c><c>   2</c></rc>
    <rc><c>Ga</c><c>   2</c></rc>
    <rc><c>Ga</c><c>   2</c></rc>
    <rc><c>Ga</c><c>   2</c></rc>
    <rc><c>Ga</c><c>   2</c></rc>
    <rc><c>Ga</c><c>   2</c></rc>
    <rc><c>Ga</c><c>   2</c></rc>
    <rc><c>Ga</c><c>   2</c></rc>
   </set>
  </array>
  <array name="atomtypes" >
   <dimension dim="1">type</dimension>
   <field type="int">atomspertype</field>
   <field type="string">element</field>
   <field>mass</field>
   <field>valence</field>
   <field type="string">pseudopotential</field>
   <set>
    <rc><c>  32</c><c>As</c><c>     74.92200000</c><c>      5.00000000</c><c>  PAW_PBE As 22Sep2009                  </c></rc>
    <rc><c>  32</c><c>Ga</c><c>     69.72300000</c><c>      3.00000000</c><c>  PAW_PBE Ga 08Apr2002                  </c></rc>
   </set>
  </array>
 </atominfo>
 <structure name="initialpos" >
  <crystal>
   <varray name="basis" >
    <v>      11.52679983       0.00000000       0.00000000 </v>
    <v>       0.00000000      11.52679983       0.00000000 </v>
    <v>       0.00000000       0.00000000      11.52679983 </v>
   </varray>
   <i name="volume">   1531.53263219 </i>
   <varray name="rec_basis" >
    <v>       0.08675435       0.00000000       0.00000000 </v>
    <v>       0.00000000       0.08675435       0.00000000 </v>
    <v>       0.00000000       0.00000000       0.08675435 </v>
   </varray>
  </crystal>
  <varray name="positions" >
   <v>       0.00000000       0.00000000       0.00000000 </v>
   <v>       0.00000000       0.00000000       0.50000000 </v>
   <v>       0.00000000       0.50000000       0.00000000 </v>
   <v>       0.00000000       0.50000000       0.50000000 </v>
   <v>       0.50000000       0.00000000       0.00000000 </v>
   <v>       0.50000000       0.00000000       0.50000000 </v>
   <v>       0.50000000       0.50000000       0.00000000 </v>
   <v>       0.50000000       0.50000000       0.50000000 </v>
   <v>       0.25000000       0.25000000       0.00000000 </v>
   <v>       0.25000000       0.25000000       0.50000000 </v>
   <v>       0.25000000       0.75000000       0.00000000 </v>
   <v>       0.25000000       0.75000000       0.50000000 </v>
   <v>       0.75000000       0.25000000       0.00000000 </v>
   <v>       0.75000000       0.25000000       0.50000000 </v>
   <v>       0.75000000       0.75000000       0.00000000 </v>
   <v>       0.75000000       0.75000000       0.50000000 </v>
   <v>       0.25000000       0.00000000       0.25000000 </v>
   <v>       0.25000000       0.00000000       0.75000000 </v>
   <v>       0.25000000       0.50000000       0.25000000 </v>
   <v>       0.25000000       0.50000000       0.75000000 </v>
   <v>       0.75000000       0.00000000       0.25000000 </v>
   <v>       0.75000000       0.00000000       0.75000000 </v>
   <v>       0.75000000       0.50000000       0.25000000 </v>
   <v>       0.75000000       0.50000000       0.75000000 </v>
   <v>       0.00000000       0.25000000       0.25000000 </v>
   <v>       0.00000000       0.25000000       0.75000000 </v>
   <v>       0.00000000       0.75000000       0.25000000 </v>
   <v>       0.00000000       0.75000000       0.75000000 </v>
   <v>       0.50000000       0.25000000       0.25000000 </v>
   <v>       0.50000000       0.25000000       0.75000000 </v>
   <v>       0.50000000       0.75000000       0.25000000 </v>
   <v>       0.50000000       0.75000000       0.75000000 </v>
   <v>       0.12500000       0.12500000       0.12500000 </v>
   <v>       0.12500000       0.12500000       0.62500000 </v>
   <v>       0.12500000       0.62500000       0.12500000 </v>
   <v>       0.12500000       0.62500000       0.62500000 </v>
   <v>       0.62500000       0.12500000       0.12500000 </v>
   <v>       0.62500000       0.12500000       0.62500000 </v>
   <v>       0.62500000       0.62500000       0.12500000 </v>
   <v>       0.62500000       0.62500000       0.62500000 </v>
   <v>       0.37500000       0.12500000       0.37500000 </v>
   <v>       0.37500000       0.12500000       0.87500000 </v>
   <v>       0.37500000       0.62500000       0.37500000 </v>
   <v>       0.37500000       0.62500000       0.87500000 </v>
   <v>       0.87500000       0.12500000       0.37500000 </v>
   <v>       0.87500000       0.12500000       0.87500000 </v>
   <v>       0.87500000       0.62500000       0.37500000 </v>
   <v>       0.87500000       0.62500000       0.87500000 </v>
   <v>       0.37500000       0.37500000       0.12500000 </v>
   <v>       0.37500000       0.37500000       0.62500000 </v>
   <v>       0.37500000       0.87500000       0.12500000 </v>
   <v>       0.37500000       0.87500000       0.62500000 </v>
   <v>       0.87500000       0.37500000       0.12500000 </v>
   <v>       0.87500000       0.37500000       0.62500000 </v>
   <v>       0.87500000       0.87500000       0.12500000 </v>
   <v>       0.87500000       0.87500000       0.62500000 </v>
   <v>       0.12500000       0.37500000       0.37500000 </v>
   <v>       0.12500000       0.37500000       0.87500000 </v>
   <v>       0.12500000       0.87500000       0.37500000 </v>
   <v>       0.12500000       0.87500000       0.87500000 </v>
   <v>       0.62500000       0.37500000       0.37500000 </v>
   <v>       0.62500000       0.37500000       0.87500000 </v>
   <v>       0.62500000       0.87500000       0.37500000 </v>
   <v>       0.62500000       0.87500000       0.87500000 </v>
  </varray>
 </structure>
 <calculation>
  <scstep>
   <time name="dav">   41.11   41.70</time>
   <time name="total">   41.24   41.84</time>
   <energy>
    <i name="alphaZ">    571.82363354 </i>
    <i name="ewald">  -7193.38444655 </i>
    <i name="hartreedc">   -601.75088863 </i>
    <i name="XCdc">   -996.21742910 </i>
    <i name="pawpsdc">   6692.16565901 </i>
    <i name="pawaedc">  -5247.93935635 </i>
    <i name="eentropy">      0.00000000 </i>
    <i name="bandstr">    380.36554357 </i>
    <i name="atom">   7329.73306348 </i>
    <i name="e_fr_energy">    934.79577897 </i>
    <i name="e_wo_entrp">    934.79577897 </i>
    <i name="e_0_energy">    934.79577897 </i>
   </energy>
  </scstep>
  <scstep>
   <time name="dav">   46.17   46.71</time>
   <time name="total">   46.18   46.71</time>
   <energy>
    <i name="e_fr_energy">   -167.37539650 </i>
    <i name="e_wo_entrp">   -167.37539650 </i>
    <i name="e_0_energy">   -167.37539650 </i>
   </energy>
  </scstep>
  <scstep>
   <time name="dav">   46.66   47.20</time>
   <time name="total">   46.67   47.20</time>
   <energy>
    <i name="e_fr_energy">   -267.72246412 </i>
    <i name="e_wo_entrp">   -267.72246412 </i>
    <i name="e_0_energy">   -267.72246412 </i>
   </energy>
  </scstep>
  <scstep>
   <time name="dav">   45.89   46.48</time>
   <time name="total">   45.90   46.48</time>
   <energy>
    <i name="e_fr_energy">   -270.19104359 </i>
    <i name="e_wo_entrp">   -270.19104359 </i>
    <i name="e_0_energy">   -270.19104359 </i>
   </energy>
  </scstep>
  <scstep>
   <time name="dav">   48.19   48.81</time>
   <time name="total">   48.81   49.43</time>
   <energy>
    <i name="e_fr_energy">   -270.25564388 </i>
    <i name="e_wo_entrp">   -270.25564388 </i>
    <i name="e_0_energy">   -270.25564388 </i>
   </energy>
  </scstep>
  <scstep>
   <time name="dav">   48.32   48.91</time>
   <time name="total">   49.08   49.69</time>
   <energy>
    <i name="e_fr_energy">   -266.05686118 </i>
    <i name="e_wo_entrp">   -266.05686118 </i>
    <i name="e_0_energy">   -266.05686118 </i>
   </energy>
  </scstep>
  <scstep>
   <time name="dav">   48.89   49.47</time>
   <time name="total">   49.56   50.15</time>
   <energy>
    <i name="e_fr_energy">   -265.22167490 </i>
    <i name="e_wo_entrp">   -265.22167490 </i>
    <i name="e_0_energy">   -265.22167490 </i>
   </energy>
  </scstep>
  <scstep>
   <time name="dav">   46.70   47.27</time>
   <time name="total">   47.34   47.92</time>
   <energy>
    <i name="e_fr_energy">   -265.18048823 </i>
    <i name="e_wo_entrp">   -265.18048823 </i>
    <i name="e_0_energy">   -265.18048823 </i>
   </energy>
  </scstep>
  <scstep>
   <time name="dav">   46.70   47.26</time>
   <time name="total">   47.32   47.90</time>
   <energy>
    <i name="e_fr_energy">   -265.19228912 </i>
    <i name="e_wo_entrp">   -265.19228912 </i>
    <i name="e_0_energy">   -265.19228912 </i>
   </energy>
  </scstep>
  <scstep>
   <time name="dav">   49.55   50.14</time>
   <time name="total">   50.33   50.93</time>
   <energy>
    <i name="e_fr_energy">   -265.19334215 </i>
    <i name="e_wo_entrp">   -265.19334215 </i>
    <i name="e_0_energy">   -265.19334215 </i>
   </energy>
  </scstep>
  <scstep>
   <time name="dav">   45.16   45.72</time>
   <time name="total">   45.82   46.39</time>
   <energy>
    <i name="e_fr_energy">   -265.19464464 </i>
    <i name="e_wo_entrp">   -265.19464464 </i>
    <i name="e_0_energy">   -265.19464464 </i>
   </energy>
  </scstep>
  <scstep>
   <time name="dav">   47.37   47.95</time>
   <time name="total">   47.97   48.56</time>
   <energy>
    <i name="e_fr_energy">   -265.19465151 </i>
    <i name="e_wo_entrp">   -265.19465151 </i>
    <i name="e_0_energy">   -265.19465151 </i>
   </energy>
  </scstep>
  <scstep>
   <time name="dav">   44.76   45.29</time>
   <time name="total">   45.49   46.04</time>
   <energy>
    <i name="e_fr_energy">   -265.19466068 </i>
    <i name="e_wo_entrp">   -265.19466068 </i>
    <i name="e_0_energy">   -265.19466068 </i>
   </energy>
  </scstep>
  <scstep>
   <time name="dav">   38.30   38.82</time>
   <time name="total">   38.44   38.97</time>
   <energy>
    <i name="alphaZ">    571.82363354 </i>
    <i name="ewald">  -7193.38444655 </i>
    <i name="hartreedc">   -710.31804207 </i>
    <i name="XCdc">   -974.26925401 </i>
    <i name="pawpsdc">  14691.89676868 </i>
    <i name="pawaedc"> -13259.40203346 </i>
    <i name="eentropy">      0.00000000 </i>
    <i name="bandstr">   -721.27434965 </i>
    <i name="atom">   7329.73306348 </i>
    <i name="e_fr_energy">   -265.19466004 </i>
    <i name="e_wo_entrp">   -265.19466004 </i>
    <i name="e_0_energy">   -265.19466004 </i>
   </energy>
  </scstep>
  <structure>
   <crystal>
    <varray name="basis" >
     <v>      11.52679983       0.00000000       0.00000000 </v>
     <v>       0.00000000      11.52679983       0.00000000 </v>
     <v>       0.00000000       0.00000000      11.52679983 </v>
    </varray>
    <i name="volume">   1531.53263219 </i>
    <varray name="rec_basis" >
     <v>       0.08675435       0.00000000       0.00000000 </v>
     <v>       0.00000000       0.08675435       0.00000000 </v>
     <v>       0.00000000       0.00000000       0.08675435 </v>
    </varray>
   </crystal>
   <varray name="positions" >
    <v>       0.00000000       0.00000000       0.00000000 </v>
    <v>       0.00000000       0.00000000       0.50000000 </v>
    <v>       0.00000000       0.50000000       0.00000000 </v>
    <v>       0.00000000       0.50000000       0.50000000 </v>
    <v>       0.50000000       0.00000000       0.00000000 </v>
    <v>       0.50000000       0.00000000       0.50000000 </v>
    <v>       0.50000000       0.50000000       0.00000000 </v>
    <v>       0.50000000       0.50000000       0.50000000 </v>
    <v>       0.25000000       0.25000000       0.00000000 </v>
    <v>       0.25000000       0.25000000       0.50000000 </v>
    <v>       0.25000000       0.75000000       0.00000000 </v>
    <v>       0.25000000       0.75000000       0.50000000 </v>
    <v>       0.75000000       0.25000000       0.00000000 </v>
    <v>       0.75000000       0.25000000       0.50000000 </v>
    <v>       0.75000000       0.75000000       0.00000000 </v>
    <v>       0.75000000       0.75000000       0.50000000 </v>
    <v>       0.25000000       0.00000000       0.25000000 </v>
    <v>       0.25000000       0.00000000       0.75000000 </v>
    <v>       0.25000000       0.50000000       0.25000000 </v>
    <v>       0.25000000       0.50000000       0.75000000 </v>
    <v>       0.75000000       0.00000000       0.25000000 </v>
    <v>       0.75000000       0.00000000       0.75000000 </v>
    <v>       0.75000000       0.50000000       0.25000000 </v>
    <v>       0.75000000       0.50000000       0.75000000 </v>
    <v>       0.00000000       0.25000000       0.25000000 </v>
    <v>       0.00000000       0.25000000       0.75000000 </v>
    <v>       0.00000000       0.75000000       0.25000000 </v>
    <v>       0.00000000       0.75000000       0.75000000 </v>
    <v>       0.50000000       0.25000000       0.25000000 </v>
    <v>       0.50000000       0.25000000       0.75000000 </v>
    <v>       0.50000000       0.75000000       0.25000000 </v>
    <v>       0.50000000       0.75000000       0.75000000 </v>
    <v>       0.12500000       0.12500000       0.12500000 </v>
    <v>       0.12500000       0.12500000       0.62500000 </v>
    <v>       0.12500000       0.62500000       0.12500000 </v>
    <v>       0.12500000       0.62500000       0.62500000 </v>
    <v>       0.62500000       0.12500000       0.12500000 </v>
    <v>       0.62500000       0.12500000       0.62500000 </v>
    <v>       0.62500000       0.62500000       0.12500000 </v>
    <v>       0.62500000       0.62500000       0.62500000 </v>
    <v>       0.37500000       0.12500000       0.37500000 </v>
    <v>       0.37500000       0.12500000       0.87500000 </v>
    <v>       0.37500000       0.62500000       0.37500000 </v>
    <v>       0.37500000       0.62500000       0.87500000 </v>
    <v>       0.87500000       0.12500000       0.37500000 </v>
    <v>       0.87500000       0.12500000       0.87500000 </v>
    <v>       0.87500000       0.62500000       0.37500000 </v>
    <v>       0.87500000       0.62500000       0.87500000 </v>
    <v>       0.37500000       0.37500000       0.12500000 </v>
    <v>       0.37500000       0.37500000       0.62500000 </v>
    <v>       0.37500000       0.87500000       0.12500000 </v>
    <v>       0.37500000       0.87500000       0.62500000 </v>
    <v>       0.87500000       0.37500000       0.12500000 </v>
    <v>       0.87500000       0.37500000       0.62500000 </v>
    <v>       0.87500000       0.87500000       0.12500000 </v>
    <v>       0.87500000       0.87500000       0.62500000 </v>
    <v>       0.12500000       0.37500000       0.37500000 </v>
    <v>       0.12500000       0.37500000       0.87500000 </v>
    <v>       0.12500000       0.87500000       0.37500000 </v>
    <v>       0.12500000       0.87500000       0.87500000 </v>
    <v>       0.62500000       0.37500000       0.37500000 </v>
    <v>       0.62500000       0.37500000       0.87500000 </v>
    <v>       0.62500000       0.87500000       0.37500000 </v>
    <v>       0.62500000       0.87500000       0.87500000 </v>
   </varray>
  </structure>
  <varray name="forces" >
   <v>       0.00000000      -0.00000000       0.00000000 </v>
   <v>       0.00000000      -0.00000000       0.00000000 </v>
   <v>       0.00000000       0.00000000       0.00000000 </v>
   <v>       0.00000000      -0.00000000       0.00000000 </v>
   <v>       0.00000000       0.00000000       0.00000000 </v>
   <v>      -0.00000000      -0.00000000       0.00000000 </v>
   <v>       0.00000000       0.00000000       0.00000000 </v>
   <v>       0.00000000       0.00000000       0.00000000 </v>
   <v>      -0.00000000      -0.00000000      -0.00000000 </v>
   <v>       0.00000000       0.00000000       0.00000000 </v>
   <v>       0.00000000      -0.00000000       0.00000000 </v>
   <v>       0.00000000       0.00000000      -0.00000000 </v>
   <v>       0.00000000       0.00000000      -0.00000000 </v>
   <v>       0.00000000      -0.00000000       0.00000000 </v>
   <v>       0.00000000       0.00000000      -0.00000000 </v>
   <v>      -0.00000000      -0.00000000       0.00000000 </v>
   <v>      -0.00000000       0.00000000       0.00000000 </v>
   <v>       0.00000000       0.00000000       0.00000000 </v>
   <v>      -0.00000000       0.00000000       0.00000000 </v>
   <v>      -0.00000000      -0.00000000       0.00000000 </v>
   <v>       0.00000000       0.00000000       0.00000000 </v>
   <v>       0.00000000      -0.00000000       0.00000000 </v>
   <v>       0.00000000      -0.00000000       0.00000000 </v>
   <v>      -0.00000000       0.00000000       0.00000000 </v>
   <v>       0.00000000       0.00000000      -0.00000000 </v>
   <v>      -0.00000000       0.00000000       0.00000000 </v>
   <v>      -0.00000000      -0.00000000       0.00000000 </v>
   <v>       0.00000000      -0.00000000       0.00000000 </v>
   <v>      -0.00000000      -0.00000000       0.00000000 </v>
   <v>      -0.00000000      -0.00000000      -0.00000000 </v>
   <v>      -0.00000000      -0.00000000       0.00000000 </v>
   <v>      -0.00000000      -0.00000000      -0.00000000 </v>
   <v>      -0.00000000       0.00000000      -0.00000000 </v>
   <v>      -0.00000000       0.00000000      -0.00000000 </v>
   <v>      -0.00000000       0.00000000       0.00000000 </v>
   <v>      -0.00000000      -0.00000000       0.00000000 </v>
   <v>      -0.00000000       0.00000000      -0.00000000 </v>
   <v>      -0.00000000      -0.00000000      -0.00000000 </v>
   <v>       0.00000000      -0.00000000      -0.00000000 </v>
   <v>       0.00000000       0.00000000       0.00000000 </v>
   <v>      -0.00000000       0.00000000      -0.00000000 </v>
   <v>      -0.00000000       0.00000000      -0.00000000 </v>
   <v>       0.00000000       0.00000000       0.00000000 </v>
   <v>       0.00000000      -0.00000000      -0.00000000 </v>
   <v>      -0.00000000       0.00000000      -0.00000000 </v>
   <v>      -0.00000000      -0.00000000      -0.00000000 </v>
   <v>       0.00000000      -0.00000000       0.00000000 </v>
   <v>      -0.00000000       0.00000000       0.00000000 </v>
   <v>      -0.00000000      -0.00000000      -0.00000000 </v>
   <v>       0.00000000       0.00000000      -0.00000000 </v>
   <v>      -0.00000000      -0.00000000      -0.00000000 </v>
   <v>       0.00000000       0.00000000      -0.00000000 </v>
   <v>       0.00000000       0.00000000       0.00000000 </v>
   <v>      -0.00000000      -0.00000000      -0.00000000 </v>
   <v>       0.00000000      -0.00000000      -0.00000000 </v>
   <v>      -0.00000000      -0.00000000       0.00000000 </v>
   <v>      -0.00000000       0.00000000       0.00000000 </v>
   <v>       0.00000000       0.00000000      -0.00000000 </v>
   <v>       0.00000000       0.00000000       0.00000000 </v>
   <v>      -0.00000000      -0.00000000      -0.00000000 </v>
   <v>      -0.00000000       0.00000000      -0.00000000 </v>
   <v>      -0.00000000       0.00000000      -0.00000000 </v>
   <v>      -0.00000000      -0.00000000      -0.00000000 </v>
   <v>       0.00000000      -0.00000000      -0.00000000 </v>
  </varray>
  <varray name="stress" >
   <v>      -0.29150180      -0.00000000       0.00000000 </v>
   <v>       0.00000000      -0.29150180      -0.00000000 </v>
   <v>      -0.00000000       0.00000000      -0.29150180 </v>
  </varray>
  <scstep>
   <time name="total">   69.94   70.46</time>
   <energy>
    <i name="e_fr_energy">  -1269.65546669 </i>
    <i name="e_wo_entrp">  -1269.65546669 </i>
    <i name="e_0_energy">  -1269.65546669 </i>
   </energy>
  </scstep>
  <scstep>
   <time name="total">   47.25   47.64</time>
   <energy>
    <i name="e_fr_energy">  -1079.61468415 </i>
    <i name="e_wo_entrp">  -1079.61468415 </i>
    <i name="e_0_energy">  -1079.61468415 </i>
   </energy>
  </scstep>
  <scstep>
   <time name="total">   50.38   50.77</time>
   <energy>
    <i name="e_fr_energy">  -1082.42296828 </i>
    <i name="e_wo_entrp">  -1082.42296828 </i>
    <i name="e_0_energy">  -1082.42296828 </i>
   </energy>
  </scstep>
  <scstep>
   <time name="total">   32.48   32.78</time>
   <energy>
    <i name="e_fr_energy">  -1082.58755998 </i>
    <i name="e_wo_entrp">  -1082.58755998 </i>
    <i name="e_0_energy">  -1082.58755998 </i>
   </energy>
  </scstep>
  <scstep>
   <time name="total">   30.74   31.02</time>
   <energy>
    <i name="e_fr_energy">  -1082.51869146 </i>
    <i name="e_wo_entrp">  -1082.51869146 </i>
    <i name="e_0_energy">  -1082.51869146 </i>
   </energy>
  </scstep>
  <scstep>
   <time name="total">   33.78   34.08</time>
   <energy>
    <i name="e_fr_energy">  -1082.50103596 </i>
    <i name="e_wo_entrp">  -1082.50103596 </i>
    <i name="e_0_energy">  -1082.50103596 </i>
   </energy>
  </scstep>
  <scstep>
   <time name="total">   33.10   33.37</time>
   <energy>
    <i name="e_fr_energy">  -1082.49435868 </i>
    <i name="e_wo_entrp">  -1082.49435868 </i>
    <i name="e_0_energy">  -1082.49435868 </i>
   </energy>
  </scstep>
  <scstep>
   <time name="total">   36.24   36.52</time>
   <energy>
    <i name="e_fr_energy">  -1082.49272990 </i>
    <i name="e_wo_entrp">  -1082.49272990 </i>
    <i name="e_0_energy">  -1082.49272990 </i>
   </energy>
  </scstep>
  <scstep>
   <time name="total">   37.80   38.11</time>
   <energy>
    <i name="e_fr_energy">  -1082.49225427 </i>
    <i name="e_wo_entrp">  -1082.49225427 </i>
    <i name="e_0_energy">  -1082.49225427 </i>
   </energy>
  </scstep>
  <scstep>
   <time name="total">   38.60   38.94</time>
   <energy>
    <i name="e_fr_energy">  -1082.49217530 </i>
    <i name="e_wo_entrp">  -1082.49217530 </i>
    <i name="e_0_energy">  -1082.49217530 </i>
   </energy>
  </scstep>
  <scstep>
   <time name="total">   40.67   40.99</time>
   <energy>
    <i name="e_fr_energy">  -1082.49218149 </i>
    <i name="e_wo_entrp">  -1082.49218149 </i>
    <i name="e_0_energy">  -1082.49218149 </i>
   </energy>
  </scstep>
  <scstep>
   <time name="total">   70.46   70.97</time>
   <energy>
    <i name="e_fr_energy">  -1419.95123510 </i>
    <i name="e_wo_entrp">  -1419.95123510 </i>
    <i name="e_0_energy">  -1419.95123510 </i>
   </energy>
  </scstep>
  <scstep>
   <time name="total">   48.16   48.55</time>
   <energy>
    <i name="e_fr_energy">  -1130.57281209 </i>
    <i name="e_wo_entrp">  -1130.57281209 </i>
    <i name="e_0_energy">  -1130.57281209 </i>
   </energy>
  </scstep>
  <scstep>
   <time name="total">   50.34   50.72</time>
   <energy>
    <i name="e_fr_energy">  -1133.59014927 </i>
    <i name="e_wo_entrp">  -1133.59014927 </i>
    <i name="e_0_energy">  -1133.59014927 </i>
   </energy>
  </scstep>
  <scstep>
   <time name="total">   34.72   35.03</time>
   <energy>
    <i name="e_fr_energy">  -1133.75195335 </i>
    <i name="e_wo_entrp">  -1133.75195335 </i>
    <i name="e_0_energy">  -1133.75195335 </i>
   </energy>
  </scstep>
  <scstep>
   <time name="total">   33.78   34.07</time>
   <energy>
    <i name="e_fr_energy">  -1133.67871714 </i>
    <i name="e_wo_entrp">  -1133.67871714 </i>
    <i name="e_0_energy">  -1133.67871714 </i>
   </energy>
  </scstep>
  <scstep>
   <time name="total">   32.39   32.71</time>
   <energy>
    <i name="e_fr_energy">  -1133.65973440 </i>
    <i name="e_wo_entrp">  -1133.65973440 </i>
    <i name="e_0_energy">  -1133.65973440 </i>
   </energy>
  </scstep>
  <scstep>
   <time name="total">   33.98   34.29</time>
   <energy>
    <i name="e_fr_energy">  -1133.65274753 </i>
    <i name="e_wo_entrp">  -1133.65274753 </i>
    <i name="e_0_energy">  -1133.65274753 </i>
   </energy>
  </scstep>
  <scstep>
   <time name="total">   37.65   37.98</time>
   <energy>
    <i name="e_fr_energy">  -1133.65108197 </i>
    <i name="e_wo_entrp">  -1133.65108197 </i>
    <i name="e_0_energy">  -1133.65108197 </i>
   </energy>
  </scstep>
  <scstep>
   <time name="total">   38.01   38.33</time>
   <energy>
    <i name="e_fr_energy">  -1133.65053055 </i>
    <i name="e_wo_entrp">  -1133.65053055 </i>
    <i name="e_0_energy">  -1133.65053055 </i>
   </energy>
  </scstep>
  <scstep>
   <time name="total">   38.33   38.64</time>
   <energy>
    <i name="e_fr_energy">  -1133.65044795 </i>
    <i name="e_wo_entrp">  -1133.65044795 </i>
    <i name="e_0_energy">  -1133.65044795 </i>
   </energy>
  </scstep>
  <scstep>
   <time name="total">   37.83   38.15</time>
   <energy>
    <i name="e_fr_energy">  -1133.65048705 </i>
    <i name="e_wo_entrp">  -1133.65048705 </i>
    <i name="e_0_energy">  -1133.65048705 </i>
   </energy>
  </scstep>
  <scstep>
   <time name="total">   66.45   66.89</time>
   <energy>
    <i name="e_fr_energy">  -1418.19908567 </i>
    <i name="e_wo_entrp">  -1418.19908567 </i>
    <i name="e_0_energy">  -1418.19908567 </i>
   </energy>
  </scstep>
  <scstep>
   <time name="total">   50.21   50.62</time>
   <energy>
    <i name="e_fr_energy">  -1088.59400914 </i>
    <i name="e_wo_entrp">  -1088.59400914 </i>
    <i name="e_0_energy">  -1088.59400914 </i>
   </energy>
  </scstep>
  <scstep>
   <time name="total">   50.52   50.90</time>
   <energy>
    <i name="e_fr_energy">  -1090.89826511 </i>
    <i name="e_wo_entrp">  -1090.89826511 </i>
    <i name="e_0_energy">  -1090.89826511 </i>
   </energy>
  </scstep>
  <scstep>
   <time name="total">   34.54   34.83</time>
   <energy>
    <i name="e_fr_energy">  -1091.03303592 </i>
    <i name="e_wo_entrp">  -1091.03303592 </i>
    <i name="e_0_energy">  -1091.03303592 </i>
   </energy>
  </scstep>
  <scstep>
   <time name="total">   33.58   33.86</time>
   <energy>
    <i name="e_fr_energy">  -1091.03099280 </i>
    <i name="e_wo_entrp">  -1091.03099280 </i>
    <i name="e_0_energy">  -1091.03099280 </i>
   </energy>
  </scstep>
  <scstep>
   <time name="total">   32.46   32.76</time>
   <energy>
    <i name="e_fr_energy">  -1091.02959814 </i>
    <i name="e_wo_entrp">  -1091.02959814 </i>
    <i name="e_0_energy">  -1091.02959814 </i>
   </energy>
  </scstep>
  <scstep>
   <time name="total">   34.68   34.99</time>
   <energy>
    <i name="e_fr_energy">  -1091.02924196 </i>
    <i name="e_wo_entrp">  -1091.02924196 </i>
    <i name="e_0_energy">  -1091.02924196 </i>
   </energy>
  </scstep>
  <scstep>
   <time name="total">   38.53   38.88</time>
   <energy>
    <i name="e_fr_energy">  -1091.02912326 </i>
    <i name="e_wo_entrp">  -1091.02912326 </i>
    <i name="e_0_energy">  -1091.02912326 </i>
   </energy>
  </scstep>
  <scstep>
   <time name="total">   38.79   39.11</time>
   <energy>
    <i name="e_fr_energy">  -1091.02911434 </i>
    <i name="e_wo_entrp">  -1091.02911434 </i>
    <i name="e_0_energy">  -1091.02911434 </i>
   </energy>
  </scstep>
  <scstep>
   <time name="total">   39.28   39.60</time>
   <energy>
    <i name="e_fr_energy">  -1091.02911580 </i>
    <i name="e_wo_entrp">  -1091.02911580 </i>
    <i name="e_0_energy">  -1091.02911580 </i>
   </energy>
  </scstep>
  <scstep>
   <time name="total">   40.73   41.05</time>
   <energy>
    <i name="e_fr_energy">  -1091.02911665 </i>
    <i name="e_wo_entrp">  -1091.02911665 </i>
    <i name="e_0_energy">  -1091.02911665 </i>
   </energy>
  </scstep>
  <kpoints>
   <generation param="Gamma">
    <v type="int" name="divisions">       5        5        5 </v>
    <v name="usershift">      0.00000000       0.00000000       0.00000000 </v>
    <v name="genvec1">      0.20000000       0.00000000       0.00000000 </v>
    <v name="genvec2">      0.00000000       0.20000000       0.00000000 </v>
    <v name="genvec3">      0.00000000       0.00000000       0.20000000 </v>
    <v name="shift">      0.00000000       0.00000000       0.00000000 </v>
   </generation>
   <varray name="kpointlist" >
    <v>       0.00000000       0.00000000       0.00000000 </v>
    <v>       0.20000000       0.00000000       0.00000000 </v>
    <v>       0.00000000       0.20000000       0.00000000 </v>
    <v>       0.40000000       0.00000000       0.00000000 </v>
    <v>       0.00000000       0.40000000       0.00000000 </v>
    <v>       0.20000000       0.20000000       0.00000000 </v>
    <v>       0.00000000       0.20000000       0.20000000 </v>
    <v>       0.00000000      -0.20000000       0.20000000 </v>
    <v>       0.40000000       0.20000000       0.00000000 </v>
    <v>       0.00000000       0.40000000       0.20000000 </v>
    <v>       0.20000000       0.00000000       0.40000000 </v>
    <v>       0.00000000      -0.40000000       0.20000000 </v>
    <v>       0.40000000       0.40000000       0.00000000 </v>
    <v>       0.00000000       0.40000000       0.40000000 </v>
    <v>       0.00000000      -0.40000000       0.40000000 </v>
    <v>       0.20000000       0.20000000       0.20000000 </v>
    <v>      -0.20000000      -0.20000000       0.20000000 </v>
    <v>       0.40000000       0.20000000       0.20000000 </v>
    <v>       0.20000000       0.40000000       0.20000000 </v>
    <v>      -0.40000000      -0.20000000       0.20000000 </v>
    <v>      -0.20000000      -0.40000000       0.20000000 </v>
    <v>       0.40000000       0.40000000       0.20000000 </v>
    <v>       0.20000000       0.40000000       0.40000000 </v>
    <v>      -0.40000000      -0.40000000       0.20000000 </v>
    <v>      -0.20000000      -0.40000000       0.40000000 </v>
    <v>       0.40000000       0.40000000       0.40000000 </v>
    <v>      -0.40000000      -0.40000000       0.40000000 </v>
   </varray>
   <varray name="weights" >
    <v>       0.00800000 </v>
    <v>       0.01600000 </v>
    <v>       0.03200000 </v>
    <v>       0.01600000 </v>
    <v>       0.03200000 </v>
    <v>       0.06400000 </v>
    <v>       0.01600000 </v>
    <v>       0.01600000 </v>
    <v>       0.06400000 </v>
    <v>       0.03200000 </v>
    <v>       0.06400000 </v>
    <v>       0.03200000 </v>
    <v>       0.06400000 </v>
    <v>       0.01600000 </v>
    <v>       0.01600000 </v>
    <v>       0.03200000 </v>
    <v>       0.03200000 </v>
    <v>       0.03200000 </v>
    <v>       0.06400000 </v>
    <v>       0.03200000 </v>
    <v>       0.06400000 </v>
    <v>       0.06400000 </v>
    <v>       0.03200000 </v>
    <v>       0.06400000 </v>
    <v>       0.03200000 </v>
    <v>       0.03200000 </v>
    <v>       0.03200000 </v>
   </varray>
   <varray name="tetrahedronlist"  type="int" >
    <v type="int" >        4       16       18       19       22 </v>
    <v type="int" >        4       16       19       19       22 </v>
    <v type="int" >        4       19       19       22       23 </v>
    <v type="int" >        4       18       19       22       22 </v>
    <v type="int" >        4       19       22       22       26 </v>
    <v type="int" >        4       19       22       23       26 </v>
    <v type="int" >        2       18       18       22       22 </v>
    <v type="int" >        4       18       22       22       22 </v>
    <v type="int" >        4       22       22       22       26 </v>
    <v type="int" >        2       22       22       26       26 </v>
    <v type="int" >        4        7       10       16       19 </v>
    <v type="int" >        4       10       16       19       19 </v>
    <v type="int" >        4       10       19       19       23 </v>
    <v type="int" >        4        7       10       10       19 </v>
    <v type="int" >        4       10       10       14       19 </v>
    <v type="int" >        4       10       14       19       23 </v>
    <v type="int" >        4       19       22       23       24 </v>
    <v type="int" >        4       19       21       23       24 </v>
    <v type="int" >        4       21       23       24       25 </v>
    <v type="int" >        4       22       23       24       26 </v>
    <v type="int" >        4       23       24       26       27 </v>
    <v type="int" >        4       23       24       25       27 </v>
    <v type="int" >        4       22       22       24       26 </v>
    <v type="int" >        4       22       24       24       26 </v>
    <v type="int" >        4       24       24       26       27 </v>
    <v type="int" >        4       22       24       26       26 </v>
    <v type="int" >        4       24       26       26       27 </v>
    <v type="int" >        4       24       26       27       27 </v>
    <v type="int" >        4       19       21       22       26 </v>
    <v type="int" >        4       21       22       24       26 </v>
    <v type="int" >        4       21       24       26       27 </v>
    <v type="int" >        4       19       21       23       26 </v>
    <v type="int" >        4       21       23       25       26 </v>
    <v type="int" >        4       21       25       26       27 </v>
    <v type="int" >        4       10       12       19       23 </v>
    <v type="int" >        4       12       19       21       23 </v>
    <v type="int" >        4       12       21       23       25 </v>
    <v type="int" >        4       10       12       14       23 </v>
    <v type="int" >        4       12       14       15       23 </v>
    <v type="int" >        4       12       15       23       25 </v>
    <v type="int" >        4       10       14       19       21 </v>
    <v type="int" >        4       10       12       14       21 </v>
    <v type="int" >        4       12       14       15       21 </v>
    <v type="int" >        4       14       19       21       23 </v>
    <v type="int" >        4       14       21       23       25 </v>
    <v type="int" >        4       14       15       21       25 </v>
    <v type="int" >        4       20       21       24       25 </v>
    <v type="int" >        4       17       20       21       25 </v>
    <v type="int" >        4       20       24       25       27 </v>
    <v type="int" >        4       20       24       24       27 </v>
    <v type="int" >        4       20       20       24       27 </v>
    <v type="int" >        4       20       24       27       27 </v>
    <v type="int" >        4       17       21       24       27 </v>
    <v type="int" >        4       17       20       24       27 </v>
    <v type="int" >        4       17       21       25       27 </v>
    <v type="int" >        4        8       12       21       25 </v>
    <v type="int" >        4        8       17       21       25 </v>
    <v type="int" >        4        8       12       15       25 </v>
    <v type="int" >        4       12       15       17       21 </v>
    <v type="int" >        4        8       12       15       17 </v>
    <v type="int" >        4       15       17       21       25 </v>
    <v type="int" >        4        9       17       20       21 </v>
    <v type="int" >        4        6        9       17       21 </v>
    <v type="int" >        4        6        9       11       21 </v>
    <v type="int" >        4        9       20       21       24 </v>
    <v type="int" >        4        9       13       21       24 </v>
    <v type="int" >        4        9       11       13       21 </v>
    <v type="int" >        4        9       20       20       24 </v>
    <v type="int" >        4        9        9       20       24 </v>
    <v type="int" >        4        9        9       13       24 </v>
    <v type="int" >        4        9       20       24       24 </v>
    <v type="int" >        4        9       13       24       24 </v>
    <v type="int" >        4        9       13       13       24 </v>
    <v type="int" >        4        6       17       20       24 </v>
    <v type="int" >        4        6        9       20       24 </v>
    <v type="int" >        4        6        9       13       24 </v>
    <v type="int" >        4        6       17       21       24 </v>
    <v type="int" >        4        6       11       21       24 </v>
    <v type="int" >        4        6       11       13       24 </v>
    <v type="int" >        4        3        8       17       21 </v>
    <v type="int" >        4        3        6       17       21 </v>
    <v type="int" >        4        3        6       11       21 </v>
    <v type="int" >        4        3        8       12       21 </v>
    <v type="int" >        4        3        5       12       21 </v>
    <v type="int" >        4        3        5       11       21 </v>
    <v type="int" >        4        6        8       12       17 </v>
    <v type="int" >        4        3        6        8       12 </v>
    <v type="int" >        4        3        5        6       12 </v>
    <v type="int" >        4        6       12       17       21 </v>
    <v type="int" >        4        6       11       12       21 </v>
    <v type="int" >        4        5        6       11       12 </v>
    <v type="int" >        4        6        9       11       18 </v>
    <v type="int" >        4        6       11       16       18 </v>
    <v type="int" >        4       11       16       18       19 </v>
    <v type="int" >        4        9       11       13       18 </v>
    <v type="int" >        4       11       13       18       22 </v>
    <v type="int" >        4       11       18       19       22 </v>
    <v type="int" >        4        9        9       13       18 </v>
    <v type="int" >        4        9       13       18       18 </v>
    <v type="int" >        4       13       18       18       22 </v>
    <v type="int" >        4        9       13       13       18 </v>
    <v type="int" >        4       13       13       18       22 </v>
    <v type="int" >        4       13       18       22       22 </v>
    <v type="int" >        4        6        9       13       16 </v>
    <v type="int" >        4        9       13       16       18 </v>
    <v type="int" >        4       13       16       18       22 </v>
    <v type="int" >        4        6       11       13       16 </v>
    <v type="int" >        4       11       13       16       19 </v>
    <v type="int" >        4       13       16       19       22 </v>
    <v type="int" >        4        3        6        7       11 </v>
    <v type="int" >        4        6        7       11       16 </v>
    <v type="int" >        4        7       11       16       19 </v>
    <v type="int" >        4        3        5        7       11 </v>
    <v type="int" >        4        5        7       10       11 </v>
    <v type="int" >        4        7       10       11       19 </v>
    <v type="int" >        4        3        5        6       16 </v>
    <v type="int" >        4        3        5        7       16 </v>
    <v type="int" >        4        5        7       10       16 </v>
    <v type="int" >        4        5        6       11       16 </v>
    <v type="int" >        4        5       11       16       19 </v>
    <v type="int" >        4        5       10       16       19 </v>
    <v type="int" >        4       23       25       26       27 </v>
    <v type="int" >        4       23       25       25       27 </v>
    <v type="int" >        4       25       26       27       27 </v>
    <v type="int" >        2       26       26       27       27 </v>
    <v type="int" >        4       26       27       27       27 </v>
    <v type="int" >        4       14       15       23       25 </v>
    <v type="int" >        4       15       23       25       25 </v>
    <v type="int" >        4       14       15       15       25 </v>
    <v type="int" >        4       13       19       21       24 </v>
    <v type="int" >        4       11       13       19       21 </v>
    <v type="int" >        4       11       11       13       19 </v>
    <v type="int" >        4       13       19       22       24 </v>
    <v type="int" >        4       13       13       19       22 </v>
    <v type="int" >        4       11       13       13       19 </v>
    <v type="int" >        4       13       22       24       24 </v>
    <v type="int" >        4       13       13       22       24 </v>
    <v type="int" >        8       13       13       13       22 </v>
    <v type="int" >        4       13       22       22       24 </v>
    <v type="int" >        4       13       13       22       22 </v>
    <v type="int" >        4       11       21       22       24 </v>
    <v type="int" >        4       11       13       22       24 </v>
    <v type="int" >        4       11       13       13       22 </v>
    <v type="int" >        4       11       19       21       22 </v>
    <v type="int" >        4       11       11       19       22 </v>
    <v type="int" >        4       11       11       13       22 </v>
    <v type="int" >        4        5       12       19       21 </v>
    <v type="int" >        4        5       11       19       21 </v>
    <v type="int" >        4        5       11       11       19 </v>
    <v type="int" >        4        5       10       12       19 </v>
    <v type="int" >        4        5        5       10       19 </v>
    <v type="int" >        4        5        5       11       19 </v>
    <v type="int" >        4       10       11       12       21 </v>
    <v type="int" >        4        5       10       11       12 </v>
    <v type="int" >        4        5        5       10       11 </v>
    <v type="int" >        4       10       11       19       21 </v>
    <v type="int" >        4       10       11       11       19 </v>
    <v type="int" >        4        5       10       11       11 </v>
    <v type="int" >        4        6        9       16       18 </v>
    <v type="int" >        4        6        6        9       16 </v>
    <v type="int" >        4        2        6        6        9 </v>
    <v type="int" >        4        6        9        9       18 </v>
    <v type="int" >        4        4        6        9        9 </v>
    <v type="int" >        4        2        4        6        9 </v>
    <v type="int" >        2        9        9       18       18 </v>
    <v type="int" >        4        9        9        9       18 </v>
    <v type="int" >        4        4        9        9        9 </v>
    <v type="int" >        2        4        4        9        9 </v>
    <v type="int" >        4        3        6        7       16 </v>
    <v type="int" >        4        3        6        6       16 </v>
    <v type="int" >        4        2        3        6        6 </v>
    <v type="int" >        4        3        3        6        7 </v>
    <v type="int" >        4        1        3        3        6 </v>
    <v type="int" >        4        1        2        3        6 </v>
    <v type="int" >        4        2        6        9       20 </v>
    <v type="int" >        4        2        6       17       20 </v>
    <v type="int" >        4        2        4        9       20 </v>
    <v type="int" >        4        4        9        9       20 </v>
    <v type="int" >        4        4        9       20       20 </v>
    <v type="int" >        4        4        4        9       20 </v>
    <v type="int" >        4        4        6        9       17 </v>
    <v type="int" >        4        4        9       17       20 </v>
    <v type="int" >        4        2        4        6       17 </v>
    <v type="int" >        4        2        3        6        8 </v>
    <v type="int" >        4        2        6        8       17 </v>
    <v type="int" >        4        1        2        3        8 </v>
    <v type="int" >        4        1        3        6       17 </v>
    <v type="int" >        4        1        3        8       17 </v>
    <v type="int" >        4        1        2        6       17 </v>
   </varray>
   <i name="volumeweight">      0.00133333 </i>
  </kpoints>
  <scstep>
   <time name="total">  130.50  131.85</time>
   <energy>
    <i name="e_fr_energy">   -115.44423407 </i>
    <i name="e_wo_entrp">   -115.44423407 </i>
    <i name="e_0_energy">   -115.44423407 </i>
   </energy>
  </scstep>
  <scstep>
   <time name="total">  118.13  119.31</time>
   <energy>
    <i name="e_fr_energy">   -356.17400808 </i>
    <i name="e_wo_entrp">   -356.17400808 </i>
    <i name="e_0_energy">   -356.17400808 </i>
   </energy>
  </scstep>
  <scstep>
   <time name="total">  122.81  124.13</time>
   <energy>
    <i name="e_fr_energy">   -356.28897117 </i>
    <i name="e_wo_entrp">   -356.28897117 </i>
    <i name="e_0_energy">   -356.28897117 </i>
   </energy>
  </scstep>
  <scstep>
   <time name="total">  120.11  121.45</time>
   <energy>
    <i name="e_fr_energy">   -346.67988948 </i>
    <i name="e_wo_entrp">   -346.67988948 </i>
    <i name="e_0_energy">   -346.67988948 </i>
   </energy>
  </scstep>
  <scstep>
   <time name="total">  126.50  127.80</time>
   <energy>
    <i name="e_fr_energy">   -345.88231598 </i>
    <i name="e_wo_entrp">   -345.88231598 </i>
    <i name="e_0_energy">   -345.88231598 </i>
   </energy>
  </scstep>
  <scstep>
   <time name="total">  120.42  121.64</time>
   <energy>
    <i name="e_fr_energy">   -345.79801380 </i>
    <i name="e_wo_entrp">   -345.79801380 </i>
    <i name="e_0_energy">   -345.79801380 </i>
   </energy>
  </scstep>
  <scstep>
   <time name="total">  120.48  121.68</time>
   <energy>
    <i name="e_fr_energy">   -345.74791282 </i>
    <i name="e_wo_entrp">   -345.74791282 </i>
    <i name="e_0_energy">   -345.74791282 </i>
   </energy>
  </scstep>
  <scstep>
   <time name="total">  129.71  131.07</time>
   <energy>
    <i name="e_fr_energy">   -345.73354722 </i>
    <i name="e_wo_entrp">   -345.73354722 </i>
    <i name="e_0_energy">   -345.73354722 </i>
   </energy>
  </scstep>
  <scstep>
   <time name="total">  131.72  133.05</time>
   <energy>
    <i name="e_fr_energy">   -345.73986957 </i>
    <i name="e_wo_entrp">   -345.73986957 </i>
    <i name="e_0_energy">   -345.73986957 </i>
   </energy>
  </scstep>
  <scstep>
   <time name="total">  134.50  135.80</time>
   <energy>
    <i name="e_fr_energy">   -345.73942383 </i>
    <i name="e_wo_entrp">   -345.73942383 </i>
    <i name="e_0_energy">   -345.73942383 </i>
   </energy>
  </scstep>
  <scstep>
   <time name="total">  134.00  135.23</time>
   <energy>
    <i name="e_fr_energy">   -345.73915124 </i>
    <i name="e_wo_entrp">   -345.73915124 </i>
    <i name="e_0_energy">   -345.73915124 </i>
   </energy>
  </scstep>
  <scstep>
   <time name="total">  126.93  128.09</time>
   <energy>
    <i name="e_fr_energy">   -345.73918294 </i>
    <i name="e_wo_entrp">   -345.73918294 </i>
    <i name="e_0_energy">   -345.73918294 </i>
   </energy>
  </scstep>
  <scstep>
   <time name="total">  127.00  128.30</time>
   <energy>
    <i name="e_fr_energy">   -345.73917015 </i>
    <i name="e_wo_entrp">   -345.73917015 </i>
    <i name="e_0_energy">   -345.73917015 </i>
   </energy>
  </scstep>
  <kpoints>
   <generation param="Gamma">
    <v type="int" name="divisions">       5        5        5 </v>
    <v name="usershift">      0.00000000       0.00000000       0.00000000 </v>
    <v name="genvec1">      0.20000000       0.00000000       0.00000000 </v>
    <v name="genvec2">      0.00000000       0.20000000       0.00000000 </v>
    <v name="genvec3">      0.00000000       0.00000000       0.20000000 </v>
    <v name="shift">      0.00000000       0.00000000       0.00000000 </v>
   </generation>
   <varray name="kpointlist" >
    <v>       0.00000000       0.00000000       0.00000000 </v>
    <v>       0.20000000       0.00000000       0.00000000 </v>
    <v>       0.00000000       0.20000000       0.00000000 </v>
    <v>       0.40000000       0.00000000       0.00000000 </v>
    <v>       0.00000000       0.40000000       0.00000000 </v>
    <v>       0.20000000       0.20000000       0.00000000 </v>
    <v>       0.20000000       0.00000000       0.20000000 </v>
    <v>      -0.20000000       0.00000000       0.20000000 </v>
    <v>       0.40000000       0.20000000       0.00000000 </v>
    <v>       0.00000000       0.40000000       0.20000000 </v>
    <v>       0.20000000       0.00000000       0.40000000 </v>
    <v>      -0.40000000       0.00000000       0.20000000 </v>
    <v>       0.40000000       0.40000000       0.00000000 </v>
    <v>       0.40000000       0.00000000       0.40000000 </v>
    <v>      -0.40000000       0.00000000       0.40000000 </v>
    <v>       0.20000000       0.20000000       0.20000000 </v>
    <v>      -0.20000000       0.20000000       0.20000000 </v>
    <v>       0.40000000       0.20000000       0.20000000 </v>
    <v>       0.20000000       0.40000000       0.20000000 </v>
    <v>      -0.20000000       0.40000000       0.20000000 </v>
    <v>      -0.40000000       0.20000000       0.20000000 </v>
    <v>       0.40000000       0.40000000       0.20000000 </v>
    <v>       0.40000000       0.20000000       0.40000000 </v>
    <v>      -0.40000000       0.40000000       0.20000000 </v>
    <v>      -0.40000000       0.20000000       0.40000000 </v>
    <v>       0.40000000       0.40000000       0.40000000 </v>
    <v>      -0.40000000       0.40000000       0.40000000 </v>
   </varray>
   <varray name="weights" >
    <v>       0.00800000 </v>
    <v>       0.03200000 </v>
    <v>       0.01600000 </v>
    <v>       0.03200000 </v>
    <v>       0.01600000 </v>
    <v>       0.06400000 </v>
    <v>       0.01600000 </v>
    <v>       0.01600000 </v>
    <v>       0.06400000 </v>
    <v>       0.06400000 </v>
    <v>       0.03200000 </v>
    <v>       0.03200000 </v>
    <v>       0.06400000 </v>
    <v>       0.01600000 </v>
    <v>       0.01600000 </v>
    <v>       0.03200000 </v>
    <v>       0.03200000 </v>
    <v>       0.06400000 </v>
    <v>       0.03200000 </v>
    <v>       0.03200000 </v>
    <v>       0.06400000 </v>
    <v>       0.06400000 </v>
    <v>       0.03200000 </v>
    <v>       0.06400000 </v>
    <v>       0.03200000 </v>
    <v>       0.03200000 </v>
    <v>       0.03200000 </v>
   </varray>
   <varray name="tetrahedronlist"  type="int" >
    <v type="int" >        4       16       18       18       22 </v>
    <v type="int" >        4       16       18       19       22 </v>
    <v type="int" >        4       18       19       22       22 </v>
    <v type="int" >        4       18       18       22       23 </v>
    <v type="int" >        4       18       22       23       26 </v>
    <v type="int" >        4       18       22       22       26 </v>
    <v type="int" >        4       18       21       23       24 </v>
    <v type="int" >        4       18       22       23       24 </v>
    <v type="int" >        4       22       23       24       26 </v>
    <v type="int" >        4       21       23       24       25 </v>
    <v type="int" >        4       23       24       25       27 </v>
    <v type="int" >        4       23       24       26       27 </v>
    <v type="int" >        4       17       20       21       25 </v>
    <v type="int" >        4       20       21       24       25 </v>
    <v type="int" >        4       20       24       25       27 </v>
    <v type="int" >        4        6       10       17       21 </v>
    <v type="int" >        4       10       17       20       21 </v>
    <v type="int" >        4       10       20       21       24 </v>
    <v type="int" >        4        6        9       10       21 </v>
    <v type="int" >        4        9       10       13       21 </v>
    <v type="int" >        4       10       13       21       24 </v>
    <v type="int" >        4        6        9       16       19 </v>
    <v type="int" >        4        6        9       10       19 </v>
    <v type="int" >        4        9       10       13       19 </v>
    <v type="int" >        4        9       16       18       19 </v>
    <v type="int" >        4        9       18       19       22 </v>
    <v type="int" >        4        9       13       19       22 </v>
    <v type="int" >        4       19       22       22       22 </v>
    <v type="int" >        2       19       19       22       22 </v>
    <v type="int" >        4       22       22       22       26 </v>
    <v type="int" >        2       22       22       26       26 </v>
    <v type="int" >        4       22       24       24       26 </v>
    <v type="int" >        4       22       22       24       26 </v>
    <v type="int" >        4       22       24       26       26 </v>
    <v type="int" >        4       24       24       26       27 </v>
    <v type="int" >        4       24       26       27       27 </v>
    <v type="int" >        4       24       26       26       27 </v>
    <v type="int" >        4       20       20       24       27 </v>
    <v type="int" >        4       20       24       24       27 </v>
    <v type="int" >        4       20       24       27       27 </v>
    <v type="int" >        4       10       10       20       24 </v>
    <v type="int" >        4       10       20       20       24 </v>
    <v type="int" >        4       10       20       24       24 </v>
    <v type="int" >        4       10       10       13       24 </v>
    <v type="int" >        4       10       13       13       24 </v>
    <v type="int" >        4       10       13       24       24 </v>
    <v type="int" >        4       10       13       19       19 </v>
    <v type="int" >        4       10       10       13       19 </v>
    <v type="int" >        4       10       13       13       19 </v>
    <v type="int" >        4       13       19       19       22 </v>
    <v type="int" >        4       13       19       22       22 </v>
    <v type="int" >        4       13       13       19       22 </v>
    <v type="int" >        4       21       22       24       26 </v>
    <v type="int" >        4       18       21       22       26 </v>
    <v type="int" >        4       18       21       23       26 </v>
    <v type="int" >        4       21       24       26       27 </v>
    <v type="int" >        4       21       25       26       27 </v>
    <v type="int" >        4       21       23       25       26 </v>
    <v type="int" >        4       17       20       24       27 </v>
    <v type="int" >        4       17       21       24       27 </v>
    <v type="int" >        4       17       21       25       27 </v>
    <v type="int" >        4        6       10       20       24 </v>
    <v type="int" >        4        6       17       20       24 </v>
    <v type="int" >        4        6       17       21       24 </v>
    <v type="int" >        4        6       10       13       24 </v>
    <v type="int" >        4        6        9       13       24 </v>
    <v type="int" >        4        6        9       21       24 </v>
    <v type="int" >        4       10       13       16       19 </v>
    <v type="int" >        4        6       10       13       16 </v>
    <v type="int" >        4        6        9       13       16 </v>
    <v type="int" >        4       13       16       19       22 </v>
    <v type="int" >        4       13       16       18       22 </v>
    <v type="int" >        4        9       13       16       18 </v>
    <v type="int" >        4       11       16       18       18 </v>
    <v type="int" >        4        7       11       16       18 </v>
    <v type="int" >        4        7       11       11       18 </v>
    <v type="int" >        4       11       18       18       23 </v>
    <v type="int" >        4       11       14       18       23 </v>
    <v type="int" >        4       11       11       14       18 </v>
    <v type="int" >        4       12       18       21       23 </v>
    <v type="int" >        4       11       12       18       23 </v>
    <v type="int" >        4       11       12       14       23 </v>
    <v type="int" >        4       12       21       23       25 </v>
[...]
     <r>     7.3100     0.0000     0.0000     0.0000     0.0000     0.0000     0.0000 </r>
     <r>     7.3200     0.0000     0.0000     0.0000     0.0000     0.0000     0.0000 </r>
    </set>
   </array>
  </conductivity>
  <dos>
   <i name="efermi">      2.31948032 </i>
   <total>
    <array>
     <dimension dim="1">gridpoints</dimension>
     <dimension dim="2">spin</dimension>
     <field>energy</field>
     <field>total</field>
     <field>integrated</field>
     <set>
      <set comment="spin 1">
       <r>   -11.0207     0.0000     0.0000 </r>
       <r>   -10.9584     0.0000     0.0000 </r>
       <r>   -10.8961     0.0000     0.0000 </r>
       <r>   -10.8338     0.0000     0.0000 </r>
       <r>   -10.7715     0.0000     0.0000 </r>
       <r>   -10.7092     0.0000     0.0000 </r>
       <r>   -10.6469     0.0000     0.0000 </r>
       <r>   -10.5846     0.0000     0.0000 </r>
       <r>   -10.5223     0.0000     0.0000 </r>
       <r>   -10.4600     0.0000     0.0000 </r>
       <r>   -10.3977     0.0000     0.0000 </r>
       <r>   -10.3354     0.0000     0.0000 </r>
       <r>   -10.2731     0.0000     0.0000 </r>
       <r>   -10.2108     0.0000     0.0000 </r>
       <r>   -10.1485     0.0000     0.0000 </r>
       <r>   -10.0862     0.0000     0.0000 </r>
       <r>   -10.0239     0.0000     0.0000 </r>
       <r>    -9.9616     3.7296     0.0979 </r>
       <r>    -9.8993     5.3661     0.3674 </r>
       <r>    -9.8370    10.1464     0.9072 </r>
       <r>    -9.7747     7.3069     1.3987 </r>
       <r>    -9.7124     6.7697     1.8254 </r>
       <r>    -9.6501    11.3077     2.3976 </r>
       <r>    -9.5878    16.8070     3.1235 </r>
       <r>    -9.5255    11.5001     3.9535 </r>
       <r>    -9.4632    12.6037     4.7161 </r>
       <r>    -9.4009    19.4335     5.7590 </r>
       <r>    -9.3386     9.8375     6.6716 </r>
       <r>    -9.2763    15.7146     7.5084 </r>
       <r>    -9.2140    14.4626     8.4217 </r>
       <r>    -9.1517    28.3501     9.9061 </r>
       <r>    -9.0894    33.5095    11.7103 </r>
       <r>    -9.0271     9.5624    12.7952 </r>
       <r>    -8.9648    40.9763    13.7795 </r>
       <r>    -8.9025    23.9840    15.4063 </r>
       <r>    -8.8402    19.3910    16.5619 </r>
       <r>    -8.7779    40.3008    18.7280 </r>
       <r>    -8.7156    27.4064    20.6986 </r>
       <r>    -8.6533    32.1953    22.5963 </r>
       <r>    -8.5910    37.8497    24.8024 </r>
       <r>    -8.5287    54.7349    27.5136 </r>
       <r>    -8.4664    56.4892    31.1395 </r>
       <r>    -8.4041    78.0040    34.4511 </r>
       <r>    -8.3418    67.8676    37.9002 </r>
       <r>    -8.2795    40.7370    40.7798 </r>
       <r>    -8.2172    48.6639    43.0154 </r>
       <r>    -8.1549    62.7175    46.3760 </r>
       <r>    -8.0926    64.9831    50.2517 </r>
       <r>    -8.0303    54.4549    53.2782 </r>
       <r>    -7.9680    69.9514    56.6649 </r>
       <r>    -7.9057    78.4244    61.5989 </r>
       <r>    -7.8434     7.7045    64.0000 </r>
       <r>    -7.7811     0.0000    64.0000 </r>
       <r>    -7.7188     0.0000    64.0000 </r>
       <r>    -7.6565     0.0000    64.0000 </r>
       <r>    -7.5942     0.0000    64.0000 </r>
       <r>    -7.5319     0.0000    64.0000 </r>
       <r>    -7.4696     0.0000    64.0000 </r>
       <r>    -7.4073     0.0000    64.0000 </r>
       <r>    -7.3450     0.0000    64.0000 </r>
       <r>    -7.2827     0.0000    64.0000 </r>
       <r>    -7.2204     0.0000    64.0000 </r>
       <r>    -7.1581     0.0000    64.0000 </r>
       <r>    -7.0958     0.0000    64.0000 </r>
       <r>    -7.0335     0.0000    64.0000 </r>
       <r>    -6.9712     0.0000    64.0000 </r>
       <r>    -6.9089     0.0000    64.0000 </r>
       <r>    -6.8466     0.0000    64.0000 </r>
       <r>    -6.7843     0.0000    64.0000 </r>
       <r>    -6.7219     0.0000    64.0000 </r>
       <r>    -6.6596     0.0000    64.0000 </r>
       <r>    -6.5973     0.0000    64.0000 </r>
       <r>    -6.5350     0.0000    64.0000 </r>
       <r>    -6.4727     0.0000    64.0000 </r>
       <r>    -6.4104     0.0000    64.0000 </r>
       <r>    -6.3481     0.0000    64.0000 </r>
       <r>    -6.2858     0.0000    64.0000 </r>
       <r>    -6.2235     0.0000    64.0000 </r>
       <r>    -6.1612     0.0000    64.0000 </r>
       <r>    -6.0989     0.0000    64.0000 </r>
       <r>    -6.0366     0.0000    64.0000 </r>
       <r>    -5.9743     0.0000    64.0000 </r>
       <r>    -5.9120     0.0000    64.0000 </r>
       <r>    -5.8497     0.0000    64.0000 </r>
       <r>    -5.7874     0.0000    64.0000 </r>
       <r>    -5.7251     0.0000    64.0000 </r>
       <r>    -5.6628     0.0000    64.0000 </r>
       <r>    -5.6005     0.0000    64.0000 </r>
       <r>    -5.5382     0.0000    64.0000 </r>
       <r>    -5.4759     0.0000    64.0000 </r>
       <r>    -5.4136     0.0000    64.0000 </r>
       <r>    -5.3513     0.0000    64.0000 </r>
       <r>    -5.2890     0.0000    64.0000 </r>
       <r>    -5.2267     0.0000    64.0000 </r>
       <r>    -5.1644     0.0000    64.0000 </r>
       <r>    -5.1021     0.0000    64.0000 </r>
       <r>    -5.0398     0.0000    64.0000 </r>
       <r>    -4.9775     0.0000    64.0000 </r>
       <r>    -4.9152     0.0000    64.0000 </r>
       <r>    -4.8529     0.0000    64.0000 </r>
       <r>    -4.7906     0.0000    64.0000 </r>
       <r>    -4.7283     0.0000    64.0000 </r>
       <r>    -4.6660     0.0000    64.0000 </r>
       <r>    -4.6037     0.0000    64.0000 </r>
       <r>    -4.5414     0.0000    64.0000 </r>
       <r>    -4.4791     0.0000    64.0000 </r>
       <r>    -4.4168     0.0000    64.0000 </r>
       <r>    -4.3545     0.0000    64.0000 </r>
       <r>    -4.2922     0.0000    64.0000 </r>
       <r>    -4.2299     2.4649    64.0094 </r>
       <r>    -4.1676    15.0117    64.5161 </r>
       <r>    -4.1053    29.7269    65.6678 </r>
       <r>    -4.0430    70.6057    69.1254 </r>
       <r>    -3.9807    85.1141    73.0391 </r>
       <r>    -3.9184   116.3910    78.3628 </r>
       <r>    -3.8561   108.3654    84.7800 </r>
       <r>    -3.7938    26.8081    88.0649 </r>
       <r>    -3.7315   107.0719    93.0424 </r>
       <r>    -3.6692    18.9009    94.5376 </r>
       <r>    -3.6069    23.1599    95.6579 </r>
       <r>    -3.5446    53.6172    97.7665 </r>
       <r>    -3.4823    29.3900    99.9707 </r>
       <r>    -3.4200    19.6135   101.4351 </r>
       <r>    -3.3577    14.7444   102.3993 </r>
       <r>    -3.2954    33.7154   103.6388 </r>
       <r>    -3.2331    29.4789   106.4360 </r>
       <r>    -3.1708    15.5097   107.3498 </r>
       <r>    -3.1085    11.1600   108.1789 </r>
       <r>    -3.0462     7.5410   108.7352 </r>
       <r>    -2.9839    12.0140   109.3268 </r>
       <r>    -2.9216    12.3515   110.1152 </r>
       <r>    -2.8593    17.5222   111.0912 </r>
       <r>    -2.7970    14.0458   112.0130 </r>
       <r>    -2.7347    13.3751   112.8722 </r>
       <r>    -2.6724    12.8812   113.6806 </r>
       <r>    -2.6101    13.0789   114.4856 </r>
       <r>    -2.5478    12.4821   115.2785 </r>
       <r>    -2.4855     6.2326   115.8455 </r>
       <r>    -2.4232     6.3565   116.2122 </r>
       <r>    -2.3609     7.1234   116.6275 </r>
       <r>    -2.2986     8.1467   117.1019 </r>
       <r>    -2.2363    11.6324   117.6958 </r>
       <r>    -2.1740    10.7388   118.3941 </r>
       <r>    -2.1117     7.0040   119.0056 </r>
       <r>    -2.0494     8.0815   119.4842 </r>
       <r>    -1.9871     6.2312   119.9564 </r>
       <r>    -1.9248     4.8309   120.2290 </r>
       <r>    -1.8625     4.2312   120.5145 </r>
       <r>    -1.8002     3.6790   120.7572 </r>
       <r>    -1.7379     3.7684   120.9869 </r>
       <r>    -1.6756     4.0155   121.2291 </r>
       <r>    -1.6133     7.8244   121.5954 </r>
       <r>    -1.5510     9.7811   122.1867 </r>
       <r>    -1.4887     8.5456   122.7967 </r>
       <r>    -1.4264     7.0693   123.2586 </r>
       <r>    -1.3641     6.9084   123.6734 </r>
       <r>    -1.3018    16.3769   124.2963 </r>
       <r>    -1.2395    28.3317   125.7574 </r>
       <r>    -1.1772    48.9777   128.0861 </r>
       <r>    -1.1149    44.0163   130.9715 </r>
       <r>    -1.0526    46.5656   133.7116 </r>
       <r>    -0.9903    44.7467   136.9919 </r>
       <r>    -0.9280    34.9932   139.5631 </r>
       <r>    -0.8657    55.7734   142.1034 </r>
       <r>    -0.8034    34.7539   144.1846 </r>
       <r>    -0.7411    27.7696   146.2634 </r>
       <r>    -0.6788    33.7591   148.0528 </r>
       <r>    -0.6165    38.2265   149.9858 </r>
       <r>    -0.5542    41.8781   152.5781 </r>
       <r>    -0.4919    40.2298   155.0147 </r>
       <r>    -0.4296    45.8133   157.5881 </r>
       <r>    -0.3672    51.6907   160.6214 </r>
       <r>    -0.3049    48.8709   163.7580 </r>
       <r>    -0.2426    48.1391   166.8575 </r>
       <r>    -0.1803    46.7940   169.7220 </r>
       <r>    -0.1180    47.6910   172.6637 </r>
       <r>    -0.0557    59.6013   176.4370 </r>
       <r>     0.0066    47.6874   179.6849 </r>
       <r>     0.0689    49.6094   183.2084 </r>
       <r>     0.1312    50.1406   186.0887 </r>
       <r>     0.1935    55.0678   189.4805 </r>
       <r>     0.2558    55.2677   192.8211 </r>
       <r>     0.3181    43.8976   195.0392 </r>
       <r>     0.3804    37.5137   197.8942 </r>
       <r>     0.4427    60.9897   201.4229 </r>
       <r>     0.5050    69.5743   204.8886 </r>
       <r>     0.5673    92.3530   208.6440 </r>
       <r>     0.6296    33.9392   211.5053 </r>
       <r>     0.6919    51.4409   214.1782 </r>
       <r>     0.7542    49.6355   217.3384 </r>
       <r>     0.8165    40.8936   220.1704 </r>
       <r>     0.8788    62.7520   222.8563 </r>
       <r>     0.9411    40.0487   225.8468 </r>
       <r>     1.0034    37.3657   228.1133 </r>
       <r>     1.0657    44.8395   230.5206 </r>
       <r>     1.1280    46.4406   233.3574 </r>
       <r>     1.1903    43.2732   236.1255 </r>
       <r>     1.2526    55.1769   239.2423 </r>
       <r>     1.3149    39.8622   242.1534 </r>
       <r>     1.3772    24.2152   244.0468 </r>
       <r>     1.4395    19.8096   245.3334 </r>
       <r>     1.5018    21.1530   246.8156 </r>
       <r>     1.5641    23.0509   248.1600 </r>
       <r>     1.6264    18.1441   249.5367 </r>
       <r>     1.6887    11.6100   250.3783 </r>
       <r>     1.7510    13.5069   251.1100 </r>
       <r>     1.8133    12.1897   251.9575 </r>
       <r>     1.8756    20.1578   253.2293 </r>
       <r>     1.9379     5.9167   253.6847 </r>
       <r>     2.0002    12.0239   254.1721 </r>
       <r>     2.0625    11.4793   255.0335 </r>
       <r>     2.1248     6.1572   255.5922 </r>
       <r>     2.1871     3.6213   255.8336 </r>
       <r>     2.2494     0.5105   255.9940 </r>
       <r>     2.3117     0.0000   256.0000 </r>
       <r>     2.3740     0.0000   256.0000 </r>
       <r>     2.4363     0.0000   256.0000 </r>
       <r>     2.4986     0.0013   256.0000 </r>
       <r>     2.5609     0.0051   256.0002 </r>
       <r>     2.6232     0.0112   256.0007 </r>
       <r>     2.6855     0.0197   256.0017 </r>
       <r>     2.7478     0.0306   256.0032 </r>
       <r>     2.8101     0.0439   256.0055 </r>
       <r>     2.8724     0.0597   256.0087 </r>
       <r>     2.9347     0.0778   256.0130 </r>
       <r>     2.9970     0.0983   256.0185 </r>
       <r>     3.0593     0.1212   256.0253 </r>
       <r>     3.1216     0.1465   256.0336 </r>
       <r>     3.1839     0.1813   256.0437 </r>
       <r>     3.2462     0.5382   256.0614 </r>
       <r>     3.3085     1.3437   256.1202 </r>
       <r>     3.3708     2.1148   256.2281 </r>
       <r>     3.4331     2.8663   256.3830 </r>
       <r>     3.4954     6.3937   256.7247 </r>
       <r>     3.5577     6.9208   257.0904 </r>
       <r>     3.6200     8.5173   257.5880 </r>
       <r>     3.6823     6.8679   258.0314 </r>
       <r>     3.7446     8.4388   258.5214 </r>
       <r>     3.8069    11.1737   259.1409 </r>
       <r>     3.8692    13.6450   259.8917 </r>
       <r>     3.9315    23.6550   261.2823 </r>
       <r>     3.9938    28.2655   262.4960 </r>
       <r>     4.0561    36.9323   264.5763 </r>
       <r>     4.1184    27.2039   266.6505 </r>
       <r>     4.1807    20.0356   267.9117 </r>
       <r>     4.2430    25.9197   269.2706 </r>
       <r>     4.3053    30.1653   271.0279 </r>
       <r>     4.3676    55.0296   273.9176 </r>
       <r>     4.4299    39.1946   276.6649 </r>
       <r>     4.4922    59.8554   279.1185 </r>
       <r>     4.5545    64.5375   282.3688 </r>
       <r>     4.6168    51.3248   285.9844 </r>
       <r>     4.6791    71.7830   289.8888 </r>
       <r>     4.7414    67.5272   294.1213 </r>
       <r>     4.8037    62.4653   298.2590 </r>
       <r>     4.8660    42.6593   301.7925 </r>
       <r>     4.9283    38.4602   304.2547 </r>
       <r>     4.9906    37.1665   306.8159 </r>
       <r>     5.0529    51.9924   309.0202 </r>
       <r>     5.1152    37.2233   311.7047 </r>
       <r>     5.1775    31.0276   313.6408 </r>
       <r>     5.2398    34.5498   315.6453 </r>
       <r>     5.3021    26.1799   317.8641 </r>
       <r>     5.3644    17.3928   318.9998 </r>
       <r>     5.4267    40.2638   320.7075 </r>
       <r>     5.4890    32.4436   322.7643 </r>
       <r>     5.5513    21.3759   324.4767 </r>
       <r>     5.6136    44.8006   326.5874 </r>
       <r>     5.6759    18.4358   327.8763 </r>
       <r>     5.7382    20.1787   329.0844 </r>
       <r>     5.8005    21.1576   330.4032 </r>
       <r>     5.8628    20.3782   331.7161 </r>
       <r>     5.9251    14.8888   332.7274 </r>
       <r>     5.9875    12.2461   333.5721 </r>
       <r>     6.0498    10.1928   334.2658 </r>
       <r>     6.1121     8.4456   334.8332 </r>
       <r>     6.1744     6.7436   335.3356 </r>
       <r>     6.2367     3.4233   335.6008 </r>
       <r>     6.2990     2.3969   335.7706 </r>
       <r>     6.3613     1.2381   335.8596 </r>
       <r>     6.4236     0.8971   335.9259 </r>
       <r>     6.4859     0.5884   335.9954 </r>
       <r>     6.5482     0.0327   335.9987 </r>
       <r>     6.6105     0.0077   335.9998 </r>
       <r>     6.6728     0.0000   336.0000 </r>
       <r>     6.7351     0.0000   336.0000 </r>
       <r>     6.7974     0.0000   336.0000 </r>
       <r>     6.8597     0.0000   336.0000 </r>
       <r>     6.9220     0.0000   336.0000 </r>
       <r>     6.9843     0.0000   336.0000 </r>
       <r>     7.0466     0.0000   336.0000 </r>
       <r>     7.1089     0.0000   336.0000 </r>
       <r>     7.1712     0.0000   336.0000 </r>
       <r>     7.2335     0.0000   336.0000 </r>
       <r>     7.2958     0.0000   336.0000 </r>
       <r>     7.3581     0.0000   336.0000 </r>
       <r>     7.4204     0.0000   336.0000 </r>
       <r>     7.4827     0.0000   336.0000 </r>
       <r>     7.5450     0.0000   336.0000 </r>
       <r>     7.6073     0.0000   336.0000 </r>
       <r>     7.6696     0.0000   336.0000 </r>
      </set>
     </set>
    </array>
   </total>
  </dos>
 </calculation>
 <structure name="finalpos" >
  <crystal>
   <varray name="basis" >
    <v>      11.52679983       0.00000000       0.00000000 </v>
    <v>       0.00000000      11.52679983       0.00000000 </v>
    <v>       0.00000000       0.00000000      11.52679983 </v>
   </varray>
   <i name="volume">   1531.53263219 </i>
   <varray name="rec_basis" >
    <v>       0.08675435       0.00000000       0.00000000 </v>
    <v>       0.00000000       0.08675435       0.00000000 </v>
    <v>       0.00000000       0.00000000       0.08675435 </v>
   </varray>
  </crystal>
  <varray name="positions" >
   <v>       0.00000000       0.00000000       0.00000000 </v>
   <v>       0.00000000       0.00000000       0.50000000 </v>
   <v>       0.00000000       0.50000000       0.00000000 </v>
   <v>       0.00000000       0.50000000       0.50000000 </v>
   <v>       0.50000000       0.00000000       0.00000000 </v>
   <v>       0.50000000       0.00000000       0.50000000 </v>
   <v>       0.50000000       0.50000000       0.00000000 </v>
   <v>       0.50000000       0.50000000       0.50000000 </v>
   <v>       0.25000000       0.25000000       0.00000000 </v>
   <v>       0.25000000       0.25000000       0.50000000 </v>
   <v>       0.25000000       0.75000000       0.00000000 </v>
   <v>       0.25000000       0.75000000       0.50000000 </v>
   <v>       0.75000000       0.25000000       0.00000000 </v>
   <v>       0.75000000       0.25000000       0.50000000 </v>
   <v>       0.75000000       0.75000000       0.00000000 </v>
   <v>       0.75000000       0.75000000       0.50000000 </v>
   <v>       0.25000000       0.00000000       0.25000000 </v>
   <v>       0.25000000       0.00000000       0.75000000 </v>
   <v>       0.25000000       0.50000000       0.25000000 </v>
   <v>       0.25000000       0.50000000       0.75000000 </v>
   <v>       0.75000000       0.00000000       0.25000000 </v>
   <v>       0.75000000       0.00000000       0.75000000 </v>
   <v>       0.75000000       0.50000000       0.25000000 </v>
   <v>       0.75000000       0.50000000       0.75000000 </v>
   <v>       0.00000000       0.25000000       0.25000000 </v>
   <v>       0.00000000       0.25000000       0.75000000 </v>
   <v>       0.00000000       0.75000000       0.25000000 </v>
   <v>       0.00000000       0.75000000       0.75000000 </v>
   <v>       0.50000000       0.25000000       0.25000000 </v>
   <v>       0.50000000       0.25000000       0.75000000 </v>
   <v>       0.50000000       0.75000000       0.25000000 </v>
   <v>       0.50000000       0.75000000       0.75000000 </v>
   <v>       0.12500000       0.12500000       0.12500000 </v>
   <v>       0.12500000       0.12500000       0.62500000 </v>
   <v>       0.12500000       0.62500000       0.12500000 </v>
   <v>       0.12500000       0.62500000       0.62500000 </v>
   <v>       0.62500000       0.12500000       0.12500000 </v>
   <v>       0.62500000       0.12500000       0.62500000 </v>
   <v>       0.62500000       0.62500000       0.12500000 </v>
   <v>       0.62500000       0.62500000       0.62500000 </v>
   <v>       0.37500000       0.12500000       0.37500000 </v>
   <v>       0.37500000       0.12500000       0.87500000 </v>
   <v>       0.37500000       0.62500000       0.37500000 </v>
   <v>       0.37500000       0.62500000       0.87500000 </v>
   <v>       0.87500000       0.12500000       0.37500000 </v>
   <v>       0.87500000       0.12500000       0.87500000 </v>
   <v>       0.87500000       0.62500000       0.37500000 </v>
   <v>       0.87500000       0.62500000       0.87500000 </v>
   <v>       0.37500000       0.37500000       0.12500000 </v>
   <v>       0.37500000       0.37500000       0.62500000 </v>
   <v>       0.37500000       0.87500000       0.12500000 </v>
   <v>       0.37500000       0.87500000       0.62500000 </v>
   <v>       0.87500000       0.37500000       0.12500000 </v>
   <v>       0.87500000       0.37500000       0.62500000 </v>
   <v>       0.87500000       0.87500000       0.12500000 </v>
   <v>       0.87500000       0.87500000       0.62500000 </v>
   <v>       0.12500000       0.37500000       0.37500000 </v>
   <v>       0.12500000       0.37500000       0.87500000 </v>
   <v>       0.12500000       0.87500000       0.37500000 </v>
   <v>       0.12500000       0.87500000       0.87500000 </v>
   <v>       0.62500000       0.37500000       0.37500000 </v>
   <v>       0.62500000       0.37500000       0.87500000 </v>
   <v>       0.62500000       0.87500000       0.37500000 </v>
   <v>       0.62500000       0.87500000       0.87500000 </v>
  </varray>
 </structure>
</modeling>
