  64  64   0   0
  0.2401988E+02  0.1164207E-08  0.1149107E-08  0.1149107E-08  0.1000000E-15
  1.000000000000000E-004
  CAR 
 GaAs                                    
      7.55108019    -11.02456200  301      2.30346127      1.00000000
    -11.025  0.0000E+00  0.0000E+00
    -10.963  0.0000E+00  0.0000E+00
    -10.901  0.0000E+00  0.0000E+00
    -10.839  0.0000E+00  0.0000E+00
    -10.777  0.0000E+00  0.0000E+00
    -10.715  0.0000E+00  0.0000E+00
    -10.653  0.0000E+00  0.0000E+00
    -10.591  0.0000E+00  0.0000E+00
    -10.529  0.0000E+00  0.0000E+00
    -10.467  0.0000E+00  0.0000E+00
    -10.405  0.0000E+00  0.0000E+00
    -10.343  0.0000E+00  0.0000E+00
    -10.282  0.0000E+00  0.0000E+00
    -10.220  0.0000E+00  0.0000E+00
    -10.158  0.0000E+00  0.0000E+00
    -10.096  0.0000E+00  0.0000E+00
    -10.034  0.0000E+00  0.0000E+00
     -9.972  0.3505E-01  0.7534E-03
     -9.910  0.5128E-01  0.3344E-02
     -9.848  0.1091E+00  0.8449E-02
     -9.786  0.7464E-01  0.1351E-01
     -9.724  0.5683E-01  0.1796E-01
     -9.662  0.1136E+00  0.2331E-01
     -9.600  0.1507E+00  0.3024E-01
     -9.539  0.1279E+00  0.3885E-01
     -9.477  0.1217E+00  0.4648E-01
     -9.415  0.1966E+00  0.5630E-01
     -9.353  0.1018E+00  0.6605E-01
     -9.291  0.1538E+00  0.7413E-01
     -9.229  0.1459E+00  0.8337E-01
     -9.167  0.2867E+00  0.9713E-01
     -9.105  0.3342E+00  0.1147E+00
     -9.043  0.1107E+00  0.1272E+00
     -8.981  0.3145E+00  0.1356E+00
     -8.919  0.2371E+00  0.1527E+00
     -8.857  0.1726E+00  0.1643E+00
     -8.795  0.4237E+00  0.1847E+00
     -8.734  0.2892E+00  0.2052E+00
     -8.672  0.3244E+00  0.2239E+00
     -8.610  0.3955E+00  0.2459E+00
     -8.548  0.5357E+00  0.2713E+00
     -8.486  0.6733E+00  0.3073E+00
     -8.424  0.5482E+00  0.3412E+00
     -8.362  0.6479E+00  0.3754E+00
     -8.300  0.4264E+00  0.4058E+00
     -8.238  0.4677E+00  0.4278E+00
     -8.176  0.5131E+00  0.4605E+00
     -8.114  0.7444E+00  0.4993E+00
     -8.052  0.5423E+00  0.5301E+00
     -7.991  0.6744E+00  0.5641E+00
     -7.929  0.7566E+00  0.6119E+00
     -7.867  0.1214E+00  0.6397E+00
     -7.805  0.0000E+00  0.6400E+00
     -7.743  0.0000E+00  0.6400E+00
     -7.681  0.0000E+00  0.6400E+00
     -7.619  0.0000E+00  0.6400E+00
     -7.557  0.0000E+00  0.6400E+00
     -7.495  0.0000E+00  0.6400E+00
     -7.433  0.0000E+00  0.6400E+00
     -7.371  0.0000E+00  0.6400E+00
     -7.309  0.0000E+00  0.6400E+00
     -7.248  0.0000E+00  0.6400E+00
     -7.186  0.0000E+00  0.6400E+00
     -7.124  0.0000E+00  0.6400E+00
     -7.062  0.0000E+00  0.6400E+00
     -7.000  0.0000E+00  0.6400E+00
     -6.938  0.0000E+00  0.6400E+00
     -6.876  0.0000E+00  0.6400E+00
     -6.814  0.0000E+00  0.6400E+00
     -6.752  0.0000E+00  0.6400E+00
     -6.690  0.0000E+00  0.6400E+00
     -6.628  0.0000E+00  0.6400E+00
     -6.566  0.0000E+00  0.6400E+00
     -6.504  0.0000E+00  0.6400E+00
     -6.443  0.0000E+00  0.6400E+00
     -6.381  0.0000E+00  0.6400E+00
     -6.319  0.0000E+00  0.6400E+00
     -6.257  0.0000E+00  0.6400E+00
     -6.195  0.0000E+00  0.6400E+00
     -6.133  0.0000E+00  0.6400E+00
     -6.071  0.0000E+00  0.6400E+00
     -6.009  0.0000E+00  0.6400E+00
     -5.947  0.0000E+00  0.6400E+00
     -5.885  0.0000E+00  0.6400E+00
     -5.823  0.0000E+00  0.6400E+00
     -5.761  0.0000E+00  0.6400E+00
     -5.700  0.0000E+00  0.6400E+00
     -5.638  0.0000E+00  0.6400E+00
     -5.576  0.0000E+00  0.6400E+00
     -5.514  0.0000E+00  0.6400E+00
     -5.452  0.0000E+00  0.6400E+00
     -5.390  0.0000E+00  0.6400E+00
     -5.328  0.0000E+00  0.6400E+00
     -5.266  0.0000E+00  0.6400E+00
     -5.204  0.0000E+00  0.6400E+00
     -5.142  0.0000E+00  0.6400E+00
     -5.080  0.0000E+00  0.6400E+00
     -5.018  0.0000E+00  0.6400E+00
     -4.957  0.0000E+00  0.6400E+00
     -4.895  0.0000E+00  0.6400E+00
     -4.833  0.0000E+00  0.6400E+00
     -4.771  0.0000E+00  0.6400E+00
     -4.709  0.0000E+00  0.6400E+00
     -4.647  0.0000E+00  0.6400E+00
     -4.585  0.0000E+00  0.6400E+00
     -4.523  0.0000E+00  0.6400E+00
     -4.461  0.0000E+00  0.6400E+00
     -4.399  0.0000E+00  0.6400E+00
     -4.337  0.0000E+00  0.6400E+00
     -4.275  0.1501E-01  0.6402E+00
     -4.213  0.7545E-01  0.6426E+00
     -4.152  0.2084E+00  0.6507E+00
     -4.090  0.4815E+00  0.6695E+00
     -4.028  0.7154E+00  0.7097E+00
     -3.966  0.7715E+00  0.7511E+00
     -3.904  0.1079E+01  0.8144E+00
     -3.842  0.7306E+00  0.8649E+00
     -3.780  0.1534E+01  0.9010E+00
     -3.718  0.4501E+00  0.9376E+00
     -3.656  0.1681E+00  0.9504E+00
     -3.594  0.3012E+00  0.9636E+00
     -3.532  0.4375E+00  0.9886E+00
     -3.470  0.2303E+00  0.1007E+01
     -3.409  0.1574E+00  0.1019E+01
     -3.347  0.1735E+00  0.1029E+01
     -3.285  0.5089E+00  0.1048E+01
     -3.223  0.1929E+00  0.1069E+01
     -3.161  0.1422E+00  0.1077E+01
     -3.099  0.8913E-01  0.1085E+01
     -3.037  0.9497E-01  0.1090E+01
     -2.975  0.1275E+00  0.1097E+01
     -2.913  0.1739E+00  0.1105E+01
     -2.851  0.1521E+00  0.1115E+01
     -2.789  0.1375E+00  0.1124E+01
     -2.727  0.1299E+00  0.1132E+01
     -2.666  0.1303E+00  0.1140E+01
     -2.604  0.1207E+00  0.1149E+01
     -2.542  0.9824E-01  0.1156E+01
     -2.480  0.5549E-01  0.1160E+01
     -2.418  0.6985E-01  0.1164E+01
     -2.356  0.7652E-01  0.1168E+01
     -2.294  0.8865E-01  0.1173E+01
     -2.232  0.1149E+00  0.1180E+01
     -2.170  0.1019E+00  0.1187E+01
     -2.108  0.7637E-01  0.1192E+01
     -2.046  0.7738E-01  0.1197E+01
     -1.984  0.5108E-01  0.1201E+01
     -1.922  0.4534E-01  0.1204E+01
     -1.861  0.3903E-01  0.1206E+01
     -1.799  0.3729E-01  0.1209E+01
     -1.737  0.3902E-01  0.1211E+01
     -1.675  0.5544E-01  0.1214E+01
     -1.613  0.9362E-01  0.1218E+01
     -1.551  0.9271E-01  0.1224E+01
     -1.489  0.8017E-01  0.1230E+01
     -1.427  0.6385E-01  0.1234E+01
     -1.365  0.7741E-01  0.1238E+01
     -1.303  0.2020E+00  0.1245E+01
     -1.241  0.2810E+00  0.1262E+01
     -1.179  0.4789E+00  0.1286E+01
     -1.118  0.4664E+00  0.1315E+01
     -1.056  0.4786E+00  0.1341E+01
     -0.994  0.5037E+00  0.1374E+01
     -0.932  0.3858E+00  0.1401E+01
     -0.870  0.3698E+00  0.1424E+01
     -0.808  0.3540E+00  0.1445E+01
     -0.746  0.2774E+00  0.1465E+01
     -0.684  0.3515E+00  0.1483E+01
     -0.622  0.3965E+00  0.1505E+01
     -0.560  0.4354E+00  0.1529E+01
     -0.498  0.4097E+00  0.1553E+01
     -0.436  0.4894E+00  0.1581E+01
     -0.375  0.4846E+00  0.1611E+01
     -0.313  0.5114E+00  0.1642E+01
     -0.251  0.4740E+00  0.1673E+01
     -0.189  0.4438E+00  0.1701E+01
     -0.127  0.5902E+00  0.1731E+01
     -0.065  0.5861E+00  0.1767E+01
     -0.003  0.6079E+00  0.1803E+01
      0.059  0.5611E+00  0.1835E+01
      0.121  0.5664E+00  0.1865E+01
      0.183  0.6450E+00  0.1899E+01
      0.245  0.4031E+00  0.1929E+01
      0.307  0.5067E+00  0.1954E+01
      0.368  0.5391E+00  0.1985E+01
      0.430  0.5954E+00  0.2019E+01
      0.492  0.5893E+00  0.2052E+01
      0.554  0.6155E+00  0.2090E+01
      0.616  0.4304E+00  0.2118E+01
      0.678  0.6175E+00  0.2147E+01
      0.740  0.5122E+00  0.2176E+01
      0.802  0.4371E+00  0.2205E+01
      0.864  0.5550E+00  0.2231E+01
      0.926  0.4391E+00  0.2261E+01
      0.988  0.3647E+00  0.2284E+01
      1.050  0.4282E+00  0.2309E+01
      1.112  0.4511E+00  0.2337E+01
      1.173  0.5297E+00  0.2364E+01
      1.235  0.5121E+00  0.2396E+01
      1.297  0.3625E+00  0.2422E+01
      1.359  0.2476E+00  0.2441E+01
      1.421  0.2137E+00  0.2454E+01
      1.483  0.2119E+00  0.2469E+01
      1.545  0.2281E+00  0.2483E+01
      1.607  0.1902E+00  0.2496E+01
      1.669  0.1116E+00  0.2504E+01
      1.731  0.1187E+00  0.2511E+01
      1.793  0.2071E+00  0.2521E+01
      1.855  0.1221E+00  0.2532E+01
      1.916  0.6668E-01  0.2537E+01
      1.978  0.1432E+00  0.2542E+01
      2.040  0.1079E+00  0.2551E+01
      2.102  0.5382E-01  0.2556E+01
      2.164  0.2935E-01  0.2558E+01
      2.226  0.9573E-02  0.2560E+01
      2.288  0.0000E+00  0.2560E+01
      2.350  0.0000E+00  0.2560E+01
      2.412  0.3975E-05  0.2560E+01
      2.474  0.2881E-04  0.2560E+01
      2.536  0.7641E-04  0.2560E+01
      2.598  0.1468E-03  0.2560E+01
      2.659  0.2399E-03  0.2560E+01
      2.721  0.3558E-03  0.2560E+01
      2.783  0.4945E-03  0.2560E+01
      2.845  0.6559E-03  0.2560E+01
      2.907  0.8401E-03  0.2560E+01
      2.969  0.1047E-02  0.2560E+01
      3.031  0.1277E-02  0.2560E+01
      3.093  0.1529E-02  0.2560E+01
      3.155  0.2013E-02  0.2560E+01
      3.217  0.7234E-02  0.2561E+01
      3.279  0.1508E-01  0.2561E+01
      3.341  0.2246E-01  0.2563E+01
      3.403  0.5580E-01  0.2564E+01
      3.464  0.5535E-01  0.2568E+01
      3.526  0.7415E-01  0.2572E+01
      3.588  0.8471E-01  0.2577E+01
      3.650  0.6956E-01  0.2581E+01
      3.712  0.8602E-01  0.2586E+01
      3.774  0.1162E+00  0.2592E+01
      3.836  0.1827E+00  0.2600E+01
      3.898  0.2095E+00  0.2614E+01
      3.960  0.2958E+00  0.2628E+01
      4.022  0.3520E+00  0.2647E+01
      4.084  0.2533E+00  0.2666E+01
      4.146  0.2245E+00  0.2679E+01
      4.207  0.2652E+00  0.2693E+01
      4.269  0.5111E+00  0.2712E+01
      4.331  0.4290E+00  0.2739E+01
      4.393  0.3610E+00  0.2764E+01
      4.455  0.5590E+00  0.2793E+01
      4.517  0.6172E+00  0.2823E+01
      4.579  0.9226E+00  0.2860E+01
      4.641  0.7078E+00  0.2899E+01
      4.703  0.6384E+00  0.2939E+01
      4.765  0.6956E+00  0.2980E+01
      4.827  0.4377E+00  0.3014E+01
      4.889  0.4437E+00  0.3041E+01
      4.950  0.4035E+00  0.3066E+01
      5.012  0.4102E+00  0.3091E+01
      5.074  0.3651E+00  0.3114E+01
      5.136  0.3197E+00  0.3135E+01
      5.198  0.3324E+00  0.3156E+01
      5.260  0.2635E+00  0.3174E+01
      5.322  0.1916E+00  0.3187E+01
      5.384  0.3761E+00  0.3205E+01
      5.446  0.3293E+00  0.3225E+01
      5.508  0.3255E+00  0.3244E+01
      5.570  0.3814E+00  0.3262E+01
      5.632  0.2193E+00  0.3278E+01
      5.694  0.1854E+00  0.3289E+01
      5.755  0.2140E+00  0.3302E+01
      5.817  0.2028E+00  0.3316E+01
      5.879  0.1542E+00  0.3326E+01
      5.941  0.1263E+00  0.3335E+01
      6.003  0.1028E+00  0.3342E+01
      6.065  0.8970E-01  0.3348E+01
      6.127  0.5690E-01  0.3353E+01
      6.189  0.3780E-01  0.3356E+01
      6.251  0.2246E-01  0.3357E+01
      6.313  0.1572E-01  0.3358E+01
      6.375  0.9446E-02  0.3359E+01
      6.437  0.6336E-02  0.3360E+01
      6.498  0.2662E-02  0.3360E+01
      6.560  0.0000E+00  0.3360E+01
      6.622  0.0000E+00  0.3360E+01
      6.684  0.0000E+00  0.3360E+01
      6.746  0.0000E+00  0.3360E+01
      6.808  0.0000E+00  0.3360E+01
      6.870  0.0000E+00  0.3360E+01
      6.932  0.0000E+00  0.3360E+01
      6.994  0.0000E+00  0.3360E+01
      7.056  0.0000E+00  0.3360E+01
      7.118  0.0000E+00  0.3360E+01
      7.180  0.0000E+00  0.3360E+01
      7.241  0.0000E+00  0.3360E+01
      7.303  0.0000E+00  0.3360E+01
      7.365  0.0000E+00  0.3360E+01
      7.427  0.0000E+00  0.3360E+01
      7.489  0.0000E+00  0.3360E+01
      7.551  0.0000E+00  0.3360E+01
