 vasp.6.4.3 19Mar24 (build Aug 29 2024 15:27:20) complex                        
  
 executed on             LinuxIFC date 2025.03.24  12:04:43
 running    8 mpi-ranks, on    1 nodes
 distrk:  each k-point on    8 cores,    1 groups
 distr:  one band on NCORE=   1 cores,    8 groups


--------------------------------------------------------------------------------------------------------


 INCAR:
   SYSTEM = GaAs
   PREC = Normal
   ENCUT = 400
   ISMEAR = -5
   SIGMA = 0.1
   IBRION = 2
   POTIM = 0.1
   NFREE = 2
   NSW = 100
   ISIF = 2
   LEPSILON = .TRUE.
   LOPTICS = .TRUE.

 POTCAR:    PAW_PBE As 22Sep2009                  
 POTCAR:    PAW_PBE Ga 08Apr2002                  
 -----------------------------------------------------------------------------
|                                                                             |
|           W    W    AA    RRRRR   N    N  II  N    N   GGGG   !!!           |
|           W    W   A  A   R    R  NN   N  II  NN   N  G    G  !!!           |
|           W    W  A    A  R    R  N N  N  II  N N  N  G       !!!           |
|           W WW W  AAAAAA  RRRRR   N  N N  II  N  N N  G  GGG   !            |
|           WW  WW  A    A  R   R   N   NN  II  N   NN  G    G                |
|           W    W  A    A  R    R  N    N  II  N    N   GGGG   !!!           |
|                                                                             |
|     For optimal performance we recommend to set                             |
|       NCORE = 2 up to number-of-cores-per-socket                            |
|     NCORE specifies how many cores store one orbital (NPAR=cpu/NCORE).      |
|     This setting can greatly improve the performance of VASP for DFT.       |
|     The default, NCORE=1 might be grossly inefficient on modern             |
|     multi-core architectures or massively parallel machines. Do your        |
|     own testing! More info at https://www.vasp.at/wiki/index.php/NCORE      |
|     Unfortunately you need to use the default for GW and RPA                |
|     calculations (for HF NCORE is supported but not extensively tested      |
|     yet).                                                                   |
|                                                                             |
 -----------------------------------------------------------------------------

 POTCAR:    PAW_PBE As 22Sep2009                  
   VRHFIN =As: s2p3                                                                                 
   LEXCH  = PE                                                                                      
   EATOM  =   170.1867 eV,   12.5084 Ry                                                             
                                                                                                    
   TITEL  = PAW_PBE As 22Sep2009                                                                    
   LULTRA =        F    use ultrasoft PP ?                                                          
   IUNSCR =        1    unscreen: 0-lin 1-nonlin 2-no                                               
   RPACOR =    1.900    partial core radius                                                         
   POMASS =   74.922; ZVAL   =    5.000    mass and valenz                                          
   RCORE  =    2.100    outmost cutoff radius                                                       
   RWIGS  =    2.300; RWIGS  =    1.217    wigner-seitz radius (au A)                               
   ENMAX  =  208.702; ENMIN  =  156.526 eV                                                          
   ICORE  =        3    local potential                                                             
   LCOR   =        T    correct aug charges                                                         
   LPAW   =        T    paw PP                                                                      
   EAUG   =  462.758                                                                                
   DEXC   =    0.000                                                                                
   RMAX   =    2.144    core radius for proj-oper                                                   
   RAUG   =    1.300    factor for augmentation sphere                                              
   RDEP   =    2.140    radius for radial grids                                                     
   RDEPT  =    1.956    core radius for aug-charge                                                  
                                                                                                    
   Atomic configuration                                                                             
   10 entries                                                                                       
     n  l   j            E        occ.                                                              
     1  0  0.50    -11718.0418   2.0000                                                             
     2  0  0.50     -1486.5454   2.0000                                                             
     2  1  1.50     -1303.3889   6.0000                                                             
     3  0  0.50      -190.2849   2.0000                                                             
     3  1  1.50      -133.6555   6.0000                                                             
     3  2  2.50       -40.6443  10.0000                                                             
     4  0  0.50       -14.4936   2.0000                                                             
     4  1  0.50        -5.1947   3.0000                                                             
     4  2  1.50        -5.4423   0.0000                                                             
     4  3  2.50        -5.4423   0.0000                                                             
   Description                                                                                      
     l       E           TYP  RCUT    TYP  RCUT                                                     
     0    -14.4935570     23  2.100                                                                 
     0    -11.9212055     23  2.100                                                                 
     1     -5.1947127     23  2.100                                                                 
     1     27.2116520     23  2.100                                                                 
     2     -5.4423304     23  2.100                                                                 
     3     -1.3605826      7  2.100                                                                 
  local pseudopotential read in
  partial core-charges read in
  partial kinetic energy density read in
  atomic valenz-charges read in
  non local Contribution for L=           0  read in
    real space projection operators read in
  non local Contribution for L=           0  read in
    real space projection operators read in
  non local Contribution for L=           1  read in
    real space projection operators read in
  non local Contribution for L=           1  read in
    real space projection operators read in
  non local Contribution for L=           2  read in
    real space projection operators read in
    PAW grid and wavefunctions read in
 
   number of l-projection  operators is LMAX  =           5
   number of lm-projection operators is LMMAX =          13
 
 POTCAR:    PAW_PBE Ga 08Apr2002                  
   VRHFIN =Ga: s2p1                                                                                 
   LEXCH  = PE                                                                                      
   EATOM  =    58.8688 eV,    4.3267 Ry                                                             
                                                                                                    
   TITEL  = PAW_PBE Ga 08Apr2002                                                                    
   LULTRA =        F    use ultrasoft PP ?                                                          
   IUNSCR =        1    unscreen: 0-lin 1-nonlin 2-no                                               
   RPACOR =    2.170    partial core radius                                                         
   POMASS =   69.723; ZVAL   =    3.000    mass and valenz                                          
   RCORE  =    2.600    outmost cutoff radius                                                       
   RWIGS  =    2.650; RWIGS  =    1.402    wigner-seitz radius (au A)                               
   ENMAX  =  134.678; ENMIN  =  101.009 eV                                                          
   ICORE  =        3    local potential                                                             
   LCOR   =        T    correct aug charges                                                         
   LPAW   =        T    paw PP                                                                      
   EAUG   =  320.264                                                                                
   DEXC   =    0.000                                                                                
   RMAX   =    2.658    core radius for proj-oper                                                   
   RAUG   =    1.300    factor for augmentation sphere                                              
   RDEP   =    2.684    radius for radial grids                                                     
   RDEPT  =    2.308    core radius for aug-charge                                                  
                                                                                                    
   Atomic configuration                                                                             
   10 entries                                                                                       
     n  l   j            E        occ.                                                              
     1  0  0.50    -10228.7830   2.0000                                                             
     2  0  0.50     -1262.1604   2.0000                                                             
     2  1  1.50     -1098.6333   6.0000                                                             
     3  0  0.50      -148.1110   2.0000                                                             
     3  1  1.50       -98.8436   6.0000                                                             
     3  2  2.50       -19.1549  10.0000                                                             
     4  0  0.50        -8.9483   2.0000                                                             
     4  1  0.50        -2.5791   1.0000                                                             
     4  2  1.50         5.4423   0.0000                                                             
     4  3  2.50        -2.7416   0.0000                                                             
   Description                                                                                      
     l       E           TYP  RCUT    TYP  RCUT                                                     
     0     -8.9483097     23  2.600                                                                 
     0     -5.8232215     23  2.600                                                                 
     1     -2.5790793     23  2.600                                                                 
     1      5.2230115     23  2.600                                                                 
     2      1.3605826     23  2.600                                                                 
     3     -1.3605826      7  2.600                                                                 
  local pseudopotential read in
  partial core-charges read in
  partial kinetic energy density read in
  atomic valenz-charges read in
  non local Contribution for L=           0  read in
    real space projection operators read in
  non local Contribution for L=           0  read in
    real space projection operators read in
  non local Contribution for L=           1  read in
    real space projection operators read in
  non local Contribution for L=           1  read in
    real space projection operators read in
  non local Contribution for L=           2  read in
    real space projection operators read in
    PAW grid and wavefunctions read in
 
   number of l-projection  operators is LMAX  =           5
   number of lm-projection operators is LMMAX =          13
 
 -----------------------------------------------------------------------------
|                                                                             |
|               ----> ADVICE to this user running VASP <----                  |
|                                                                             |
|     You have a (more or less) 'large supercell' and for larger cells it     |
|     might be more efficient to use real-space projection operators.         |
|     Therefore, try LREAL= Auto in the INCAR file.                           |
|     Mind: For very accurate calculation, you might also keep the            |
|     reciprocal projection scheme (i.e. LREAL=.FALSE.).                      |
|                                                                             |
 -----------------------------------------------------------------------------

  PAW_PBE As 22Sep2009                  :
 energy of atom  1       EATOM= -170.1867
 kinetic energy error for atom=    0.0013 (will be added to EATOM!!)
  PAW_PBE Ga 08Apr2002                  :
 energy of atom  2       EATOM=  -58.8688
 kinetic energy error for atom=    0.0001 (will be added to EATOM!!)
 
 
 POSCAR: cubic gallium arsenide
  positions in direct lattice
  velocities in cartesian coordinates


 exchange-correlation table for PE
   RHO(1)=    0.500       N(1)  =     2000
   RHO(2)=  100.500       N(2)  =     4000
 


--------------------------------------------------------------------------------------------------------


 ion  position               nearest neighbor table
   1  0.000  0.000  0.000-  33 2.50  46 2.50  55 2.50  60 2.50
   2  0.000  0.000  0.500-  34 2.50  45 2.50  56 2.50  59 2.50
   3  0.000  0.500  0.000-  35 2.50  48 2.50  53 2.50  58 2.50
   4  0.000  0.500  0.500-  36 2.50  47 2.50  54 2.50  57 2.50
   5  0.500  0.000  0.000-  37 2.50  42 2.50  51 2.50  64 2.50
   6  0.500  0.000  0.500-  38 2.50  41 2.50  52 2.50  63 2.50
   7  0.500  0.500  0.000-  39 2.50  44 2.50  49 2.50  62 2.50
   8  0.500  0.500  0.500-  40 2.50  43 2.50  50 2.50  61 2.50
   9  0.250  0.250  0.000-  33 2.50  42 2.50  49 2.50  58 2.50
  10  0.250  0.250  0.500-  34 2.50  41 2.50  50 2.50  57 2.50
  11  0.250  0.750  0.000-  35 2.50  44 2.50  51 2.50  60 2.50
  12  0.250  0.750  0.500-  36 2.50  43 2.50  52 2.50  59 2.50
  13  0.750  0.250  0.000-  37 2.50  46 2.50  53 2.50  62 2.50
  14  0.750  0.250  0.500-  38 2.50  45 2.50  54 2.50  61 2.50
  15  0.750  0.750  0.000-  39 2.50  48 2.50  55 2.50  64 2.50
  16  0.750  0.750  0.500-  40 2.50  47 2.50  56 2.50  63 2.50
  17  0.250  0.000  0.250-  33 2.50  41 2.50  51 2.50  59 2.50
  18  0.250  0.000  0.750-  34 2.50  42 2.50  52 2.50  60 2.50
  19  0.250  0.500  0.250-  35 2.50  43 2.50  49 2.50  57 2.50
  20  0.250  0.500  0.750-  36 2.50  44 2.50  50 2.50  58 2.50
  21  0.750  0.000  0.250-  37 2.50  45 2.50  55 2.50  63 2.50
  22  0.750  0.000  0.750-  38 2.50  46 2.50  56 2.50  64 2.50
  23  0.750  0.500  0.250-  39 2.50  47 2.50  53 2.50  61 2.50
  24  0.750  0.500  0.750-  40 2.50  48 2.50  54 2.50  62 2.50
  25  0.000  0.250  0.250-  33 2.50  45 2.50  53 2.50  57 2.50
  26  0.000  0.250  0.750-  34 2.50  46 2.50  54 2.50  58 2.50
  27  0.000  0.750  0.250-  35 2.50  47 2.50  55 2.50  59 2.50
  28  0.000  0.750  0.750-  36 2.50  48 2.50  56 2.50  60 2.50
  29  0.500  0.250  0.250-  37 2.50  41 2.50  49 2.50  61 2.50
  30  0.500  0.250  0.750-  38 2.50  42 2.50  50 2.50  62 2.50
  31  0.500  0.750  0.250-  39 2.50  43 2.50  51 2.50  63 2.50
  32  0.500  0.750  0.750-  40 2.50  44 2.50  52 2.50  64 2.50
  33  0.125  0.125  0.125-   1 2.50   9 2.50  17 2.50  25 2.50
  34  0.125  0.125  0.625-   2 2.50  10 2.50  18 2.50  26 2.50
  35  0.125  0.625  0.125-   3 2.50  11 2.50  19 2.50  27 2.50
  36  0.125  0.625  0.625-   4 2.50  12 2.50  20 2.50  28 2.50
  37  0.625  0.125  0.125-   5 2.50  13 2.50  21 2.50  29 2.50
  38  0.625  0.125  0.625-   6 2.50  14 2.50  22 2.50  30 2.50
  39  0.625  0.625  0.125-   7 2.50  15 2.50  23 2.50  31 2.50
  40  0.625  0.625  0.625-   8 2.50  16 2.50  24 2.50  32 2.50
  41  0.375  0.125  0.375-   6 2.50  10 2.50  17 2.50  29 2.50
  42  0.375  0.125  0.875-   5 2.50   9 2.50  18 2.50  30 2.50
  43  0.375  0.625  0.375-   8 2.50  12 2.50  19 2.50  31 2.50
  44  0.375  0.625  0.875-   7 2.50  11 2.50  20 2.50  32 2.50
  45  0.875  0.125  0.375-   2 2.50  14 2.50  21 2.50  25 2.50
  46  0.875  0.125  0.875-   1 2.50  13 2.50  22 2.50  26 2.50
  47  0.875  0.625  0.375-   4 2.50  16 2.50  23 2.50  27 2.50
  48  0.875  0.625  0.875-   3 2.50  15 2.50  24 2.50  28 2.50
  49  0.375  0.375  0.125-   7 2.50   9 2.50  19 2.50  29 2.50
  50  0.375  0.375  0.625-   8 2.50  10 2.50  20 2.50  30 2.50
  51  0.375  0.875  0.125-   5 2.50  11 2.50  17 2.50  31 2.50
  52  0.375  0.875  0.625-   6 2.50  12 2.50  18 2.50  32 2.50
  53  0.875  0.375  0.125-   3 2.50  13 2.50  23 2.50  25 2.50
  54  0.875  0.375  0.625-   4 2.50  14 2.50  24 2.50  26 2.50
  55  0.875  0.875  0.125-   1 2.50  15 2.50  21 2.50  27 2.50
  56  0.875  0.875  0.625-   2 2.50  16 2.50  22 2.50  28 2.50
  57  0.125  0.375  0.375-   4 2.50  10 2.50  19 2.50  25 2.50
  58  0.125  0.375  0.875-   3 2.50   9 2.50  20 2.50  26 2.50
  59  0.125  0.875  0.375-   2 2.50  12 2.50  17 2.50  27 2.50
  60  0.125  0.875  0.875-   1 2.50  11 2.50  18 2.50  28 2.50
  61  0.625  0.375  0.375-   8 2.50  14 2.50  23 2.50  29 2.50
  62  0.625  0.375  0.875-   7 2.50  13 2.50  24 2.50  30 2.50
  63  0.625  0.875  0.375-   6 2.50  16 2.50  21 2.50  31 2.50
  64  0.625  0.875  0.875-   5 2.50  15 2.50  22 2.50  32 2.50
 
  LATTYP: Found a simple tetragonal cell.
 ALAT       =    11.4910667541
 C/A-ratio  =     1.0131407363
  
  Lattice vectors:
  
 A1 = (   0.0000000000,  11.4910667541,   0.0000000000)
 A2 = (   0.0000000000,   0.0000000000,  11.4910667541)
 A3 = (  11.6420678319,   0.0000000000,   0.0000000000)


Analysis of symmetry for initial positions (statically):
=====================================================================
 Subroutine PRICEL returns following result:
 
  LATTYP: Found a body centered tetragonal cell.
 ALAT       =     4.0627056124
 C/A-ratio  =     1.4327973698
  
  Lattice vectors:
  
 A1 = (   2.9105169580,   0.0000000000,   2.8727666885)
 A2 = (   2.9105169580,   0.0000000000,  -2.8727666885)
 A3 = (  -2.9105169580,   2.8727666885,   0.0000000000)
 
  32 primitive cells build up your supercell.
 

 Routine SETGRP: Setting up the symmetry group for a 
 simple tetragonal supercell.


 Subroutine GETGRP returns: Found  8 space group operations
 (whereof  8 operations were pure point group operations)
 out of a pool of 16 trial point group operations.


The static configuration has the point symmetry D_2d.


Analysis of symmetry for dynamics (positions and initial velocities):
=====================================================================
 Subroutine PRICEL returns following result:
 
  LATTYP: Found a body centered tetragonal cell.
 ALAT       =     4.0627056124
 C/A-ratio  =     1.4327973698
  
  Lattice vectors:
  
 A1 = (   2.9105169580,   0.0000000000,   2.8727666885)
 A2 = (   2.9105169580,   0.0000000000,  -2.8727666885)
 A3 = (  -2.9105169580,   2.8727666885,   0.0000000000)
 
  32 primitive cells build up your supercell.
 

 Routine SETGRP: Setting up the symmetry group for a 
 simple tetragonal supercell.


 Subroutine GETGRP returns: Found  8 space group operations
 (whereof  8 operations were pure point group operations)
 out of a pool of 16 trial point group operations.


The dynamic configuration has the point symmetry D_2d.


 Subroutine INISYM returns: Found  8 space group operations
 (whereof  8 operations are pure point group operations),
 and found    32 'primitive' translations


----------------------------------------------------------------------------------------

                                     Primitive cell                                     

  volume of cell :      48.0398

  direct lattice vectors                    reciprocal lattice vectors
     2.910516958  0.000000000  2.872766689     0.171790787  0.174048245  0.174048245
     2.910516958  0.000000000 -2.872766689     0.171790787  0.174048245 -0.174048245
    -2.910516958  2.872766689  0.000000000     0.000000000  0.348096490  0.000000000

  length of vectors
     4.089486204  4.089486204  4.089486204     0.300162719  0.300162719  0.348096490

  position of ions in fractional coordinates (direct lattice)
     0.000000000  0.000000000  0.000000000
     0.750000000  0.250000000  0.500000000

  ion indices of the primitive-cell ions
   primitive index   ion index
                 1           1
                 2          33

----------------------------------------------------------------------------------------

 
 
 KPOINTS: Automatic mesh                          

Automatic generation of k-mesh.
 Grid dimensions read from file:
 generate k-points for:    5    5    5

 Generating k-lattice:

  Cartesian coordinates                     Fractional coordinates (reciprocal lattice)
     0.017179079  0.000000000  0.000000000     0.200000000  0.000000000  0.000000000
     0.000000000  0.017404824  0.000000000     0.000000000  0.200000000  0.000000000
     0.000000000  0.000000000  0.017404824     0.000000000  0.000000000  0.200000000

  Length of vectors
     0.017179079  0.017404824  0.017404824

  Shift w.r.t. Gamma in fractional coordinates (k-lattice)
     0.000000000  0.000000000  0.000000000

 TETIRR: Found    177 inequivalent tetrahedra from      750
 
 Subroutine IBZKPT returns following result:
 ===========================================
 
 Found     18 irreducible k-points:
 
 Following reciprocal coordinates:
            Coordinates               Weight
  0.000000  0.000000  0.000000      1.000000
  0.200000  0.000000  0.000000      2.000000
  0.400000  0.000000  0.000000      2.000000
  0.000000  0.200000  0.000000      4.000000
  0.200000  0.200000  0.000000      8.000000
  0.400000  0.200000  0.000000      8.000000
  0.000000  0.400000  0.000000      4.000000
  0.200000  0.400000  0.000000      8.000000
  0.400000  0.400000  0.000000      8.000000
  0.000000  0.200000  0.200000      4.000000
  0.200000  0.200000  0.200000      8.000000
  0.400000  0.200000  0.200000      8.000000
  0.000000  0.400000  0.200000      8.000000
  0.200000  0.400000  0.200000     16.000000
  0.400000  0.400000  0.200000     16.000000
  0.000000  0.400000  0.400000      4.000000
  0.200000  0.400000  0.400000      8.000000
  0.400000  0.400000  0.400000      8.000000
 
 Following cartesian coordinates:
            Coordinates               Weight
  0.000000  0.000000  0.000000      1.000000
  0.017179  0.000000  0.000000      2.000000
  0.034358  0.000000  0.000000      2.000000
  0.000000  0.017405  0.000000      4.000000
  0.017179  0.017405  0.000000      8.000000
  0.034358  0.017405  0.000000      8.000000
  0.000000  0.034810  0.000000      4.000000
  0.017179  0.034810  0.000000      8.000000
  0.034358  0.034810  0.000000      8.000000
  0.000000  0.017405  0.017405      4.000000
  0.017179  0.017405  0.017405      8.000000
  0.034358  0.017405  0.017405      8.000000
  0.000000  0.034810  0.017405      8.000000
  0.017179  0.034810  0.017405     16.000000
  0.034358  0.034810  0.017405     16.000000
  0.000000  0.034810  0.034810      4.000000
  0.017179  0.034810  0.034810      8.000000
  0.034358  0.034810  0.034810      8.000000
 
 
 Subroutine IBZKPT_HF returns following result:
 ==============================================
 
 Found    125 k-points in 1st BZ
 the following    125 k-points will be used (e.g. in the exchange kernel)
 Following reciprocal coordinates:   # in IRBZ
  0.000000  0.000000  0.000000    0.00800000   1 t-inv F
  0.200000  0.000000  0.000000    0.00800000   2 t-inv F
  0.400000  0.000000  0.000000    0.00800000   3 t-inv F
  0.000000  0.200000  0.000000    0.00800000   4 t-inv F
  0.200000  0.200000  0.000000    0.00800000   5 t-inv F
  0.400000  0.200000  0.000000    0.00800000   6 t-inv F
  0.000000  0.400000  0.000000    0.00800000   7 t-inv F
  0.200000  0.400000  0.000000    0.00800000   8 t-inv F
  0.400000  0.400000  0.000000    0.00800000   9 t-inv F
  0.000000  0.200000  0.200000    0.00800000  10 t-inv F
  0.200000  0.200000  0.200000    0.00800000  11 t-inv F
  0.400000  0.200000  0.200000    0.00800000  12 t-inv F
  0.000000  0.400000  0.200000    0.00800000  13 t-inv F
  0.200000  0.400000  0.200000    0.00800000  14 t-inv F
  0.400000  0.400000  0.200000    0.00800000  15 t-inv F
  0.000000  0.400000  0.400000    0.00800000  16 t-inv F
  0.200000  0.400000  0.400000    0.00800000  17 t-inv F
  0.400000  0.400000  0.400000    0.00800000  18 t-inv F
 -0.200000  0.000000  0.000000    0.00800000   2 t-inv F
 -0.400000  0.000000  0.000000    0.00800000   3 t-inv F
  0.000000  0.000000 -0.200000    0.00800000   4 t-inv F
  0.000000 -0.200000  0.000000    0.00800000   4 t-inv F
  0.000000  0.000000  0.200000    0.00800000   4 t-inv F
 -0.200000  0.000000 -0.200000    0.00800000   5 t-inv F
  0.200000 -0.200000  0.000000    0.00800000   5 t-inv F
 -0.200000  0.000000  0.200000    0.00800000   5 t-inv F
 -0.200000 -0.200000  0.000000    0.00800000   5 t-inv F
  0.200000  0.000000 -0.200000    0.00800000   5 t-inv F
 -0.200000  0.200000  0.000000    0.00800000   5 t-inv F
  0.200000  0.000000  0.200000    0.00800000   5 t-inv F
 -0.400000  0.000000 -0.200000    0.00800000   6 t-inv F
  0.400000 -0.200000  0.000000    0.00800000   6 t-inv F
 -0.400000  0.000000  0.200000    0.00800000   6 t-inv F
 -0.400000 -0.200000  0.000000    0.00800000   6 t-inv F
  0.400000  0.000000 -0.200000    0.00800000   6 t-inv F
 -0.400000  0.200000  0.000000    0.00800000   6 t-inv F
  0.400000  0.000000  0.200000    0.00800000   6 t-inv F
  0.000000  0.000000 -0.400000    0.00800000   7 t-inv F
  0.000000 -0.400000  0.000000    0.00800000   7 t-inv F
  0.000000  0.000000  0.400000    0.00800000   7 t-inv F
 -0.200000  0.000000 -0.400000    0.00800000   8 t-inv F
  0.200000 -0.400000  0.000000    0.00800000   8 t-inv F
 -0.200000  0.000000  0.400000    0.00800000   8 t-inv F
 -0.200000 -0.400000  0.000000    0.00800000   8 t-inv F
  0.200000  0.000000 -0.400000    0.00800000   8 t-inv F
 -0.200000  0.400000  0.000000    0.00800000   8 t-inv F
  0.200000  0.000000  0.400000    0.00800000   8 t-inv F
 -0.400000  0.000000 -0.400000    0.00800000   9 t-inv F
  0.400000 -0.400000  0.000000    0.00800000   9 t-inv F
 -0.400000  0.000000  0.400000    0.00800000   9 t-inv F
 -0.400000 -0.400000  0.000000    0.00800000   9 t-inv F
  0.400000  0.000000 -0.400000    0.00800000   9 t-inv F
 -0.400000  0.400000  0.000000    0.00800000   9 t-inv F
  0.400000  0.000000  0.400000    0.00800000   9 t-inv F
  0.000000  0.200000 -0.200000    0.00800000  10 t-inv F
  0.000000 -0.200000 -0.200000    0.00800000  10 t-inv F
  0.000000 -0.200000  0.200000    0.00800000  10 t-inv F
 -0.200000  0.200000 -0.200000    0.00800000  11 t-inv F
  0.200000 -0.200000 -0.200000    0.00800000  11 t-inv F
 -0.200000 -0.200000  0.200000    0.00800000  11 t-inv F
 -0.400000  0.200000 -0.200000    0.00800000  12 t-inv F
  0.400000 -0.200000 -0.200000    0.00800000  12 t-inv F
 -0.400000 -0.200000  0.200000    0.00800000  12 t-inv F
  0.000000  0.200000 -0.400000    0.00800000  13 t-inv F
  0.000000 -0.400000 -0.200000    0.00800000  13 t-inv F
  0.000000 -0.200000  0.400000    0.00800000  13 t-inv F
  0.000000 -0.400000  0.200000    0.00800000  13 t-inv F
  0.000000 -0.200000 -0.400000    0.00800000  13 t-inv F
  0.000000  0.400000 -0.200000    0.00800000  13 t-inv F
  0.000000  0.200000  0.400000    0.00800000  13 t-inv F
 -0.200000  0.200000 -0.400000    0.00800000  14 t-inv F
  0.200000 -0.400000 -0.200000    0.00800000  14 t-inv F
 -0.200000 -0.200000  0.400000    0.00800000  14 t-inv F
 -0.200000 -0.400000  0.200000    0.00800000  14 t-inv F
  0.200000 -0.200000 -0.400000    0.00800000  14 t-inv F
 -0.200000  0.400000 -0.200000    0.00800000  14 t-inv F
  0.200000  0.200000  0.400000    0.00800000  14 t-inv F
 -0.400000  0.200000 -0.400000    0.00800000  15 t-inv F
  0.400000 -0.400000 -0.200000    0.00800000  15 t-inv F
 -0.400000 -0.200000  0.400000    0.00800000  15 t-inv F
 -0.400000 -0.400000  0.200000    0.00800000  15 t-inv F
  0.400000 -0.200000 -0.400000    0.00800000  15 t-inv F
 -0.400000  0.400000 -0.200000    0.00800000  15 t-inv F
  0.400000  0.200000  0.400000    0.00800000  15 t-inv F
  0.000000  0.400000 -0.400000    0.00800000  16 t-inv F
  0.000000 -0.400000 -0.400000    0.00800000  16 t-inv F
  0.000000 -0.400000  0.400000    0.00800000  16 t-inv F
 -0.200000  0.400000 -0.400000    0.00800000  17 t-inv F
  0.200000 -0.400000 -0.400000    0.00800000  17 t-inv F
 -0.200000 -0.400000  0.400000    0.00800000  17 t-inv F
 -0.400000  0.400000 -0.400000    0.00800000  18 t-inv F
  0.400000 -0.400000 -0.400000    0.00800000  18 t-inv F
 -0.400000 -0.400000  0.400000    0.00800000  18 t-inv F
 -0.200000 -0.200000 -0.200000    0.00800000  11 t-inv T
  0.200000 -0.200000  0.200000    0.00800000  11 t-inv T
 -0.200000  0.200000  0.200000    0.00800000  11 t-inv T
  0.200000  0.200000 -0.200000    0.00800000  11 t-inv T
 -0.400000 -0.200000 -0.200000    0.00800000  12 t-inv T
  0.400000 -0.200000  0.200000    0.00800000  12 t-inv T
 -0.400000  0.200000  0.200000    0.00800000  12 t-inv T
  0.400000  0.200000 -0.200000    0.00800000  12 t-inv T
 -0.200000 -0.400000 -0.200000    0.00800000  14 t-inv T
  0.200000 -0.200000  0.400000    0.00800000  14 t-inv T
 -0.200000  0.400000  0.200000    0.00800000  14 t-inv T
  0.200000  0.200000 -0.400000    0.00800000  14 t-inv T
  0.200000  0.400000 -0.200000    0.00800000  14 t-inv T
 -0.200000  0.200000  0.400000    0.00800000  14 t-inv T
  0.200000 -0.400000  0.200000    0.00800000  14 t-inv T
 -0.200000 -0.200000 -0.400000    0.00800000  14 t-inv T
 -0.400000 -0.400000 -0.200000    0.00800000  15 t-inv T
  0.400000 -0.200000  0.400000    0.00800000  15 t-inv T
 -0.400000  0.400000  0.200000    0.00800000  15 t-inv T
  0.400000  0.200000 -0.400000    0.00800000  15 t-inv T
  0.400000  0.400000 -0.200000    0.00800000  15 t-inv T
 -0.400000  0.200000  0.400000    0.00800000  15 t-inv T
  0.400000 -0.400000  0.200000    0.00800000  15 t-inv T
 -0.400000 -0.200000 -0.400000    0.00800000  15 t-inv T
 -0.200000 -0.400000 -0.400000    0.00800000  17 t-inv T
  0.200000 -0.400000  0.400000    0.00800000  17 t-inv T
 -0.200000  0.400000  0.400000    0.00800000  17 t-inv T
  0.200000  0.400000 -0.400000    0.00800000  17 t-inv T
 -0.400000 -0.400000 -0.400000    0.00800000  18 t-inv T
  0.400000 -0.400000  0.400000    0.00800000  18 t-inv T
 -0.400000  0.400000  0.400000    0.00800000  18 t-inv T
  0.400000  0.400000 -0.400000    0.00800000  18 t-inv T


--------------------------------------------------------------------------------------------------------




 Dimension of arrays:
   k-points           NKPTS =     18   k-points in BZ     NKDIM =     18   number of bands    NBANDS=    168
   number of dos      NEDOS =    301   number of ions     NIONS =     64
   non local maximal  LDIM  =      5   non local SUM 2l+1 LMDIM =     13
   total plane-waves  NPLWV = 188160
   max r-space proj   IRMAX =      1   max aug-charges    IRDMAX=   8995
   dimension x,y,z NGX =    60 NGY =   56 NGZ =   56
   dimension x,y,z NGXF=   120 NGYF=  112 NGZF=  112
   support grid    NGXF=   120 NGYF=  112 NGZF=  112
   ions per type =              32  32
   NGX,Y,Z   is equivalent  to a cutoff of   8.57,  8.10,  8.10 a.u.
   NGXF,Y,Z  is equivalent  to a cutoff of  17.14, 16.20, 16.20 a.u.

 SYSTEM =  GaAs                                    
 POSCAR =  cubic gallium arsenide                  

 Startparameter for this run:
   NWRITE =      2    write-flag & timer
   PREC   = normal    normal or accurate (medium, high low for compatibility)
   ISTART =      0    job   : 0-new  1-cont  2-samecut
   ICHARG =      2    charge: 1-file 2-atom 10-const
   ISPIN  =      1    spin polarized calculation?
   LNONCOLLINEAR =      F non collinear calculations
   LSORBIT =      F    spin-orbit coupling
   INIWAV =      1    electr: 0-lowe 1-rand  2-diag
   LASPH  =      F    aspherical Exc in radial PAW
 Electronic Relaxation 1
   ENCUT  =  400.0 eV  29.40 Ry    5.42 a.u.  18.99 18.74 18.74*2*pi/ulx,y,z
   ENINI  =  400.0     initial cutoff
   ENAUG  =  462.8 eV  augmentation charge cutoff
   NELM   =     60;   NELMIN=  2; NELMDL= -5     # of ELM steps 
   EDIFF  = 0.1E-05   stopping-criterion for ELM
   LREAL  =      F    real-space projection
   NLSPLINE    = F    spline interpolate recip. space projectors
   LCOMPAT=      F    compatible to vasp.4.4
   GGA_COMPAT  = T    GGA compatible to vasp.4.4-vasp.4.6
   LMAXPAW     = -100 max onsite density
   LMAXMIX     =    2 max onsite mixed and CHGCAR
   VOSKOWN=      0    Vosko Wilk Nusair interpolation
   ROPT   =    0.00000   0.00000
 Ionic relaxation
   EDIFFG = 0.1E-02   stopping-criterion for IOM
   NSW    =    100    number of steps for IOM
   NBLOCK =      1;   KBLOCK =    100    inner block; outer block 
   IBRION =      2    ionic relax: 0-MD 1-quasi-New 2-CG
   NFREE  =      2    steps in history (QN), initial steepest desc. (CG)
   ISIF   =      2    stress and relaxation
   IWAVPR =     11    prediction:  0-non 1-charg 2-wave 3-comb
   ISYM   =      2    0-nonsym 1-usesym 2-fastsym
   LCORR  =      T    Harris-Foulkes like correction to forces

   POTIM  = 0.1000    time-step for ionic-motion
   TEIN   =    0.0    initial temperature
   TEBEG  =    0.0;   TEEND  =   0.0 temperature during run
   SMASS  =  -3.00    Nose mass-parameter (am)
   estimated Nose-frequenzy (Omega)   =  0.10E-29 period in steps = 0.63E+47 mass=  -0.310E-26a.u.
   SCALEE = 1.0000    scale energy and forces
   NPACO  =    256;   APACO  = 10.0  distance and # of slots for P.C.
   PSTRESS=    0.0 pullay stress

  Mass of Ions in am
   POMASS =  74.92 69.72
  Ionic Valenz
   ZVAL   =   5.00  3.00
  Atomic Wigner-Seitz radii
   RWIGS  =  -1.00 -1.00
  virtual crystal weights 
   VCA    =   1.00  1.00
   NELECT =     256.0000    total number of electrons
   NUPDOWN=      -1.0000    fix difference up-down

 DOS related values:
   EMIN   =  10.00;   EMAX   =-10.00  energy-range for DOS
   EFERMI =   0.00;   METHOD = LEGACY      
   ISMEAR =    -5;   SIGMA  =   0.10  broadening in eV -4-tet -1-fermi 0-gaus

 Electronic relaxation 2 (details)
   IALGO  =     38    algorithm
   LDIAG  =      T    sub-space diagonalisation (order eigenvalues)
   LSUBROT=      F    optimize rotation matrix (better conditioning)
   TURBO    =      0    0=normal 1=particle mesh
   IRESTART =      0    0=no restart 2=restart with 2 vectors
   NREBOOT  =      0    no. of reboots
   NMIN     =      0    reboot dimension
   EREF     =   0.00    reference energy to select bands
   IMIX   =      4    mixing-type and parameters
     AMIX     =   0.40;   BMIX     =  1.00
     AMIX_MAG =   1.60;   BMIX_MAG =  1.00
     AMIN     =   0.10
     WC   =   100.;   INIMIX=   1;  MIXPRE=   1;  MAXMIX= -45

 Intra band minimization:
   WEIMIN = 0.0010     energy-eigenvalue tresh-hold
   EBREAK =  0.15E-08  absolut break condition
   DEPER  =   0.30     relativ break condition  

   TIME   =   0.40     timestep for ELM

  volume/ion in A,a.u.               =      24.02       162.09
  Fermi-wavevector in a.u.,A,eV,Ry     =   0.900681  1.702041 11.037414  0.811227
  Thomas-Fermi vector in A             =   2.023669
 
 Write flags
   LWAVE        =      T    write WAVECAR
   LDOWNSAMPLE  =      F    k-point downsampling of WAVECAR
   LCHARG       =      T    write CHGCAR
   LVTOT        =      F    write LOCPOT, total local potential
   LVHAR        =      F    write LOCPOT, Hartree potential only
   WRT_POTENTIAL= false  ! write potential to hdf5 file
   LELF         =      F    write electronic localiz. function (ELF)
   LORBIT       =      0    0 simple, 1 ext, 2 COOP (PROOUT), +10 PAW based schemes


 Dipole corrections
   LMONO      =      F    monopole corrections only (constant potential shift)
   LDIPOL     =      F    correct potential (dipole corrections)
   IDIPOL     =      0    1-x, 2-y, 3-z, 4-all directions 
   EPSILON    =  1.0000000 bulk dielectric constant
   LVACPOTAV  =      F  vacuum potentials using an averaging scheme for the charge density
   VACPOTFLAT =  0.1000000 required flatness to determine vacuum potential
 Exchange correlation treatment:
   GGA     = PE    functional components
   XC_C    = 1    coefficients multiplying the functional components
   LIBXC   =     F    Libxc                    
   VOSKOWN =     0    Vosko Wilk Nusair interpolation
   LHFCALC =     F    Hartree Fock is set to
   LHFONE  =     F    Hartree Fock one center treatment
   AEXX    =    0.0000 exact exchange contribution

 Parameters of functionals:
   PE:
     No parameter
 
 Van der Waals corrections
   IVDW    =     0    specifies the selected vdW correction

 Linear response parameters
   LEPSILON=     T    determine dielectric tensor
   LRPA    =     F    only Hartree local field effects (RPA)
   LNABLA  =     F    use nabla operator in PAW spheres
   LVEL    =     F    velocity operator in full k-point grid
   CSHIFT  =0.1000    complex shift for real part using Kramers Kronig
   OMEGAMAX=  -1.0    maximum frequency
   DEG_THRESHOLD= 0.2000000E-02 threshold for treating states as degnerate
   RTIME   =   -0.100 relaxation time in fs
  (WPLASMAI=    0.000 imaginary part of plasma frequency in eV, 0.658/RTIME)
   DFIELD  = 0.0000000 0.0000000 0.0000000 field for delta impulse in time
 
  Optional k-point grid parameters
   LKPOINTS_OPT  =     F    use optional k-point grid
   KPOINTS_OPT_MODE=     1    mode for optional k-point grid
 
 Orbital magnetization related:
   ORBITALMAG=     F  switch on orbital magnetization
   LCHIMAG   =     F  perturbation theory with respect to B field
   DQ        =  0.001000  dq finite difference perturbation B field
   LLRAUG    =     F  two centre corrections for induced B field
   LBONE     =     F  B-component reconstruction in AE one-centre
   LVGVCALC  =     T  calculate vGv susceptibility
   LVGVAPPL  =     F  apply vGv susceptibility instead of pGv for G=0

 Random number generation:
   RANDOM_GENERATOR = DEFAULT
   PCG_SEED         = not used


--------------------------------------------------------------------------------------------------------


 conjugate gradient relaxation of ions
 charge density and potential will be updated during run
 non-spin polarized calculation
 Variant of blocked Davidson
 Davidson routine will perform the subspace rotation
 perform sub-space diagonalisation
    after iterative eigenvector-optimisation
 modified Broyden-mixing scheme, WC =      100.0
 initial mixing is a Kerker type mixing with AMIX =  0.4000 and BMIX =      1.0000
 Hartree-type preconditioning will be used
 using additional bands           40
 reciprocal scheme for non local part
 use partial core corrections
 calculate Harris-corrections to forces 
   (improved forces if not selfconsistent)
 use gradient corrections 
 use of overlap-Matrix (Vanderbilt PP)
 Fermi weights with tetrahedron method with Bloechl corrections


--------------------------------------------------------------------------------------------------------


  energy-cutoff  :      400.00
  volume of cell :     1537.27
      direct lattice vectors                 reciprocal lattice vectors
    11.642067832  0.000000000  0.000000000     0.085895394  0.000000000  0.000000000
     0.000000000 11.491066754  0.000000000     0.000000000  0.087024122  0.000000000
     0.000000000  0.000000000 11.491066754     0.000000000  0.000000000  0.087024122

  length of vectors
    11.642067832 11.491066754 11.491066754     0.085895394  0.087024122  0.087024122


 
 k-points in units of 2pi/SCALE and weight: Automatic mesh                          
   0.00000000  0.00000000  0.00000000       0.008
   0.01717908  0.00000000  0.00000000       0.016
   0.03435816  0.00000000  0.00000000       0.016
   0.00000000  0.01740482  0.00000000       0.032
   0.01717908  0.01740482  0.00000000       0.064
   0.03435816  0.01740482  0.00000000       0.064
   0.00000000  0.03480965  0.00000000       0.032
   0.01717908  0.03480965  0.00000000       0.064
   0.03435816  0.03480965  0.00000000       0.064
   0.00000000  0.01740482  0.01740482       0.032
   0.01717908  0.01740482  0.01740482       0.064
   0.03435816  0.01740482  0.01740482       0.064
   0.00000000  0.03480965  0.01740482       0.064
   0.01717908  0.03480965  0.01740482       0.128
   0.03435816  0.03480965  0.01740482       0.128
   0.00000000  0.03480965  0.03480965       0.032
   0.01717908  0.03480965  0.03480965       0.064
   0.03435816  0.03480965  0.03480965       0.064
 
 k-points in reciprocal lattice and weights: Automatic mesh                          
   0.00000000  0.00000000  0.00000000       0.008
   0.20000000  0.00000000  0.00000000       0.016
   0.40000000  0.00000000  0.00000000       0.016
   0.00000000  0.20000000  0.00000000       0.032
   0.20000000  0.20000000  0.00000000       0.064
   0.40000000  0.20000000  0.00000000       0.064
   0.00000000  0.40000000  0.00000000       0.032
   0.20000000  0.40000000  0.00000000       0.064
   0.40000000  0.40000000  0.00000000       0.064
   0.00000000  0.20000000  0.20000000       0.032
   0.20000000  0.20000000  0.20000000       0.064
   0.40000000  0.20000000  0.20000000       0.064
   0.00000000  0.40000000  0.20000000       0.064
   0.20000000  0.40000000  0.20000000       0.128
   0.40000000  0.40000000  0.20000000       0.128
   0.00000000  0.40000000  0.40000000       0.032
   0.20000000  0.40000000  0.40000000       0.064
   0.40000000  0.40000000  0.40000000       0.064
 
 position of ions in fractional coordinates (direct lattice) 
   0.00000000  0.00000000  0.00000000
   0.00000000  0.00000000  0.50000000
   0.00000000  0.50000000  0.00000000
   0.00000000  0.50000000  0.50000000
   0.50000000  0.00000000  0.00000000
   0.50000000  0.00000000  0.50000000
   0.50000000  0.50000000  0.00000000
   0.50000000  0.50000000  0.50000000
   0.25000000  0.25000000  0.00000000
   0.25000000  0.25000000  0.50000000
   0.25000000  0.75000000  0.00000000
   0.25000000  0.75000000  0.50000000
   0.75000000  0.25000000  0.00000000
   0.75000000  0.25000000  0.50000000
   0.75000000  0.75000000  0.00000000
   0.75000000  0.75000000  0.50000000
   0.25000000  0.00000000  0.25000000
   0.25000000  0.00000000  0.75000000
   0.25000000  0.50000000  0.25000000
   0.25000000  0.50000000  0.75000000
   0.75000000  0.00000000  0.25000000
   0.75000000  0.00000000  0.75000000
   0.75000000  0.50000000  0.25000000
   0.75000000  0.50000000  0.75000000
   0.00000000  0.25000000  0.25000000
   0.00000000  0.25000000  0.75000000
   0.00000000  0.75000000  0.25000000
   0.00000000  0.75000000  0.75000000
   0.50000000  0.25000000  0.25000000
   0.50000000  0.25000000  0.75000000
   0.50000000  0.75000000  0.25000000
   0.50000000  0.75000000  0.75000000
   0.12500000  0.12500000  0.12500000
   0.12500000  0.12500000  0.62500000
   0.12500000  0.62500000  0.12500000
   0.12500000  0.62500000  0.62500000
   0.62500000  0.12500000  0.12500000
   0.62500000  0.12500000  0.62500000
   0.62500000  0.62500000  0.12500000
   0.62500000  0.62500000  0.62500000
   0.37500000  0.12500000  0.37500000
   0.37500000  0.12500000  0.87500000
   0.37500000  0.62500000  0.37500000
   0.37500000  0.62500000  0.87500000
   0.87500000  0.12500000  0.37500000
   0.87500000  0.12500000  0.87500000
   0.87500000  0.62500000  0.37500000
   0.87500000  0.62500000  0.87500000
   0.37500000  0.37500000  0.12500000
   0.37500000  0.37500000  0.62500000
   0.37500000  0.87500000  0.12500000
   0.37500000  0.87500000  0.62500000
   0.87500000  0.37500000  0.12500000
   0.87500000  0.37500000  0.62500000
   0.87500000  0.87500000  0.12500000
   0.87500000  0.87500000  0.62500000
   0.12500000  0.37500000  0.37500000
   0.12500000  0.37500000  0.87500000
   0.12500000  0.87500000  0.37500000
   0.12500000  0.87500000  0.87500000
   0.62500000  0.37500000  0.37500000
   0.62500000  0.37500000  0.87500000
   0.62500000  0.87500000  0.37500000
   0.62500000  0.87500000  0.87500000
 
 position of ions in cartesian coordinates  (Angst):
   0.00000000  0.00000000  0.00000000
   0.00000000  0.00000000  5.74553338
   0.00000000  5.74553338  0.00000000
   0.00000000  5.74553338  5.74553338
   5.82103392  0.00000000  0.00000000
   5.82103392  0.00000000  5.74553338
   5.82103392  5.74553338  0.00000000
   5.82103392  5.74553338  5.74553338
   2.91051696  2.87276669  0.00000000
   2.91051696  2.87276669  5.74553338
   2.91051696  8.61830007  0.00000000
   2.91051696  8.61830007  5.74553338
   8.73155087  2.87276669  0.00000000
   8.73155087  2.87276669  5.74553338
   8.73155087  8.61830007  0.00000000
   8.73155087  8.61830007  5.74553338
   2.91051696  0.00000000  2.87276669
   2.91051696  0.00000000  8.61830007
   2.91051696  5.74553338  2.87276669
   2.91051696  5.74553338  8.61830007
   8.73155087  0.00000000  2.87276669
   8.73155087  0.00000000  8.61830007
   8.73155087  5.74553338  2.87276669
   8.73155087  5.74553338  8.61830007
   0.00000000  2.87276669  2.87276669
   0.00000000  2.87276669  8.61830007
   0.00000000  8.61830007  2.87276669
   0.00000000  8.61830007  8.61830007
   5.82103392  2.87276669  2.87276669
   5.82103392  2.87276669  8.61830007
   5.82103392  8.61830007  2.87276669
   5.82103392  8.61830007  8.61830007
   1.45525848  1.43638334  1.43638334
   1.45525848  1.43638334  7.18191672
   1.45525848  7.18191672  1.43638334
   1.45525848  7.18191672  7.18191672
   7.27629239  1.43638334  1.43638334
   7.27629239  1.43638334  7.18191672
   7.27629239  7.18191672  1.43638334
   7.27629239  7.18191672  7.18191672
   4.36577544  1.43638334  4.30915003
   4.36577544  1.43638334 10.05468341
   4.36577544  7.18191672  4.30915003
   4.36577544  7.18191672 10.05468341
  10.18680935  1.43638334  4.30915003
  10.18680935  1.43638334 10.05468341
  10.18680935  7.18191672  4.30915003
  10.18680935  7.18191672 10.05468341
   4.36577544  4.30915003  1.43638334
   4.36577544  4.30915003  7.18191672
   4.36577544 10.05468341  1.43638334
   4.36577544 10.05468341  7.18191672
  10.18680935  4.30915003  1.43638334
  10.18680935  4.30915003  7.18191672
  10.18680935 10.05468341  1.43638334
  10.18680935 10.05468341  7.18191672
   1.45525848  4.30915003  4.30915003
   1.45525848  4.30915003 10.05468341
   1.45525848 10.05468341  4.30915003
   1.45525848 10.05468341 10.05468341
   7.27629239  4.30915003  4.30915003
   7.27629239  4.30915003 10.05468341
   7.27629239 10.05468341  4.30915003
   7.27629239 10.05468341 10.05468341
 


--------------------------------------------------------------------------------------------------------


 k-point     1 :   0.0000 0.0000 0.0000  plane waves:   27945
 k-point     2 :   0.2000 0.0000 0.0000  plane waves:   27938
 k-point     3 :   0.4000 0.0000 0.0000  plane waves:   27942
 k-point     4 :   0.0000 0.2000 0.0000  plane waves:   27933
 k-point     5 :   0.2000 0.2000 0.0000  plane waves:   27945
 k-point     6 :   0.4000 0.2000 0.0000  plane waves:   27907
 k-point     7 :   0.0000 0.4000 0.0000  plane waves:   27880
 k-point     8 :   0.2000 0.4000 0.0000  plane waves:   27919
 k-point     9 :   0.4000 0.4000 0.0000  plane waves:   27933
 k-point    10 :   0.0000 0.2000 0.2000  plane waves:   27931
 k-point    11 :   0.2000 0.2000 0.2000  plane waves:   27937
 k-point    12 :   0.4000 0.2000 0.2000  plane waves:   27924
 k-point    13 :   0.0000 0.4000 0.2000  plane waves:   27893
 k-point    14 :   0.2000 0.4000 0.2000  plane waves:   27912
 k-point    15 :   0.4000 0.4000 0.2000  plane waves:   27945
 k-point    16 :   0.0000 0.4000 0.4000  plane waves:   27946
 k-point    17 :   0.2000 0.4000 0.4000  plane waves:   27937
 k-point    18 :   0.4000 0.4000 0.4000  plane waves:   27933

 maximum and minimum number of plane-waves per node :     27946    27880

 maximum number of plane-waves:     27946
 maximum index in each direction: 
   IXMAX=   18   IYMAX=   18   IZMAX=   18
   IXMIN=  -19   IYMIN=  -19   IZMIN=  -19


 serial   3D FFT for wavefunctions
 parallel 3D FFT for charge:
    minimum data exchange during FFTs selected (reduces bandwidth)


 total amount of memory used by VASP MPI-rank0   363342. kBytes
=======================================================================

   base      :      30000. kBytes
   nonl-proj :     133275. kBytes
   fftplans  :       7212. kBytes
   grid      :      18251. kBytes
   one-center:        519. kBytes
   wavefun   :     174085. kBytes
 
     INWAV:  cpu time      0.0000: real time      0.0003
 Broyden mixing: mesh for mixing (old mesh)
   NGX = 37   NGY = 37   NGZ = 37
  (NGX  =120   NGY  =112   NGZ  =112)
  gives a total of  50653 points

 initial charge density was supplied:
 charge density of overlapping atoms calculated
 number of electron     256.0000000 magnetization 
 keeping initial charge density in first step


--------------------------------------------------------------------------------------------------------


 Maximum index for augmentation-charges         1099 (set IRDMAX)


--------------------------------------------------------------------------------------------------------


 First call to EWALD:  gamma=   0.154
 Maximum number of real-space cells 3x 3x 3
 Maximum number of reciprocal cells 3x 3x 3

    FEWALD:  cpu time      0.0024: real time      0.0024


--------------------------------------- Ionic step        1  -------------------------------------------




--------------------------------------- Iteration      1(   1)  ---------------------------------------


    POTLOK:  cpu time      0.1104: real time      0.1135
    SETDIJ:  cpu time      0.0105: real time      0.0106
     EDDAV:  cpu time     67.7659: real time     68.7530
 BZINTS: Fermi energy:    9.709663;  256.000000 electrons
         Band energy: 0.375429E+03;  BLOECHL correction:   -0.028164
       DOS:  cpu time      0.0133: real time      0.0134
    --------------------------------------------
      LOOP:  cpu time     67.9001: real time     68.8904

 eigenvalue-minimisations  :  6048
 total energy-change (2. order) : 0.9338000E+03  (-0.8078229E+04)
 number of electron     256.0000000 magnetization 
 augmentation part      256.0000000 magnetization 

 Free energy of the ion-electron system (eV)
  ---------------------------------------------------
  alpha Z        PSCENC =       569.68860807
  Ewald energy   TEWEN  =     -7184.58653356
  -Hartree energ DENC   =      -604.14622183
  -exchange      EXHF   =         0.00000000
  -V(xc)+E(xc)   XCENC  =      -996.54467896
  PAW double counting   =      6692.16565901    -5247.93935635
  entropy T*S    EENTRO =         0.00000000
  eigenvalues    EBANDS =       375.42943308
  atomic energy  EATOM  =      7329.73306348
  Solvation  Ediel_sol  =         0.00000000
  ---------------------------------------------------
  free energy    TOTEN  =       933.79997294 eV

  energy without entropy =      933.79997294  energy(sigma->0) =      933.79997294


--------------------------------------------------------------------------------------------------------




--------------------------------------- Iteration      1(   2)  ---------------------------------------


     EDDAV:  cpu time     78.2665: real time     79.3804
 BZINTS: Fermi energy:    3.224818;  256.000000 electrons
         Band energy:-0.725279E+03;  BLOECHL correction:    0.000000
       DOS:  cpu time      0.0084: real time      0.0084
    --------------------------------------------
      LOOP:  cpu time     78.2749: real time     79.3888

 eigenvalue-minimisations  :  7192
 total energy-change (2. order) :-0.1100709E+04  (-0.1048957E+04)
 number of electron     256.0000000 magnetization 
 augmentation part      256.0000000 magnetization 

 Free energy of the ion-electron system (eV)
  ---------------------------------------------------
  alpha Z        PSCENC =       569.68860807
  Ewald energy   TEWEN  =     -7184.58653356
  -Hartree energ DENC   =      -604.14622183
  -exchange      EXHF   =         0.00000000
  -V(xc)+E(xc)   XCENC  =      -996.54467896
  PAW double counting   =      6692.16565901    -5247.93935635
  entropy T*S    EENTRO =         0.00000000
  eigenvalues    EBANDS =      -725.27948247
  atomic energy  EATOM  =      7329.73306348
  Solvation  Ediel_sol  =         0.00000000
  ---------------------------------------------------
  free energy    TOTEN  =      -166.90894261 eV

  energy without entropy =     -166.90894261  energy(sigma->0) =     -166.90894261


--------------------------------------------------------------------------------------------------------




--------------------------------------- Iteration      1(   3)  ---------------------------------------


     EDDAV:  cpu time     80.6705: real time     81.8756
 BZINTS: Fermi energy:    1.858436;  256.000000 electrons
         Band energy:-0.825972E+03;  BLOECHL correction:    0.000000
       DOS:  cpu time      0.0079: real time      0.0080
    --------------------------------------------
      LOOP:  cpu time     80.6785: real time     81.8835

 eigenvalue-minimisations  :  7416
 total energy-change (2. order) :-0.1006926E+03  (-0.9931599E+02)
 number of electron     256.0000000 magnetization 
 augmentation part      256.0000000 magnetization 

 Free energy of the ion-electron system (eV)
  ---------------------------------------------------
  alpha Z        PSCENC =       569.68860807
  Ewald energy   TEWEN  =     -7184.58653356
  -Hartree energ DENC   =      -604.14622183
  -exchange      EXHF   =         0.00000000
  -V(xc)+E(xc)   XCENC  =      -996.54467896
  PAW double counting   =      6692.16565901    -5247.93935635
  entropy T*S    EENTRO =         0.00000000
  eigenvalues    EBANDS =      -825.97208296
  atomic energy  EATOM  =      7329.73306348
  Solvation  Ediel_sol  =         0.00000000
  ---------------------------------------------------
  free energy    TOTEN  =      -267.60154310 eV

  energy without entropy =     -267.60154310  energy(sigma->0) =     -267.60154310


--------------------------------------------------------------------------------------------------------




--------------------------------------- Iteration      1(   4)  ---------------------------------------


     EDDAV:  cpu time     79.2470: real time     80.5751
 BZINTS: Fermi energy:    1.778684;  256.000000 electrons
         Band energy:-0.828484E+03;  BLOECHL correction:    0.000000
       DOS:  cpu time      0.0078: real time      0.0079
    --------------------------------------------
      LOOP:  cpu time     79.2548: real time     80.5830

 eigenvalue-minimisations  :  7248
 total energy-change (2. order) :-0.2512343E+01  (-0.2483913E+01)
 number of electron     256.0000000 magnetization 
 augmentation part      256.0000000 magnetization 

 Free energy of the ion-electron system (eV)
  ---------------------------------------------------
  alpha Z        PSCENC =       569.68860807
  Ewald energy   TEWEN  =     -7184.58653356
  -Hartree energ DENC   =      -604.14622183
  -exchange      EXHF   =         0.00000000
  -V(xc)+E(xc)   XCENC  =      -996.54467896
  PAW double counting   =      6692.16565901    -5247.93935635
  entropy T*S    EENTRO =         0.00000000
  eigenvalues    EBANDS =      -828.48442578
  atomic energy  EATOM  =      7329.73306348
  Solvation  Ediel_sol  =         0.00000000
  ---------------------------------------------------
  free energy    TOTEN  =      -270.11388591 eV

  energy without entropy =     -270.11388591  energy(sigma->0) =     -270.11388591


--------------------------------------------------------------------------------------------------------




--------------------------------------- Iteration      1(   5)  ---------------------------------------


     EDDAV:  cpu time     79.9274: real time     81.1518
 BZINTS: Fermi energy:    1.809570;  256.000000 electrons
         Band energy:-0.828557E+03;  BLOECHL correction:    0.000000
       DOS:  cpu time      0.0077: real time      0.0078
    CHARGE:  cpu time      0.8034: real time      0.8085
    MIXING:  cpu time      0.0032: real time      0.0033
    --------------------------------------------
      LOOP:  cpu time     80.7418: real time     81.9714

 eigenvalue-minimisations  :  7424
 total energy-change (2. order) :-0.7292051E-01  (-0.7264723E-01)
 number of electron     255.9999653 magnetization 
 augmentation part      -41.5219308 magnetization 

 Broyden mixing:
  rms(total) = 0.20078E+01    rms(broyden)= 0.20078E+01
  rms(prec ) = 0.22865E+01
  weight for this iteration     100.00

 Free energy of the ion-electron system (eV)
  ---------------------------------------------------
  alpha Z        PSCENC =       569.68860807
  Ewald energy   TEWEN  =     -7184.58653356
  -Hartree energ DENC   =      -604.14622183
  -exchange      EXHF   =         0.00000000
  -V(xc)+E(xc)   XCENC  =      -996.54467896
  PAW double counting   =      6692.16565901    -5247.93935635
  entropy T*S    EENTRO =         0.00000000
  eigenvalues    EBANDS =      -828.55734629
  atomic energy  EATOM  =      7329.73306348
  Solvation  Ediel_sol  =         0.00000000
  ---------------------------------------------------
  free energy    TOTEN  =      -270.18680642 eV

  energy without entropy =     -270.18680642  energy(sigma->0) =     -270.18680642


--------------------------------------------------------------------------------------------------------




--------------------------------------- Iteration      1(   6)  ---------------------------------------


    POTLOK:  cpu time      0.1126: real time      0.1175
    SETDIJ:  cpu time      0.0110: real time      0.0111
     EDDAV:  cpu time     77.3515: real time     78.5777
 BZINTS: Fermi energy:    2.069252;  256.000000 electrons
         Band energy:-0.777034E+03;  BLOECHL correction:    0.000000
       DOS:  cpu time      0.0077: real time      0.0078
    CHARGE:  cpu time      0.7981: real time      0.8097
    MIXING:  cpu time      0.0033: real time      0.0034
    --------------------------------------------
      LOOP:  cpu time     78.2844: real time     79.5272

 eigenvalue-minimisations  :  7064
 total energy-change (2. order) : 0.4178393E+01  (-0.6532174E+00)
 number of electron     255.9999658 magnetization 
 augmentation part      -41.3997189 magnetization 

 Broyden mixing:
  rms(total) = 0.11785E+01    rms(broyden)= 0.11785E+01
  rms(prec ) = 0.13015E+01
  weight for this iteration     100.00

 eigenvalues of (default mixing * dielectric matrix)
  average eigenvalue GAMMA=   2.2586
  2.2586

 Free energy of the ion-electron system (eV)
  ---------------------------------------------------
  alpha Z        PSCENC =       569.68860807
  Ewald energy   TEWEN  =     -7184.58653356
  -Hartree energ DENC   =      -654.80089864
  -exchange      EXHF   =         0.00000000
  -V(xc)+E(xc)   XCENC  =      -987.75102097
  PAW double counting   =      9391.44483231    -7952.70228823
  entropy T*S    EENTRO =         0.00000000
  eigenvalues    EBANDS =      -777.03417630
  atomic energy  EATOM  =      7329.73306348
  Solvation  Ediel_sol  =         0.00000000
  ---------------------------------------------------
  free energy    TOTEN  =      -266.00841385 eV

  energy without entropy =     -266.00841385  energy(sigma->0) =     -266.00841385


--------------------------------------------------------------------------------------------------------




--------------------------------------- Iteration      1(   7)  ---------------------------------------


    POTLOK:  cpu time      0.1124: real time      0.1180
    SETDIJ:  cpu time      0.0110: real time      0.0111
     EDDAV:  cpu time     79.4224: real time     80.7791
 BZINTS: Fermi energy:    2.284820;  256.000000 electrons
         Band energy:-0.728435E+03;  BLOECHL correction:    0.000000
       DOS:  cpu time      0.0077: real time      0.0078
    CHARGE:  cpu time      0.7959: real time      0.8021
    MIXING:  cpu time      0.0034: real time      0.0034
    --------------------------------------------
      LOOP:  cpu time     80.3528: real time     81.7215

 eigenvalue-minimisations  :  7288
 total energy-change (2. order) : 0.8224523E+00  (-0.4301745E+00)
 number of electron     255.9999663 magnetization 
 augmentation part      -41.2750220 magnetization 

 Broyden mixing:
  rms(total) = 0.24448E+00    rms(broyden)= 0.24448E+00
  rms(prec ) = 0.28681E+00
  weight for this iteration     100.00

 eigenvalues of (default mixing * dielectric matrix)
  average eigenvalue GAMMA=   1.9343
  1.6118  2.2568

 Free energy of the ion-electron system (eV)
  ---------------------------------------------------
  alpha Z        PSCENC =       569.68860807
  Ewald energy   TEWEN  =     -7184.58653356
  -Hartree energ DENC   =      -707.61613349
  -exchange      EXHF   =         0.00000000
  -V(xc)+E(xc)   XCENC  =      -976.95184042
  PAW double counting   =     13875.20441354   -12442.22264980
  entropy T*S    EENTRO =         0.00000000
  eigenvalues    EBANDS =      -728.43488934
  atomic energy  EATOM  =      7329.73306348
  Solvation  Ediel_sol  =         0.00000000
  ---------------------------------------------------
  free energy    TOTEN  =      -265.18596153 eV

  energy without entropy =     -265.18596153  energy(sigma->0) =     -265.18596153


--------------------------------------------------------------------------------------------------------




--------------------------------------- Iteration      1(   8)  ---------------------------------------


    POTLOK:  cpu time      0.1133: real time      0.1190
    SETDIJ:  cpu time      0.0113: real time      0.0115
     EDDAV:  cpu time     77.8073: real time     79.1029
 BZINTS: Fermi energy:    2.309515;  256.000000 electrons
         Band energy:-0.730125E+03;  BLOECHL correction:    0.000000
       DOS:  cpu time      0.0079: real time      0.0080
    CHARGE:  cpu time      0.7988: real time      0.8037
    MIXING:  cpu time      0.0036: real time      0.0036
    --------------------------------------------
      LOOP:  cpu time     78.7423: real time     80.0487

 eigenvalue-minimisations  :  7080
 total energy-change (2. order) : 0.4117965E-01  (-0.5034079E-01)
 number of electron     255.9999662 magnetization 
 augmentation part      -41.2836179 magnetization 

 Broyden mixing:
  rms(total) = 0.61543E-01    rms(broyden)= 0.61543E-01
  rms(prec ) = 0.71577E-01
  weight for this iteration     100.00

 eigenvalues of (default mixing * dielectric matrix)
  average eigenvalue GAMMA=   1.9480
  2.6813  1.5814  1.5814

 Free energy of the ion-electron system (eV)
  ---------------------------------------------------
  alpha Z        PSCENC =       569.68860807
  Ewald energy   TEWEN  =     -7184.58653356
  -Hartree energ DENC   =      -706.93885132
  -exchange      EXHF   =         0.00000000
  -V(xc)+E(xc)   XCENC  =      -975.59997408
  PAW double counting   =     14535.04446344   -13102.36100665
  entropy T*S    EENTRO =         0.00000000
  eigenvalues    EBANDS =      -730.12455126
  atomic energy  EATOM  =      7329.73306348
  Solvation  Ediel_sol  =         0.00000000
  ---------------------------------------------------
  free energy    TOTEN  =      -265.14478187 eV

  energy without entropy =     -265.14478187  energy(sigma->0) =     -265.14478187


--------------------------------------------------------------------------------------------------------




--------------------------------------- Iteration      1(   9)  ---------------------------------------


    POTLOK:  cpu time      0.1142: real time      0.1190
    SETDIJ:  cpu time      0.0114: real time      0.0115
     EDDAV:  cpu time     76.2346: real time     77.3604
 BZINTS: Fermi energy:    2.307049;  256.000000 electrons
         Band energy:-0.726210E+03;  BLOECHL correction:    0.000000
       DOS:  cpu time      0.0080: real time      0.0080
    CHARGE:  cpu time      0.8086: real time      0.8157
    MIXING:  cpu time      0.0038: real time      0.0038
    --------------------------------------------
      LOOP:  cpu time     77.1804: real time     78.3184

 eigenvalue-minimisations  :  6952
 total energy-change (2. order) :-0.1184628E-01  (-0.3571818E-02)
 number of electron     255.9999662 magnetization 
 augmentation part      -41.2847944 magnetization 

 Broyden mixing:
  rms(total) = 0.23210E-01    rms(broyden)= 0.23210E-01
  rms(prec ) = 0.24637E-01
  weight for this iteration     100.00

 eigenvalues of (default mixing * dielectric matrix)
  average eigenvalue GAMMA=   1.6586
  2.5830  1.6614  1.6614  0.7287

 Free energy of the ion-electron system (eV)
  ---------------------------------------------------
  alpha Z        PSCENC =       569.68860807
  Ewald energy   TEWEN  =     -7184.58653356
  -Hartree energ DENC   =      -711.57082150
  -exchange      EXHF   =         0.00000000
  -V(xc)+E(xc)   XCENC  =      -974.69263818
  PAW double counting   =     14726.51621446   -13294.03473251
  entropy T*S    EENTRO =         0.00000000
  eigenvalues    EBANDS =      -726.20978842
  atomic energy  EATOM  =      7329.73306348
  Solvation  Ediel_sol  =         0.00000000
  ---------------------------------------------------
  free energy    TOTEN  =      -265.15662816 eV

  energy without entropy =     -265.15662816  energy(sigma->0) =     -265.15662816


--------------------------------------------------------------------------------------------------------




--------------------------------------- Iteration      1(  10)  ---------------------------------------


    POTLOK:  cpu time      0.1163: real time      0.1213
    SETDIJ:  cpu time      0.0113: real time      0.0114
     EDDAV:  cpu time     82.2483: real time     83.4730
 BZINTS: Fermi energy:    2.302085;  256.000000 electrons
         Band energy:-0.726151E+03;  BLOECHL correction:    0.000000
       DOS:  cpu time      0.0078: real time      0.0079
    CHARGE:  cpu time      0.7935: real time      0.7984
    MIXING:  cpu time      0.0048: real time      0.0048
    --------------------------------------------
      LOOP:  cpu time     83.1820: real time     84.4167

 eigenvalue-minimisations  :  7600
 total energy-change (2. order) :-0.1055659E-02  (-0.9615178E-04)
 number of electron     255.9999662 magnetization 
 augmentation part      -41.2851640 magnetization 

 Broyden mixing:
  rms(total) = 0.10912E-01    rms(broyden)= 0.10912E-01
  rms(prec ) = 0.12646E-01
  weight for this iteration     100.00

 eigenvalues of (default mixing * dielectric matrix)
  average eigenvalue GAMMA=   1.9219
  3.1117  2.4980  1.0334  1.4832  1.4832

 Free energy of the ion-electron system (eV)
  ---------------------------------------------------
  alpha Z        PSCENC =       569.68860807
  Ewald energy   TEWEN  =     -7184.58653356
  -Hartree energ DENC   =      -711.66331112
  -exchange      EXHF   =         0.00000000
  -V(xc)+E(xc)   XCENC  =      -974.73572057
  PAW double counting   =     14645.21697149   -13212.65935547
  entropy T*S    EENTRO =         0.00000000
  eigenvalues    EBANDS =      -726.15140614
  atomic energy  EATOM  =      7329.73306348
  Solvation  Ediel_sol  =         0.00000000
  ---------------------------------------------------
  free energy    TOTEN  =      -265.15768382 eV

  energy without entropy =     -265.15768382  energy(sigma->0) =     -265.15768382


--------------------------------------------------------------------------------------------------------




--------------------------------------- Iteration      1(  11)  ---------------------------------------


    POTLOK:  cpu time      0.1127: real time      0.1176
    SETDIJ:  cpu time      0.0114: real time      0.0115
     EDDAV:  cpu time     72.7990: real time     73.8729
 BZINTS: Fermi energy:    2.292904;  256.000000 electrons
         Band energy:-0.725718E+03;  BLOECHL correction:    0.000000
       DOS:  cpu time      0.0075: real time      0.0076
    CHARGE:  cpu time      0.7964: real time      0.8014
    MIXING:  cpu time      0.0039: real time      0.0039
    --------------------------------------------
      LOOP:  cpu time     73.7309: real time     74.8148

 eigenvalue-minimisations  :  6512
 total energy-change (2. order) :-0.1324086E-02  (-0.2211403E-03)
 number of electron     255.9999662 magnetization 
 augmentation part      -41.2824029 magnetization 

 Broyden mixing:
  rms(total) = 0.49988E-02    rms(broyden)= 0.49988E-02
  rms(prec ) = 0.52401E-02
  weight for this iteration     100.00

 eigenvalues of (default mixing * dielectric matrix)
  average eigenvalue GAMMA=   1.7871
  3.0727  2.4860  1.6556  1.6556  0.9568  0.8957

 Free energy of the ion-electron system (eV)
  ---------------------------------------------------
  alpha Z        PSCENC =       569.68860807
  Ewald energy   TEWEN  =     -7184.58653356
  -Hartree energ DENC   =      -712.23533959
  -exchange      EXHF   =         0.00000000
  -V(xc)+E(xc)   XCENC  =      -974.65470471
  PAW double counting   =     14594.69670546   -13162.08257128
  entropy T*S    EENTRO =         0.00000000
  eigenvalues    EBANDS =      -725.71823577
  atomic energy  EATOM  =      7329.73306348
  Solvation  Ediel_sol  =         0.00000000
  ---------------------------------------------------
  free energy    TOTEN  =      -265.15900790 eV

  energy without entropy =     -265.15900790  energy(sigma->0) =     -265.15900790


--------------------------------------------------------------------------------------------------------




--------------------------------------- Iteration      1(  12)  ---------------------------------------


    POTLOK:  cpu time      0.1129: real time      0.1178
    SETDIJ:  cpu time      0.0112: real time      0.0114
     EDDAV:  cpu time     80.9131: real time     82.1324
 BZINTS: Fermi energy:    2.280496;  256.000000 electrons
         Band energy:-0.725675E+03;  BLOECHL correction:    0.000000
       DOS:  cpu time      0.0072: real time      0.0072
    CHARGE:  cpu time      0.7965: real time      0.8015
    MIXING:  cpu time      0.0040: real time      0.0040
    --------------------------------------------
      LOOP:  cpu time     81.8449: real time     83.0743

 eigenvalue-minimisations  :  7432
 total energy-change (2. order) :-0.7357326E-05  (-0.3001260E-05)
 number of electron     255.9999662 magnetization 
 augmentation part      -41.2823458 magnetization 

 Broyden mixing:
  rms(total) = 0.22597E-02    rms(broyden)= 0.22597E-02
  rms(prec ) = 0.25180E-02
  weight for this iteration     100.00

 eigenvalues of (default mixing * dielectric matrix)
  average eigenvalue GAMMA=   1.8861
  3.2487  2.6134  2.6134  1.3439  1.3439  1.0196  1.0196

 Free energy of the ion-electron system (eV)
  ---------------------------------------------------
  alpha Z        PSCENC =       569.68860807
  Ewald energy   TEWEN  =     -7184.58653356
  -Hartree energ DENC   =      -712.26564859
  -exchange      EXHF   =         0.00000000
  -V(xc)+E(xc)   XCENC  =      -974.66042280
  PAW double counting   =     14600.62140410   -13168.01425939
  entropy T*S    EENTRO =         0.00000000
  eigenvalues    EBANDS =      -725.67522658
  atomic energy  EATOM  =      7329.73306348
  Solvation  Ediel_sol  =         0.00000000
  ---------------------------------------------------
  free energy    TOTEN  =      -265.15901526 eV

  energy without entropy =     -265.15901526  energy(sigma->0) =     -265.15901526


--------------------------------------------------------------------------------------------------------




--------------------------------------- Iteration      1(  13)  ---------------------------------------


    POTLOK:  cpu time      0.1121: real time      0.1151
    SETDIJ:  cpu time      0.0113: real time      0.0115
     EDDAV:  cpu time     76.3346: real time     77.5043
 BZINTS: Fermi energy:    2.323530;  256.000000 electrons
         Band energy:-0.725548E+03;  BLOECHL correction:    0.000000
       DOS:  cpu time      0.0074: real time      0.0075
    CHARGE:  cpu time      0.7966: real time      0.8015
    MIXING:  cpu time      0.0038: real time      0.0039
    --------------------------------------------
      LOOP:  cpu time     77.2659: real time     78.4438

 eigenvalue-minimisations  :  6904
 total energy-change (2. order) :-0.9295116E-05  (-0.7885888E-05)
 number of electron     255.9999662 magnetization 
 augmentation part      -41.2816370 magnetization 

 Broyden mixing:
  rms(total) = 0.98535E-03    rms(broyden)= 0.98535E-03
  rms(prec ) = 0.11018E-02
  weight for this iteration     100.00

 eigenvalues of (default mixing * dielectric matrix)
  average eigenvalue GAMMA=   1.8446
  3.3875  2.7782  2.4398  1.6728  1.5834  1.1010  0.8971  0.8971

 Free energy of the ion-electron system (eV)
  ---------------------------------------------------
  alpha Z        PSCENC =       569.68860807
  Ewald energy   TEWEN  =     -7184.58653356
  -Hartree energ DENC   =      -712.39167446
  -exchange      EXHF   =         0.00000000
  -V(xc)+E(xc)   XCENC  =      -974.65553599
  PAW double counting   =     14604.41545966   -13171.81444845
  entropy T*S    EENTRO =         0.00000000
  eigenvalues    EBANDS =      -725.54796330
  atomic energy  EATOM  =      7329.73306348
  Solvation  Ediel_sol  =         0.00000000
  ---------------------------------------------------
  free energy    TOTEN  =      -265.15902456 eV

  energy without entropy =     -265.15902456  energy(sigma->0) =     -265.15902456


--------------------------------------------------------------------------------------------------------




--------------------------------------- Iteration      1(  14)  ---------------------------------------


    POTLOK:  cpu time      0.1116: real time      0.1149
    SETDIJ:  cpu time      0.0112: real time      0.0113
     EDDAV:  cpu time     68.7985: real time     69.8444
 BZINTS: Fermi energy:    2.314587;  256.000000 electrons
         Band energy:-0.725561E+03;  BLOECHL correction:    0.000000
       DOS:  cpu time      0.0078: real time      0.0078
    --------------------------------------------
      LOOP:  cpu time     68.9291: real time     69.9784

 eigenvalue-minimisations  :  6024
 total energy-change (2. order) : 0.6324917E-06  (-0.4135556E-06)
 number of electron     255.9999662 magnetization 
 augmentation part      -41.2816370 magnetization 

 Free energy of the ion-electron system (eV)
  ---------------------------------------------------
  alpha Z        PSCENC =       569.68860807
  Ewald energy   TEWEN  =     -7184.58653356
  -Hartree energ DENC   =      -712.37959728
  -exchange      EXHF   =         0.00000000
  -V(xc)+E(xc)   XCENC  =      -974.65564763
  PAW double counting   =     14604.45055922   -13171.84830358
  entropy T*S    EENTRO =         0.00000000
  eigenvalues    EBANDS =      -725.56117264
  atomic energy  EATOM  =      7329.73306348
  Solvation  Ediel_sol  =         0.00000000
  ---------------------------------------------------
  free energy    TOTEN  =      -265.15902392 eV

  energy without entropy =     -265.15902392  energy(sigma->0) =     -265.15902392


--------------------------------------------------------------------------------------------------------




 average (electrostatic) potential at core
  the test charge radii are     1.0621  1.2767
  (the norm of the test charge is              1.0000)
       1 -51.9225       2 -51.9225       3 -51.9225       4 -51.9225       5 -51.9225
       6 -51.9225       7 -51.9225       8 -51.9225       9 -51.9225      10 -51.9225
      11 -51.9225      12 -51.9225      13 -51.9225      14 -51.9225      15 -51.9225
      16 -51.9225      17 -51.9225      18 -51.9225      19 -51.9225      20 -51.9225
      21 -51.9225      22 -51.9225      23 -51.9225      24 -51.9225      25 -51.9225
      26 -51.9225      27 -51.9225      28 -51.9225      29 -51.9225      30 -51.9225
      31 -51.9225      32 -51.9225      33 -15.0978      34 -15.0978      35 -15.0978
      36 -15.0978      37 -15.0978      38 -15.0978      39 -15.0978      40 -15.0978
      41 -15.0978      42 -15.0978      43 -15.0978      44 -15.0978      45 -15.0978
      46 -15.0978      47 -15.0978      48 -15.0978      49 -15.0978      50 -15.0978
      51 -15.0978      52 -15.0978      53 -15.0978      54 -15.0978      55 -15.0978
      56 -15.0978      57 -15.0978      58 -15.0978      59 -15.0978      60 -15.0978
      61 -15.0978      62 -15.0978      63 -15.0978      64 -15.0978
 
 
 
 E-fermi :   2.3146     XC(G=0):  -8.9358     alpha+bet : -8.0498

 val. band max:        2.2803420612   @ k =   0.0000   0.0000   0.0000
 cond. band min:       2.3752561994   @ k =   0.0000   0.0000   0.0000
 fundamental gap:      0.0949141382
 Fermi energy:         2.3145865691

 k-point     1 :       0.0000    0.0000    0.0000
  band No.  band energies     occupation 
      1     -10.0245      2.00000
      2      -9.2374      2.00000
      3      -9.2374      2.00000
      4      -9.2210      2.00000
      5      -9.2210      2.00000
      6      -9.2210      2.00000
      7      -9.2210      2.00000
      8      -8.6305      2.00000
      9      -8.6305      2.00000
     10      -8.6305      2.00000
     11      -8.6305      2.00000
     12      -8.6305      2.00000
     13      -8.6305      2.00000
     14      -8.6305      2.00000
     15      -8.6305      2.00000
     16      -8.6243      2.00000
     17      -8.6243      2.00000
     18      -8.6243      2.00000
     19      -8.6243      2.00000
     20      -8.5429      2.00000
     21      -8.5429      2.00000
     22      -8.5429      2.00000
     23      -8.5429      2.00000
     24      -7.9271      2.00000
     25      -7.8872      2.00000
     26      -7.8872      2.00000
     27      -7.8716      2.00000
     28      -7.8716      2.00000
     29      -7.8716      2.00000
     30      -7.8716      2.00000
     31      -7.8550      2.00000
     32      -7.8550      2.00000
     33      -4.3023      2.00000
     34      -4.2297      2.00000
     35      -4.2297      2.00000
     36      -4.0900      2.00000
     37      -4.0900      2.00000
     38      -4.0900      2.00000
     39      -4.0900      2.00000
     40      -4.0644      2.00000
     41      -4.0644      2.00000
     42      -4.0309      2.00000
     43      -4.0309      2.00000
     44      -4.0309      2.00000
     45      -4.0309      2.00000
     46      -3.2057      2.00000
     47      -3.2057      2.00000
     48      -3.2057      2.00000
     49      -3.2057      2.00000
     50      -3.1840      2.00000
     51      -3.1840      2.00000
     52      -3.1840      2.00000
     53      -3.1840      2.00000
     54      -3.1840      2.00000
     55      -3.1840      2.00000
     56      -3.1840      2.00000
     57      -3.1840      2.00000
     58      -1.8335      2.00000
     59      -1.8335      2.00000
     60      -1.7711      2.00000
     61      -1.7711      2.00000
     62      -1.7711      2.00000
     63      -1.7711      2.00000
[...]
   15.570153    0.391170    0.409202    0.409202    0.000000    0.000000   -0.000000
   15.590064    0.392876    0.410706    0.410706    0.000000    0.000000   -0.000000
   15.609975    0.394539    0.412205    0.412205    0.000000    0.000000   -0.000000
   15.629885    0.396177    0.413712    0.413712    0.000000    0.000000   -0.000000
   15.649796    0.397810    0.415241    0.415241    0.000000    0.000000   -0.000000
   15.669707    0.399452    0.416801    0.416801    0.000000    0.000000   -0.000000
   15.689617    0.401107    0.418399    0.418399    0.000000    0.000000   -0.000000
   15.709528    0.402774    0.420033    0.420033    0.000000    0.000000   -0.000000
   15.729439    0.404448    0.421699    0.421699    0.000000    0.000000   -0.000000
   15.749350    0.406125    0.423391    0.423391    0.000000    0.000000   -0.000000
   15.769260    0.407806    0.425102    0.425102    0.000000    0.000000   -0.000000
   15.789171    0.409488    0.426826    0.426826    0.000000    0.000000   -0.000000
   15.809082    0.411172    0.428554    0.428554    0.000000    0.000000   -0.000000
   15.828992    0.412859    0.430282    0.430282    0.000000    0.000000   -0.000000
   15.848903    0.414547    0.432005    0.432005    0.000000    0.000000   -0.000000
   15.868814    0.416237    0.433720    0.433720    0.000000    0.000000   -0.000000
   15.888724    0.417929    0.435427    0.435427    0.000000    0.000000   -0.000000
   15.908635    0.419625    0.437129    0.437129    0.000000    0.000000   -0.000000
   15.928546    0.421327    0.438831    0.438831    0.000000    0.000000   -0.000000
   15.948456    0.423038    0.440540    0.440540    0.000000    0.000000   -0.000000
   15.968367    0.424757    0.442255    0.442255    0.000000    0.000000   -0.000000
   15.988278    0.426478    0.443972    0.443972    0.000000    0.000000   -0.000000
   16.008188    0.428195    0.445686    0.445686    0.000000    0.000000   -0.000000
   16.028099    0.429901    0.447394    0.447394    0.000000    0.000000   -0.000000
   16.048010    0.431596    0.449093    0.449093    0.000000    0.000000   -0.000000
   16.067920    0.433281    0.450786    0.450786    0.000000    0.000000   -0.000000
   16.087831    0.434959    0.452474    0.452474    0.000000    0.000000   -0.000000
   16.107742    0.436636    0.454158    0.454158    0.000000    0.000000   -0.000000
   16.127652    0.438314    0.455838    0.455838    0.000000    0.000000   -0.000000
   16.147563    0.439994    0.457514    0.457514    0.000000    0.000000   -0.000000
   16.167474    0.441674    0.459183    0.459183    0.000000    0.000000   -0.000000
   16.187385    0.443351    0.460843    0.460843    0.000000    0.000000   -0.000000
   16.207295    0.445022    0.462492    0.462492    0.000000    0.000000   -0.000000
   16.227206    0.446684    0.464129    0.464129    0.000000    0.000000   -0.000000
   16.247117    0.448336    0.465754    0.465754    0.000000    0.000000   -0.000000
   16.267027    0.449978    0.467366    0.467366    0.000000    0.000000   -0.000000
   16.286938    0.451608    0.468966    0.468966    0.000000    0.000000   -0.000000
   16.306849    0.453227    0.470554    0.470554    0.000000    0.000000   -0.000000
   16.326759    0.454835    0.472130    0.472130    0.000000    0.000000   -0.000000
   16.346670    0.456432    0.473694    0.473694    0.000000    0.000000   -0.000000
   16.366581    0.458018    0.475248    0.475248    0.000000    0.000000   -0.000000
   16.386491    0.459593    0.476790    0.476790    0.000000    0.000000   -0.000000
   16.406402    0.461159    0.478322    0.478322    0.000000    0.000000   -0.000000
   16.426313    0.462714    0.479843    0.479843    0.000000    0.000000   -0.000000
   16.446223    0.464260    0.481355    0.481355    0.000000    0.000000   -0.000000
   16.466134    0.465796    0.482857    0.482857    0.000000    0.000000   -0.000000
   16.486045    0.467323    0.484349    0.484349    0.000000    0.000000   -0.000000
   16.505955    0.468840    0.485831    0.485831    0.000000    0.000000   -0.000000
   16.525866    0.470349    0.487305    0.487305    0.000000    0.000000   -0.000000
   16.545777    0.471848    0.488769    0.488769    0.000000    0.000000   -0.000000
   16.565688    0.473338    0.490224    0.490224    0.000000    0.000000   -0.000000
   16.585598    0.474820    0.491671    0.491671    0.000000    0.000000   -0.000000
   16.605509    0.476293    0.493109    0.493109    0.000000    0.000000   -0.000000
   16.625420    0.477758    0.494539    0.494539    0.000000    0.000000   -0.000000
   16.645330    0.479214    0.495960    0.495960    0.000000    0.000000   -0.000000
   16.665241    0.480662    0.497374    0.497374    0.000000    0.000000   -0.000000
   16.685152    0.482102    0.498779    0.498779    0.000000    0.000000   -0.000000
   16.705062    0.483535    0.500176    0.500176    0.000000    0.000000   -0.000000
   16.724973    0.484959    0.501566    0.501566    0.000000    0.000000   -0.000000
   16.744884    0.486376    0.502948    0.502948    0.000000    0.000000   -0.000000
   16.764794    0.487785    0.504322    0.504322    0.000000    0.000000   -0.000000
   16.784705    0.489187    0.505690    0.505690    0.000000    0.000000   -0.000000
   16.804616    0.490581    0.507050    0.507050    0.000000    0.000000   -0.000000
   16.824526    0.491969    0.508402    0.508402    0.000000    0.000000   -0.000000
   16.844437    0.493349    0.509748    0.509748    0.000000    0.000000   -0.000000
   16.864348    0.494722    0.511087    0.511087    0.000000    0.000000   -0.000000
   16.884258    0.496089    0.512419    0.512419    0.000000    0.000000   -0.000000
   16.904169    0.497448    0.513744    0.513744    0.000000    0.000000   -0.000000
   16.924080    0.498801    0.515062    0.515062    0.000000    0.000000   -0.000000
   16.943990    0.500147    0.516374    0.516374    0.000000    0.000000   -0.000000
   16.963901    0.501486    0.517679    0.517679    0.000000    0.000000   -0.000000
   16.983812    0.502819    0.518977    0.518977    0.000000    0.000000   -0.000000
   17.003723    0.504145    0.520270    0.520270    0.000000    0.000000   -0.000000
   17.023633    0.505465    0.521555    0.521555    0.000000    0.000000   -0.000000
   17.043544    0.506779    0.522835    0.522835    0.000000    0.000000   -0.000000
   17.063455    0.508087    0.524109    0.524109    0.000000    0.000000   -0.000000
   17.083365    0.509388    0.525376    0.525376    0.000000    0.000000   -0.000000
   17.103276    0.510683    0.526637    0.526637    0.000000    0.000000   -0.000000
   17.123187    0.511972    0.527892    0.527892    0.000000    0.000000   -0.000000
   17.143097    0.513255    0.529142    0.529142    0.000000    0.000000   -0.000000
   17.163008    0.514532    0.530385    0.530385    0.000000    0.000000   -0.000000
   17.182919    0.515804    0.531623    0.531623    0.000000    0.000000   -0.000000
   17.202829    0.517069    0.532854    0.532854    0.000000    0.000000   -0.000000
   17.222740    0.518329    0.534081    0.534081    0.000000    0.000000   -0.000000
   17.242651    0.519583    0.535301    0.535301    0.000000    0.000000   -0.000000
   17.262561    0.520831    0.536516    0.536516    0.000000    0.000000   -0.000000
   17.282472    0.522074    0.537725    0.537725    0.000000    0.000000   -0.000000
   17.302383    0.523311    0.538929    0.538929    0.000000    0.000000   -0.000000
   17.322293    0.524542    0.540127    0.540127    0.000000    0.000000   -0.000000
   17.342204    0.525768    0.541320    0.541320    0.000000    0.000000   -0.000000
   17.362115    0.526989    0.542507    0.542507    0.000000    0.000000   -0.000000
   17.382025    0.528204    0.543690    0.543690    0.000000    0.000000   -0.000000
   17.401936    0.529414    0.544866    0.544866    0.000000    0.000000   -0.000000
   17.421847    0.530619    0.546038    0.546038    0.000000    0.000000   -0.000000
   17.441758    0.531818    0.547205    0.547205    0.000000    0.000000   -0.000000
   17.461668    0.533012    0.548366    0.548366    0.000000    0.000000   -0.000000
   17.481579    0.534201    0.549522    0.549522    0.000000    0.000000   -0.000000
   17.501490    0.535385    0.550673    0.550673    0.000000    0.000000   -0.000000
   17.521400    0.536563    0.551819    0.551819    0.000000    0.000000   -0.000000
   17.541311    0.537737    0.552960    0.552960    0.000000    0.000000   -0.000000
   17.561222    0.538906    0.554097    0.554097    0.000000    0.000000   -0.000000
   17.581132    0.540069    0.555228    0.555228    0.000000    0.000000   -0.000000
   17.601043    0.541228    0.556354    0.556354    0.000000    0.000000   -0.000000
   17.620954    0.542382    0.557476    0.557476    0.000000    0.000000   -0.000000
   17.640864    0.543531    0.558593    0.558593    0.000000    0.000000   -0.000000
   17.660775    0.544675    0.559705    0.559705    0.000000    0.000000   -0.000000
   17.680686    0.545814    0.560812    0.560812    0.000000    0.000000   -0.000000
   17.700596    0.546949    0.561915    0.561915    0.000000    0.000000   -0.000000
   17.720507    0.548078    0.563013    0.563013    0.000000    0.000000   -0.000000
   17.740418    0.549203    0.564106    0.564106    0.000000    0.000000   -0.000000
   17.760328    0.550324    0.565195    0.565195    0.000000    0.000000   -0.000000
   17.780239    0.551440    0.566279    0.566279    0.000000    0.000000   -0.000000
   17.800150    0.552551    0.567359    0.567359    0.000000    0.000000   -0.000000
   17.820060    0.553658    0.568434    0.568434    0.000000    0.000000   -0.000000
   17.839971    0.554760    0.569505    0.569505    0.000000    0.000000   -0.000000
   17.859882    0.555857    0.570571    0.570571    0.000000    0.000000   -0.000000
   17.879793    0.556950    0.571633    0.571633    0.000000    0.000000   -0.000000
   17.899703    0.558039    0.572690    0.572690    0.000000    0.000000   -0.000000
   17.919614    0.559123    0.573744    0.573744    0.000000    0.000000   -0.000000
   17.939525    0.560203    0.574793    0.574793    0.000000    0.000000   -0.000000
   17.959435    0.561279    0.575837    0.575837    0.000000    0.000000   -0.000000
   17.979346    0.562350    0.576878    0.576878    0.000000    0.000000   -0.000000
   17.999257    0.563417    0.577914    0.577914    0.000000    0.000000   -0.000000
   18.019167    0.564480    0.578946    0.578946    0.000000    0.000000   -0.000000
   18.039078    0.565538    0.579974    0.579974    0.000000    0.000000   -0.000000
   18.058989    0.566592    0.580997    0.580997    0.000000    0.000000   -0.000000
   18.078899    0.567642    0.582017    0.582017    0.000000    0.000000   -0.000000
   18.098810    0.568688    0.583033    0.583033    0.000000    0.000000   -0.000000
   18.118721    0.569730    0.584044    0.584044    0.000000    0.000000   -0.000000
   18.138631    0.570768    0.585052    0.585052    0.000000    0.000000   -0.000000
   18.158542    0.571801    0.586055    0.586055    0.000000    0.000000   -0.000000
   18.178453    0.572831    0.587054    0.587054    0.000000    0.000000   -0.000000
   18.198363    0.573856    0.588050    0.588050    0.000000    0.000000   -0.000000
   18.218274    0.574878    0.589042    0.589042    0.000000    0.000000   -0.000000
   18.238185    0.575895    0.590029    0.590029    0.000000    0.000000   -0.000000
   18.258095    0.576909    0.591013    0.591013    0.000000    0.000000   -0.000000
   18.278006    0.577918    0.591993    0.591993    0.000000    0.000000   -0.000000
   18.297917    0.578924    0.592969    0.592969    0.000000    0.000000   -0.000000
   18.317828    0.579926    0.593942    0.593942    0.000000    0.000000   -0.000000
   18.337738    0.580924    0.594910    0.594910    0.000000    0.000000   -0.000000
   18.357649    0.581918    0.595875    0.595875    0.000000    0.000000   -0.000000
   18.377560    0.582908    0.596836    0.596836    0.000000    0.000000   -0.000000
   18.397470    0.583895    0.597793    0.597793    0.000000    0.000000   -0.000000
   18.417381    0.584877    0.598747    0.598747    0.000000    0.000000   -0.000000
   18.437292    0.585856    0.599697    0.599697    0.000000    0.000000   -0.000000
   18.457202    0.586832    0.600643    0.600643    0.000000    0.000000   -0.000000
   18.477113    0.587803    0.601586    0.601586    0.000000    0.000000   -0.000000
   18.497024    0.588771    0.602525    0.602525    0.000000    0.000000   -0.000000
   18.516934    0.589735    0.603461    0.603461    0.000000    0.000000   -0.000000
   18.536845    0.590696    0.604393    0.604393    0.000000    0.000000   -0.000000
   18.556756    0.591653    0.605321    0.605321    0.000000    0.000000   -0.000000
   18.576666    0.592606    0.606246    0.606246    0.000000    0.000000   -0.000000
   18.596577    0.593556    0.607168    0.607168    0.000000    0.000000   -0.000000
   18.616488    0.594502    0.608086    0.608086    0.000000    0.000000   -0.000000
   18.636398    0.595445    0.609000    0.609000    0.000000    0.000000   -0.000000
   18.656309    0.596384    0.609911    0.609911    0.000000    0.000000   -0.000000
   18.676220    0.597320    0.610819    0.610819    0.000000    0.000000   -0.000000
   18.696130    0.598252    0.611723    0.611723    0.000000    0.000000   -0.000000
   18.716041    0.599181    0.612624    0.612624    0.000000    0.000000   -0.000000
   18.735952    0.600107    0.613522    0.613522    0.000000    0.000000   -0.000000
   18.755863    0.601028    0.614416    0.614416    0.000000    0.000000   -0.000000
   18.775773    0.601947    0.615307    0.615307    0.000000    0.000000   -0.000000
   18.795684    0.602862    0.616194    0.616194    0.000000    0.000000   -0.000000
   18.815595    0.603774    0.617079    0.617079    0.000000    0.000000   -0.000000
   18.835505    0.604683    0.617960    0.617960    0.000000    0.000000   -0.000000
   18.855416    0.605588    0.618838    0.618838    0.000000    0.000000   -0.000000
   18.875327    0.606490    0.619712    0.619712    0.000000    0.000000   -0.000000
   18.895237    0.607388    0.620584    0.620584    0.000000    0.000000   -0.000000
   18.915148    0.608283    0.621452    0.621452    0.000000    0.000000   -0.000000
   18.935059    0.609176    0.622317    0.622317    0.000000    0.000000   -0.000000
   18.954969    0.610064    0.623179    0.623179    0.000000    0.000000   -0.000000
   18.974880    0.610950    0.624037    0.624037    0.000000    0.000000   -0.000000
   18.994791    0.611832    0.624893    0.624893    0.000000    0.000000   -0.000000
   19.014701    0.612712    0.625745    0.625745    0.000000    0.000000   -0.000000
   19.034612    0.613588    0.626595    0.626595    0.000000    0.000000   -0.000000
   19.054523    0.614461    0.627441    0.627441    0.000000    0.000000   -0.000000
   19.074433    0.615330    0.628284    0.628284    0.000000    0.000000   -0.000000
   19.094344    0.616197    0.629125    0.629125    0.000000    0.000000   -0.000000
   19.114255    0.617061    0.629962    0.629962    0.000000    0.000000   -0.000000
   19.134165    0.617921    0.630796    0.630796    0.000000    0.000000   -0.000000
   19.154076    0.618779    0.631627    0.631627    0.000000    0.000000   -0.000000
   19.173987    0.619633    0.632456    0.632456    0.000000    0.000000   -0.000000
   19.193898    0.620485    0.633281    0.633281    0.000000    0.000000   -0.000000
   19.213808    0.621333    0.634103    0.634103    0.000000    0.000000   -0.000000
   19.233719    0.622178    0.634923    0.634923    0.000000    0.000000   -0.000000
   19.253630    0.623021    0.635739    0.635739    0.000000    0.000000   -0.000000
   19.273540    0.623860    0.636553    0.636553    0.000000    0.000000   -0.000000
   19.293451    0.624697    0.637363    0.637363    0.000000    0.000000   -0.000000
   19.313362    0.625530    0.638171    0.638171    0.000000    0.000000   -0.000000
   19.333272    0.626361    0.638976    0.638976    0.000000    0.000000   -0.000000
   19.353183    0.627188    0.639779    0.639779    0.000000    0.000000   -0.000000
   19.373094    0.628013    0.640578    0.640578    0.000000    0.000000   -0.000000
   19.393004    0.628835    0.641375    0.641375    0.000000    0.000000   -0.000000
   19.412915    0.629654    0.642168    0.642168    0.000000    0.000000   -0.000000
   19.432826    0.630470    0.642959    0.642959    0.000000    0.000000   -0.000000
   19.452736    0.631284    0.643748    0.643748    0.000000    0.000000   -0.000000
   19.472647    0.632094    0.644533    0.644533    0.000000    0.000000   -0.000000
   19.492558    0.632902    0.645316    0.645316    0.000000    0.000000   -0.000000
   19.512468    0.633707    0.646096    0.646096    0.000000    0.000000   -0.000000
   19.532379    0.634509    0.646873    0.646873    0.000000    0.000000   -0.000000
   19.552290    0.635309    0.647648    0.647648    0.000000    0.000000   -0.000000
   19.572201    0.636105    0.648420    0.648420    0.000000    0.000000   -0.000000
   19.592111    0.636899    0.649189    0.649189    0.000000    0.000000   -0.000000
   19.612022    0.637691    0.649956    0.649956    0.000000    0.000000   -0.000000
   19.631933    0.638479    0.650720    0.650720    0.000000    0.000000   -0.000000
   19.651843    0.639265    0.651481    0.651481    0.000000    0.000000   -0.000000
   19.671754    0.640048    0.652240    0.652240    0.000000    0.000000   -0.000000
   19.691665    0.640828    0.652996    0.652996    0.000000    0.000000   -0.000000
   19.711575    0.641606    0.653749    0.653749    0.000000    0.000000   -0.000000
   19.731486    0.642381    0.654500    0.654500    0.000000    0.000000   -0.000000
   19.751397    0.643154    0.655249    0.655249    0.000000    0.000000   -0.000000
   19.771307    0.643924    0.655995    0.655995    0.000000    0.000000   -0.000000
   19.791218    0.644691    0.656738    0.656738    0.000000    0.000000   -0.000000
   19.811129    0.645456    0.657479    0.657479    0.000000    0.000000   -0.000000
   19.831039    0.646218    0.658217    0.658217    0.000000    0.000000   -0.000000
   19.850950    0.646978    0.658953    0.658953    0.000000    0.000000   -0.000000
   19.870861    0.647735    0.659686    0.659686    0.000000    0.000000   -0.000000
   19.890771    0.648489    0.660417    0.660417    0.000000    0.000000   -0.000000
 
 The outermost node in the dielectric function lies at epsilon=  12.4


--------------------------------------------------------------------------------------------------------


    OPTICS:  cpu time     34.9320: real time     35.5362
    4ORBIT:  cpu time      0.0000: real time      0.0000
 BZINTS: Fermi energy:    2.303461;  256.000000 electrons
         Band energy:-0.725575E+03;  BLOECHL correction:    0.000000

 total amount of memory used by VASP MPI-rank0   363342. kBytes
=======================================================================

   base      :      30000. kBytes
   nonl-proj :     133275. kBytes
   fftplans  :       7212. kBytes
   grid      :      18251. kBytes
   one-center:        519. kBytes
   wavefun   :     174085. kBytes
 
  
  
 General timing and accounting informations for this job:
 ========================================================
  
                  Total CPU time used (sec):    11525.614
                            User time (sec):    11184.944
                          System time (sec):      340.670
                         Elapsed time (sec):    11683.744
  
                   Maximum memory used (kb):     1881740.
                   Average memory used (kb):          N/A
  
                          Minor page faults:       170791
                          Major page faults:          271
                 Voluntary context switches:        22639
