 running    8 mpi-ranks, on    1 nodes
 distrk:  each k-point on    8 cores,    1 groups
 distr:  one band on    1 cores,    8 groups
 vasp.6.4.3 19Mar24 (build Aug 29 2024 15:27:20) complex                        
  
 POSCAR found type information on POSCAR AsGa
 POSCAR found :  2 types and      64 ions
 scaLAPACK will be used
 -----------------------------------------------------------------------------
|                                                                             |
|           W    W    AA    RRRRR   N    N  II  N    N   GGGG   !!!           |
|           W    W   A  A   R    R  NN   N  II  NN   N  G    G  !!!           |
|           W    W  A    A  R    R  N N  N  II  N N  N  G       !!!           |
|           W WW W  AAAAAA  RRRRR   N  N N  II  N  N N  G  GGG   !            |
|           WW  WW  A    A  R   R   N   NN  II  N   NN  G    G                |
|           W    W  A    A  R    R  N    N  II  N    N   GGGG   !!!           |
|                                                                             |
|     For optimal performance we recommend to set                             |
|       NCORE = 2 up to number-of-cores-per-socket                            |
|     NCORE specifies how many cores store one orbital (NPAR=cpu/NCORE).      |
|     This setting can greatly improve the performance of VASP for DFT.       |
|     The default, NCORE=1 might be grossly inefficient on modern             |
|     multi-core architectures or massively parallel machines. Do your        |
|     own testing! More info at https://www.vasp.at/wiki/index.php/NCORE      |
|     Unfortunately you need to use the default for GW and RPA                |
|     calculations (for HF NCORE is supported but not extensively tested      |
|     yet).                                                                   |
|                                                                             |
 -----------------------------------------------------------------------------

 -----------------------------------------------------------------------------
|                                                                             |
|               ----> ADVICE to this user running VASP <----                  |
|                                                                             |
|     You have a (more or less) 'large supercell' and for larger cells it     |
|     might be more efficient to use real-space projection operators.         |
|     Therefore, try LREAL= Auto in the INCAR file.                           |
|     Mind: For very accurate calculation, you might also keep the            |
|     reciprocal projection scheme (i.e. LREAL=.FALSE.).                      |
|                                                                             |
 -----------------------------------------------------------------------------

 LDA part: xc-table for (Slater+PW92), standard interpolation
 POSCAR, INCAR and KPOINTS ok, starting setup
 FFT: planning ... GRIDC
 FFT: planning ... GRID_SOFT
 FFT: planning ... GRID
 WAVECAR not read
 entering main loop
       N       E                     dE             d eps       ncg     rms          rms(c)
DAV:   1     0.933799972945E+03    0.93380E+03   -0.80782E+04  6048   0.101E+03
DAV:   2    -0.166908942609E+03   -0.11007E+04   -0.10490E+04  7192   0.169E+02
DAV:   3    -0.267601543096E+03   -0.10069E+03   -0.99316E+02  7416   0.522E+01
DAV:   4    -0.270113885911E+03   -0.25123E+01   -0.24839E+01  7248   0.862E+00
DAV:   5    -0.270186806421E+03   -0.72921E-01   -0.72647E-01  7424   0.130E+00    0.201E+01
DAV:   6    -0.266008413849E+03    0.41784E+01   -0.65322E+00  7064   0.358E+00    0.118E+01
DAV:   7    -0.265185961525E+03    0.82245E+00   -0.43017E+00  7288   0.299E+00    0.244E+00
DAV:   8    -0.265144781874E+03    0.41180E-01   -0.50341E-01  7080   0.109E+00    0.615E-01
DAV:   9    -0.265156628158E+03   -0.11846E-01   -0.35718E-02  6952   0.392E-01    0.232E-01
DAV:  10    -0.265157683817E+03   -0.10557E-02   -0.96152E-04  7600   0.588E-02    0.109E-01
DAV:  11    -0.265159007903E+03   -0.13241E-02   -0.22114E-03  6512   0.876E-02    0.500E-02
DAV:  12    -0.265159015261E+03   -0.73573E-05   -0.30013E-05  7432   0.113E-02    0.226E-02
DAV:  13    -0.265159024556E+03   -0.92951E-05   -0.78859E-05  6904   0.134E-02    0.985E-03
DAV:  14    -0.265159023923E+03    0.63249E-06   -0.41356E-06  6024   0.392E-03
 Linear response reoptimize wavefunctions to high precision
DAV:   1    -0.265159024460E+03   -0.53700E-06   -0.22222E-06  7168   0.198E-03
DAV:   2    -0.265159024469E+03   -0.91186E-08   -0.90182E-08  6088   0.556E-04
DAV:   3    -0.265159024469E+03   -0.10732E-09   -0.17007E-09  3776   0.807E-05
 Linear response G [H, r] |phi>, progress :
  Direction:   1
       N       E                     dE             d eps       ncg     rms
RMM:   1    -0.127274714773E+04   -0.12727E+04    0.18081E+03 14185   0.840E+01
RMM:   2    -0.109895201707E+04    0.17380E+03   -0.20499E+02  9789   0.227E+01
RMM:   3    -0.110129290570E+04   -0.23409E+01   -0.10015E+01 10084   0.379E+00
RMM:   4    -0.110141662354E+04   -0.12372E+00   -0.31614E-01 10488   0.671E-01
RMM:   5    -0.110141902547E+04   -0.24019E-02   -0.22833E-02 10536   0.144E-01
RMM:   6    -0.110141900884E+04    0.16631E-04   -0.46037E-03 11132   0.393E-02
RMM:   7    -0.110141886219E+04    0.14665E-03   -0.21625E-03 11660   0.200E-02
RMM:   8    -0.110141896236E+04   -0.10017E-03   -0.26438E-03 12361   0.169E-02
RMM:   9    -0.110141882861E+04    0.13376E-03   -0.15229E-03 12584   0.164E-02
RMM:  10    -0.110141898968E+04   -0.16107E-03   -0.33634E-03 12814   0.164E-02
RMM:  11    -0.110141883661E+04    0.15306E-03   -0.16620E-03 13101   0.164E-02
 Linear response G [H, r] |phi>, progress :
  Direction:   2
       N       E                     dE             d eps       ncg     rms
RMM:   1    -0.126205529983E+04   -0.12621E+04    0.17597E+03 14276   0.837E+01
RMM:   2    -0.110081949090E+04    0.16124E+03   -0.20489E+02  9757   0.227E+01
RMM:   3    -0.110282053058E+04   -0.20010E+01   -0.10225E+01 10082   0.376E+00
RMM:   4    -0.110290374336E+04   -0.83213E-01   -0.51986E-01 10472   0.661E-01
RMM:   5    -0.110289169238E+04    0.12051E-01   -0.88434E-02 10481   0.143E-01
RMM:   6    -0.110288674289E+04    0.49495E-02   -0.19968E-02 11115   0.395E-02
RMM:   7    -0.110288556850E+04    0.11744E-02   -0.70722E-03 11690   0.201E-02
RMM:   8    -0.110288527648E+04    0.29203E-03   -0.36210E-03 12425   0.170E-02
RMM:   9    -0.110288518133E+04    0.95143E-04   -0.32133E-03 12600   0.166E-02
RMM:  10    -0.110288520277E+04   -0.21440E-04   -0.32006E-03 12889   0.165E-02
RMM:  11    -0.110288518467E+04    0.18106E-04   -0.32462E-03 13170   0.165E-02
 Linear response G [H, r] |phi>, progress :
  Direction:   3
       N       E                     dE             d eps       ncg     rms
RMM:   1    -0.138107125606E+04   -0.13811E+04    0.14133E+03 14626   0.858E+01
RMM:   2    -0.110613358372E+04    0.27494E+03   -0.23596E+02  9797   0.240E+01
RMM:   3    -0.110829944526E+04   -0.21659E+01   -0.11571E+01 10076   0.399E+00
RMM:   4    -0.110840429394E+04   -0.10485E+00   -0.55599E-01 10530   0.694E-01
RMM:   5    -0.110839153251E+04    0.12761E-01   -0.10283E-01 10501   0.150E-01
RMM:   6    -0.110838627608E+04    0.52564E-02   -0.29372E-02 11132   0.418E-02
RMM:   7    -0.110838489084E+04    0.13852E-02   -0.14830E-02 11770   0.219E-02
RMM:   8    -0.110838454287E+04    0.34797E-03   -0.12244E-02 12460   0.187E-02
RMM:   9    -0.110838460926E+04   -0.66391E-04   -0.11735E-02 12634   0.183E-02
RMM:  10    -0.110838457847E+04    0.30796E-04   -0.11121E-02 12886   0.183E-02
RMM:  11    -0.110838458597E+04   -0.75011E-05   -0.10893E-02 13176   0.183E-02
 Linear response to external field, progress :
  Direction:   1
       N       E                     dE             d eps       ncg     rms          rms(c)
RMM:   1    -0.110236872324E+03   -0.11024E+03   -0.82551E+02 15504   0.669E+00
RMM:   2    -0.270239209323E+03   -0.16000E+03   -0.10273E+01 14769   0.148E+00    0.122E+01
RMM:   3    -0.267085275848E+03    0.31539E+01   -0.10445E+00 14725   0.164E+00    0.716E+00
RMM:   4    -0.258889347533E+03    0.81959E+01   -0.16242E+00 14215   0.225E+00    0.770E-01
RMM:   5    -0.258179645261E+03    0.70970E+00   -0.64397E-02 15032   0.458E-01    0.134E-01
RMM:   6    -0.258115510739E+03    0.64135E-01   -0.12970E-03 15381   0.898E-02    0.743E-02
RMM:   7    -0.258050582190E+03    0.64929E-01    0.20177E-03 15051   0.642E-02    0.252E-02
RMM:   8    -0.258036520327E+03    0.14062E-01    0.62075E-04 15725   0.112E-02    0.703E-03
RMM:   9    -0.258042132342E+03   -0.56120E-02    0.11918E-04 15891   0.683E-03    0.147E-03
RMM:  10    -0.258041641422E+03    0.49092E-03    0.19411E-04 16195   0.223E-03    0.418E-04
RMM:  11    -0.258041543819E+03    0.97603E-04   -0.80306E-05 15856   0.203E-03    0.728E-05
RMM:  12    -0.258041561829E+03   -0.18010E-04   -0.12363E-04 14375   0.190E-03    0.333E-05
RMM:  13    -0.258041546836E+03    0.14993E-04   -0.84490E-05 14430   0.189E-03    0.644E-06
 change of polarisation eV/A/(eV/A) component  1 :   535.884    -8.470   -12.765
 dielectric tensor                  component  1 :    64.079    -0.997    -1.503
 Linear response to external field, progress :
  Direction:   2
       N       E                     dE             d eps       ncg     rms          rms(c)
RMM:   1    -0.178766825899E+03   -0.17877E+03   -0.14436E+03 22606   0.679E+00
RMM:   2    -0.115212446614E+04   -0.97336E+03   -0.14729E+01 21461   0.153E+00    0.172E+01
RMM:   3    -0.114766545358E+04    0.44590E+01   -0.18519E+00 21286   0.199E+00    0.100E+01
RMM:   4    -0.113393019917E+04    0.13735E+02   -0.20697E+00 20081   0.277E+00    0.852E-01
RMM:   5    -0.113290393471E+04    0.10263E+01   -0.28116E-01 21935   0.679E-01    0.248E-01
RMM:   6    -0.113262901888E+04    0.27492E+00   -0.20352E-02 20374   0.116E-01    0.131E-01
RMM:   7    -0.113250455600E+04    0.12446E+00   -0.77849E-03 21994   0.913E-02    0.211E-02
RMM:   8    -0.113249857611E+04    0.59799E-02   -0.19415E-03 23204   0.110E-02    0.896E-03
RMM:   9    -0.113249591630E+04    0.26598E-02   -0.70920E-04 22880   0.101E-02    0.143E-03
RMM:  10    -0.113249473712E+04    0.11792E-02   -0.40613E-04 24077   0.286E-03    0.579E-04
RMM:  11    -0.113249498213E+04   -0.24501E-03   -0.12262E-04 24071   0.260E-03    0.151E-04
RMM:  12    -0.113249506383E+04   -0.81703E-04    0.15458E-04 24012   0.235E-03    0.581E-05
RMM:  13    -0.113249502950E+04    0.34328E-04   -0.12328E-04 24018   0.233E-03    0.134E-05
RMM:  14    -0.113249503850E+04   -0.89967E-05   -0.20587E-04 24578   0.233E-03    0.448E-06
 change of polarisation eV/A/(eV/A) component  2 :    -4.525  2298.370   -13.203
 dielectric tensor                  component  2 :    -0.533   271.542    -1.554
 Linear response to external field, progress :
  Direction:   3
       N       E                     dE             d eps       ncg     rms          rms(c)
RMM:   1    -0.178756942003E+03   -0.17876E+03   -0.14435E+03 22603   0.679E+00
RMM:   2    -0.115212493788E+04   -0.97337E+03   -0.14725E+01 21465   0.153E+00    0.172E+01
RMM:   3    -0.114754106718E+04    0.45839E+01   -0.60474E-01 21289   0.199E+00    0.100E+01
RMM:   4    -0.113390424652E+04    0.13637E+02   -0.18026E+00 20078   0.277E+00    0.852E-01
RMM:   5    -0.113289724933E+04    0.10070E+01   -0.20150E-01 21927   0.679E-01    0.248E-01
RMM:   6    -0.113262786451E+04    0.26938E+00   -0.88373E-03 20365   0.116E-01    0.131E-01
RMM:   7    -0.113250403995E+04    0.12382E+00   -0.14747E-03 21995   0.913E-02    0.211E-02
RMM:   8    -0.113249877593E+04    0.52640E-02    0.42747E-04 23202   0.109E-02    0.897E-03
RMM:   9    -0.113249609970E+04    0.26762E-02    0.94149E-05 22876   0.100E-02    0.143E-03
RMM:  10    -0.113249491265E+04    0.11870E-02    0.10109E-03 24084   0.283E-03    0.579E-04
RMM:  11    -0.113249517842E+04   -0.26577E-03   -0.97703E-05 24060   0.258E-03    0.149E-04
RMM:  12    -0.113249524812E+04   -0.69704E-04   -0.45156E-04 23976   0.233E-03    0.576E-05
RMM:  13    -0.113249521796E+04    0.30156E-04   -0.17472E-04 23969   0.231E-03    0.132E-05
RMM:  14    -0.113249522226E+04   -0.42909E-05   -0.12562E-04 24519   0.231E-03    0.444E-06
 change of polarisation eV/A/(eV/A) component  3 :   -11.702    -3.647  2298.371
 dielectric tensor                  component  3 :    -1.378    -0.429   271.542
 Born effective charges drift removed
   1 F= -.26515902E+03 E0= -.26515902E+03  d E =-.265159E+03
 curvature:   0.00 expect dE= 0.000E+00 dE for cont linesearch  0.000E+00
 trial: gam= 0.00000 g(F)=  0.142E-57 g(S)=  0.000E+00 ort = 0.000E+00 (trialstep = 0.100E+01)
 search vector abs. value=  0.100E-09
 reached required accuracy - stopping structural energy minimisation
 writing wavefunctions
 optical routines
 imaginary and real dielectric function
 recalculating local potential from charge density
 direction            1
 direction            2
 direction            3
