<?xml version="1.0" encoding="ISO-8859-1"?>
<modeling>
 <generator>
  <i name="program" type="string">vasp </i>
  <i name="version" type="string">6.4.3  </i>
  <i name="subversion" type="string">19Mar24 (build Aug 29 2024 15:27:20) complex                          parallel </i>
  <i name="platform" type="string">LinuxIFC </i>
  <i name="date" type="string">2025 03 24 </i>
  <i name="time" type="string">12:04:43 </i>
 </generator>
 <incar>
  <i type="string" name="SYSTEM">GaAs</i>
  <i type="string" name="PREC">Normal</i>
  <i type="int" name="IBRION">     2</i>
  <i type="int" name="NFREE">     2</i>
  <i type="int" name="NSW">   100</i>
  <i type="int" name="ISIF">     2</i>
  <i name="ENCUT">    400.00000000</i>
  <i name="POTIM">      0.10000000</i>
  <i type="int" name="ISMEAR">    -5</i>
  <i name="SIGMA">      0.10000000</i>
  <i type="logical" name="LOPTICS"> T  </i>
  <i type="logical" name="LEPSILON"> T  </i>
 </incar>
 <primitive_cell>
  <structure name="primitive_cell" >
   <crystal>
    <varray name="basis" >
     <v>       2.91051696       0.00000000       2.87276669 </v>
     <v>       2.91051696       0.00000000      -2.87276669 </v>
     <v>      -2.91051696       2.87276669       0.00000000 </v>
    </varray>
    <i name="volume">     48.03976145 </i>
    <varray name="rec_basis" >
     <v>       0.17179079       0.17404824       0.17404824 </v>
     <v>       0.17179079       0.17404824      -0.17404824 </v>
     <v>       0.00000000       0.34809649       0.00000000 </v>
    </varray>
   </crystal>
   <varray name="positions" >
    <v>       0.00000000       0.00000000       0.00000000 </v>
    <v>       0.75000000       0.25000000       0.50000000 </v>
   </varray>
  </structure>
  <varray name="primitive_index" >
   <v type="int" >        1 </v>
   <v type="int" >       33 </v>
  </varray>
 </primitive_cell>
 <kpoints>
  <generation param="Gamma">
   <v type="int" name="divisions">       5        5        5 </v>
   <v name="usershift">      0.00000000       0.00000000       0.00000000 </v>
   <v name="genvec1">      0.20000000       0.00000000       0.00000000 </v>
   <v name="genvec2">      0.00000000       0.20000000       0.00000000 </v>
   <v name="genvec3">      0.00000000       0.00000000       0.20000000 </v>
   <v name="shift">      0.00000000       0.00000000       0.00000000 </v>
  </generation>
  <varray name="kpointlist" >
   <v>       0.00000000       0.00000000       0.00000000 </v>
   <v>       0.20000000       0.00000000       0.00000000 </v>
   <v>       0.40000000       0.00000000       0.00000000 </v>
   <v>       0.00000000       0.20000000       0.00000000 </v>
   <v>       0.20000000       0.20000000       0.00000000 </v>
   <v>       0.40000000       0.20000000       0.00000000 </v>
   <v>       0.00000000       0.40000000       0.00000000 </v>
   <v>       0.20000000       0.40000000       0.00000000 </v>
   <v>       0.40000000       0.40000000       0.00000000 </v>
   <v>       0.00000000       0.20000000       0.20000000 </v>
   <v>       0.20000000       0.20000000       0.20000000 </v>
   <v>       0.40000000       0.20000000       0.20000000 </v>
   <v>       0.00000000       0.40000000       0.20000000 </v>
   <v>       0.20000000       0.40000000       0.20000000 </v>
   <v>       0.40000000       0.40000000       0.20000000 </v>
   <v>       0.00000000       0.40000000       0.40000000 </v>
   <v>       0.20000000       0.40000000       0.40000000 </v>
   <v>       0.40000000       0.40000000       0.40000000 </v>
  </varray>
  <varray name="weights" >
   <v>       0.00800000 </v>
   <v>       0.01600000 </v>
   <v>       0.01600000 </v>
   <v>       0.03200000 </v>
   <v>       0.06400000 </v>
   <v>       0.06400000 </v>
   <v>       0.03200000 </v>
   <v>       0.06400000 </v>
   <v>       0.06400000 </v>
   <v>       0.03200000 </v>
   <v>       0.06400000 </v>
   <v>       0.06400000 </v>
   <v>       0.06400000 </v>
   <v>       0.12800000 </v>
   <v>       0.12800000 </v>
   <v>       0.03200000 </v>
   <v>       0.06400000 </v>
   <v>       0.06400000 </v>
  </varray>
  <varray name="tetrahedronlist"  type="int" >
   <v type="int" >        4       11       12       14       15 </v>
   <v type="int" >        4       11       14       14       15 </v>
   <v type="int" >        8       14       14       15       17 </v>
   <v type="int" >        4       12       14       15       15 </v>
   <v type="int" >        8       14       15       15       18 </v>
   <v type="int" >        4       14       15       17       18 </v>
   <v type="int" >        2       12       12       15       15 </v>
   <v type="int" >        4       12       15       15       15 </v>
   <v type="int" >       12       15       15       15       18 </v>
   <v type="int" >       10       15       15       18       18 </v>
   <v type="int" >        4       10       11       13       14 </v>
   <v type="int" >        4       11       13       14       14 </v>
   <v type="int" >        8       13       14       14       17 </v>
   <v type="int" >        4       10       13       13       14 </v>
   <v type="int" >        8       13       13       14       16 </v>
   <v type="int" >        4       13       14       16       17 </v>
   <v type="int" >        4       14       15       15       17 </v>
   <v type="int" >        4       14       15       17       17 </v>
   <v type="int" >        4       15       15       17       18 </v>
   <v type="int" >        4       15       17       18       18 </v>
   <v type="int" >        4       15       17       17       18 </v>
   <v type="int" >        8       15       18       18       18 </v>
   <v type="int" >        4       14       14       15       18 </v>
   <v type="int" >        4       14       15       18       18 </v>
   <v type="int" >        4       14       14       17       18 </v>
   <v type="int" >        4       14       17       17       18 </v>
   <v type="int" >        4       14       17       18       18 </v>
   <v type="int" >        4       13       13       14       17 </v>
   <v type="int" >        4       13       14       17       17 </v>
   <v type="int" >        4       13       13       16       17 </v>
   <v type="int" >        4       13       16       16       17 </v>
   <v type="int" >        4       13       16       17       17 </v>
   <v type="int" >        4       13       14       14       16 </v>
   <v type="int" >        4       13       14       16       16 </v>
   <v type="int" >        4       14       14       16       17 </v>
   <v type="int" >        4       14       16       17       17 </v>
   <v type="int" >        4       14       16       16       17 </v>
   <v type="int" >        4       12       14       15       17 </v>
   <v type="int" >        4       11       12       14       17 </v>
   <v type="int" >        4       12       15       17       18 </v>
   <v type="int" >        4       12       15       15       18 </v>
   <v type="int" >        4       12       12       15       18 </v>
   <v type="int" >        4       12       15       18       18 </v>
   <v type="int" >        4       11       14       15       18 </v>
   <v type="int" >        4       11       12       15       18 </v>
   <v type="int" >        4       11       14       17       18 </v>
   <v type="int" >        4       10       13       14       17 </v>
   <v type="int" >        4       10       11       14       17 </v>
   <v type="int" >        4       10       13       16       17 </v>
   <v type="int" >        4       11       13       14       16 </v>
   <v type="int" >        4       10       11       13       16 </v>
   <v type="int" >        4       11       14       16       17 </v>
   <v type="int" >        4        6       11       12       14 </v>
   <v type="int" >        4        5        6       11       14 </v>
   <v type="int" >        4        5        6        8       14 </v>
   <v type="int" >        4        6       12       14       15 </v>
   <v type="int" >        4        6        9       14       15 </v>
   <v type="int" >        4        6        8        9       14 </v>
   <v type="int" >        4        6       12       12       15 </v>
   <v type="int" >        4        6        6       12       15 </v>
   <v type="int" >        4        6        6        9       15 </v>
   <v type="int" >        4        6       12       15       15 </v>
   <v type="int" >        4        6        9       15       15 </v>
   <v type="int" >        4        6        9        9       15 </v>
   <v type="int" >        4        5       11       12       15 </v>
   <v type="int" >        4        5        6       12       15 </v>
   <v type="int" >        4        5        6        9       15 </v>
   <v type="int" >        4        5       11       14       15 </v>
   <v type="int" >        4        5        8       14       15 </v>
   <v type="int" >        4        5        8        9       15 </v>
   <v type="int" >        4        4       10       11       14 </v>
   <v type="int" >        4        4        5       11       14 </v>
   <v type="int" >        4        4        5        8       14 </v>
   <v type="int" >        4        4       10       13       14 </v>
   <v type="int" >        4        4        7       13       14 </v>
   <v type="int" >        4        4        7        8       14 </v>
   <v type="int" >        4        5       10       11       13 </v>
   <v type="int" >        4        4        5       10       13 </v>
   <v type="int" >        4        4        5        7       13 </v>
   <v type="int" >        4        5       11       13       14 </v>
   <v type="int" >        4        5        8       13       14 </v>
   <v type="int" >        4        5        7        8       13 </v>
   <v type="int" >        4        5        6        8       12 </v>
   <v type="int" >        4        5        8       11       12 </v>
   <v type="int" >        4        8       11       12       14 </v>
   <v type="int" >        4        6        8        9       12 </v>
   <v type="int" >        4        8        9       12       15 </v>
   <v type="int" >        4        8       12       14       15 </v>
   <v type="int" >        4        6        6        9       12 </v>
   <v type="int" >        4        6        9       12       12 </v>
   <v type="int" >        4        9       12       12       15 </v>
   <v type="int" >        4        6        9        9       12 </v>
   <v type="int" >        4        9        9       12       15 </v>
   <v type="int" >        4        9       12       15       15 </v>
   <v type="int" >        4        5        6        9       11 </v>
   <v type="int" >        4        6        9       11       12 </v>
   <v type="int" >        4        9       11       12       15 </v>
   <v type="int" >        4        5        8        9       11 </v>
   <v type="int" >        4        8        9       11       14 </v>
   <v type="int" >        4        9       11       14       15 </v>
   <v type="int" >        4        4        5        8       10 </v>
   <v type="int" >        4        5        8       10       11 </v>
   <v type="int" >        4        8       10       11       14 </v>
   <v type="int" >        4        4        7        8       10 </v>
   <v type="int" >        4        7        8       10       13 </v>
   <v type="int" >        4        8       10       13       14 </v>
   <v type="int" >        4        4        5        7       11 </v>
   <v type="int" >        4        4        7       10       11 </v>
   <v type="int" >        4        7       10       11       13 </v>
   <v type="int" >        4        5        7        8       11 </v>
   <v type="int" >        4        7        8       11       14 </v>
   <v type="int" >        4        7       11       13       14 </v>
   <v type="int" >        4       17       17       18       18 </v>
   <v type="int" >        4       17       17       17       18 </v>
   <v type="int" >        4       17       18       18       18 </v>
   <v type="int" >        6       18       18       18       18 </v>
   <v type="int" >        4       16       16       17       17 </v>
   <v type="int" >        4       16       17       17       17 </v>
   <v type="int" >        4       16       16       16       17 </v>
   <v type="int" >        4        9       14       14       15 </v>
   <v type="int" >        4        8        9       14       14 </v>
   <v type="int" >        4        8        8        9       14 </v>
   <v type="int" >        4        9       14       15       15 </v>
   <v type="int" >        4        9        9       14       15 </v>
   <v type="int" >        4        8        9        9       14 </v>
   <v type="int" >        8        9       15       15       15 </v>
   <v type="int" >        8        9        9       15       15 </v>
   <v type="int" >        8        9        9        9       15 </v>
   <v type="int" >        4        8       14       15       15 </v>
   <v type="int" >        4        8        9       15       15 </v>
   <v type="int" >        4        8        9        9       15 </v>
   <v type="int" >        4        8       14       14       15 </v>
   <v type="int" >        4        8        8       14       15 </v>
   <v type="int" >        4        8        8        9       15 </v>
   <v type="int" >        4        7       13       14       14 </v>
   <v type="int" >        4        7        8       14       14 </v>
   <v type="int" >        4        7        8        8       14 </v>
   <v type="int" >        4        7       13       13       14 </v>
   <v type="int" >        4        7        7       13       14 </v>
   <v type="int" >        4        7        7        8       14 </v>
   <v type="int" >        4        8       13       13       14 </v>
   <v type="int" >        4        7        8       13       13 </v>
   <v type="int" >        4        7        7        8       13 </v>
   <v type="int" >        4        8       13       14       14 </v>
   <v type="int" >        4        8        8       13       14 </v>
   <v type="int" >        4        7        8        8       13 </v>
   <v type="int" >        4        5        6       11       12 </v>
   <v type="int" >        4        5        5        6       11 </v>
   <v type="int" >        4        2        5        5        6 </v>
   <v type="int" >        4        5        6        6       12 </v>
   <v type="int" >        4        3        5        6        6 </v>
   <v type="int" >        4        2        3        5        6 </v>
   <v type="int" >        2        6        6       12       12 </v>
   <v type="int" >        4        6        6        6       12 </v>
   <v type="int" >        4        3        6        6        6 </v>
   <v type="int" >        2        3        3        6        6 </v>
   <v type="int" >        4        4        5       10       11 </v>
   <v type="int" >        4        4        5        5       11 </v>
   <v type="int" >        4        2        4        5        5 </v>
   <v type="int" >        4        4        4        5       10 </v>
   <v type="int" >        4        1        4        4        5 </v>
   <v type="int" >        4        1        2        4        5 </v>
   <v type="int" >        4        2        5        6       12 </v>
   <v type="int" >        4        2        5       11       12 </v>
   <v type="int" >        4        2        3        6       12 </v>
   <v type="int" >        4        3        6        6       12 </v>
   <v type="int" >        4        3        6       12       12 </v>
   <v type="int" >        4        3        3        6       12 </v>
   <v type="int" >        4        3        5        6       11 </v>
   <v type="int" >        4        3        6       11       12 </v>
   <v type="int" >        4        2        3        5       11 </v>
   <v type="int" >        4        2        4        5       10 </v>
   <v type="int" >        4        2        5       10       11 </v>
   <v type="int" >        4        1        2        4       10 </v>
   <v type="int" >        4        1        4        5       11 </v>
   <v type="int" >        4        1        4       10       11 </v>
   <v type="int" >        4        1        2        5       11 </v>
  </varray>
  <i name="volumeweight">      0.00133333 </i>
 </kpoints>
 <parameters>
  <separator name="general" >
   <i type="string" name="SYSTEM">GaAs</i>
   <i type="logical" name="LCOMPAT"> F  </i>
  </separator>
  <separator name="electronic" >
   <i type="string" name="PREC">normal</i>
   <i name="ENMAX">    400.00000000</i>
   <i name="ENAUG">    462.75800000</i>
   <i name="EDIFF">      0.00000100</i>
   <i type="int" name="IALGO">    38</i>
   <i type="int" name="IWAVPR">    11</i>
   <i type="int" name="NBANDS">   168</i>
   <i type="int" name="NBANDSLOW">    -1</i>
   <i type="int" name="NBANDSHIGH">    -1</i>
   <i name="NELECT">    256.00000000</i>
   <i type="int" name="TURBO">     0</i>
   <i type="int" name="IRESTART">     0</i>
   <i type="int" name="NREBOOT">     0</i>
   <i type="int" name="NMIN">     0</i>
   <i name="EREF">      0.00000000</i>
   <separator name="electronic smearing" >
    <i type="int" name="ISMEAR">    -5</i>
    <i name="SIGMA">      0.10000000</i>
    <i name="KSPACING">      0.50000000</i>
    <i type="logical" name="KGAMMA"> T  </i>
    <i type="logical" name="KBLOWUP"> T  </i>
   </separator>
   <separator name="electronic projectors" >
    <i type="logical" name="LREAL"> F  </i>
    <v name="ROPT">      0.00000000      0.00000000</v>
    <i type="int" name="LMAXPAW">  -100</i>
    <i type="int" name="LMAXMIX">     2</i>
    <i type="logical" name="NLSPLINE"> F  </i>
   </separator>
   <separator name="electronic startup" >
    <i type="int" name="ISTART">     0</i>
    <i type="int" name="ICHARG">     2</i>
    <i type="int" name="INIWAV">     1</i>
   </separator>
   <separator name="electronic spin" >
    <i type="int" name="ISPIN">     1</i>
    <i type="logical" name="LNONCOLLINEAR"> F  </i>
    <v name="MAGMOM">      1.00000000      1.00000000      1.00000000      1.00000000      1.00000000      1.00000000      1.00000000      1.00000000      1.00000000      1.00000000      1.00000000      1.00000000      1.00000000      1.00000000      1.00000000      1.00000000      1.00000000      1.00000000      1.00000000      1.00000000
      1.00000000      1.00000000      1.00000000      1.00000000      1.00000000      1.00000000      1.00000000      1.00000000      1.00000000      1.00000000      1.00000000      1.00000000      1.00000000      1.00000000      1.00000000      1.00000000      1.00000000      1.00000000      1.00000000      1.00000000
      1.00000000      1.00000000      1.00000000      1.00000000      1.00000000      1.00000000      1.00000000      1.00000000      1.00000000      1.00000000      1.00000000      1.00000000      1.00000000      1.00000000      1.00000000      1.00000000      1.00000000      1.00000000      1.00000000      1.00000000
      1.00000000      1.00000000      1.00000000      1.00000000</v>
    <i name="NUPDOWN">     -1.00000000</i>
    <i type="logical" name="LSORBIT"> F  </i>
    <v name="SAXIS">      0.00000000      0.00000000      1.00000000</v>
    <i type="logical" name="LSPIRAL"> F  </i>
    <v name="QSPIRAL">      0.00000000      0.00000000      0.00000000</v>
    <i type="logical" name="LZEROZ"> F  </i>
   </separator>
   <separator name="electronic exchange-correlation" >
    <i type="logical" name="LASPH"> F  </i>
   </separator>
   <separator name="electronic convergence" >
    <i type="int" name="NELM">    60</i>
    <i type="int" name="NELMDL">    -5</i>
    <i type="int" name="NELMIN">     2</i>
    <i name="ENINI">    400.00000000</i>
    <separator name="electronic convergence detail" >
     <i type="logical" name="LDIAG"> T  </i>
     <i type="logical" name="LSUBROT"> F  </i>
     <i name="WEIMIN">      0.00100000</i>
     <i name="EBREAK">      0.00000000</i>
     <i name="DEPER">      0.30000000</i>
     <i type="int" name="NRMM">     4</i>
     <i name="TIME">      0.40000000</i>
    </separator>
   </separator>
   <separator name="electronic mixer" >
    <i name="AMIX">      0.40000000</i>
    <i name="BMIX">      1.00000000</i>
    <i name="AMIN">      0.10000000</i>
    <i name="AMIX_MAG">      1.60000000</i>
    <i name="BMIX_MAG">      1.00000000</i>
    <separator name="electronic mixer details" >
     <i type="int" name="IMIX">     4</i>
     <i type="logical" name="MIXFIRST"> F  </i>
     <i type="int" name="MAXMIX">   -45</i>
     <i name="WC">    100.00000000</i>
     <i type="int" name="INIMIX">     1</i>
     <i type="int" name="MIXPRE">     1</i>
     <i type="int" name="MREMOVE">     5</i>
    </separator>
   </separator>
   <separator name="electronic dipolcorrection" >
    <i type="logical" name="LDIPOL"> F  </i>
    <i type="logical" name="LMONO"> F  </i>
    <i type="int" name="IDIPOL">     0</i>
    <i name="EPSILON">      1.00000000</i>
    <v name="DIPOL">   -100.00000000   -100.00000000   -100.00000000</v>
    <i name="EFIELD">      0.00000000</i>
    <i type="logical" name="LVACPOTAV"> F  </i>
   </separator>
  </separator>
  <separator name="grids" >
   <i type="int" name="NGX">    60</i>
   <i type="int" name="NGY">    56</i>
   <i type="int" name="NGZ">    56</i>
   <i type="int" name="NGXF">   120</i>
   <i type="int" name="NGYF">   112</i>
   <i type="int" name="NGZF">   112</i>
   <i type="logical" name="ADDGRID"> F  </i>
  </separator>
  <separator name="ionic" >
   <i type="int" name="NSW">   100</i>
   <i type="int" name="IBRION">     2</i>
   <i type="int" name="MDALGO">     0</i>
   <i type="int" name="ISIF">     2</i>
   <i name="PSTRESS">      0.00000000</i>
   <i name="EDIFFG">      0.00100000</i>
   <i type="int" name="NFREE">     2</i>
   <i name="POTIM">      0.10000000</i>
   <i name="SMASS">     -3.00000000</i>
   <i name="SCALEE">      1.00000000</i>
  </separator>
  <separator name="ionic md" >
   <i name="TEBEG">      0.00010000</i>
   <i name="TEEND">      0.00010000</i>
   <i type="int" name="NBLOCK">     1</i>
   <i type="int" name="KBLOCK">   100</i>
   <i type="int" name="NPACO">   256</i>
   <i name="APACO">     10.00000000</i>
  </separator>
  <separator name="symmetry" >
   <i type="int" name="ISYM">     2</i>
   <i name="SYMPREC">      0.00001000</i>
  </separator>
  <separator name="dos" >
   <i type="int" name="LORBIT">     0</i>
   <v name="RWIGS">     -1.00000000     -1.00000000</v>
   <i type="int" name="NEDOS">   301</i>
   <i name="EMIN">     10.00000000</i>
   <i name="EMAX">    -10.00000000</i>
   <i name="EFERMI">      0.00000000</i>
  </separator>
  <separator name="writing" >
   <i type="int" name="NWRITE">     2</i>
   <i type="logical" name="LWAVE"> T  </i>
   <i type="logical" name="LDOWNSAMPLE"> F  </i>
   <i type="logical" name="LCHARG"> T  </i>
   <i type="logical" name="LPARD"> F  </i>
   <i type="logical" name="LVTOT"> F  </i>
   <i type="logical" name="LVHAR"> F  </i>
   <i type="logical" name="LELF"> F  </i>
   <i type="logical" name="LOPTICS"> T  </i>
   <v name="STM">      0.00000000      0.00000000      0.00000000      0.00000000      0.00000000      0.00000000      0.00000000</v>
  </separator>
  <separator name="performance" >
   <i type="int" name="NPAR">     8</i>
   <i type="int" name="NSIM">     4</i>
   <i type="int" name="NBLK">    -1</i>
   <i type="logical" name="LPLANE"> T  </i>
   <i type="logical" name="LSCALAPACK"> T  </i>
   <i type="logical" name="LSCAAWARE"> F  </i>
   <i type="logical" name="LSCALU"> F  </i>
   <i type="logical" name="LASYNC"> F  </i>
   <i type="logical" name="LORBITALREAL"> F  </i>
  </separator>
  <separator name="miscellaneous" >
   <i type="int" name="IDIOT">     3</i>
   <i type="int" name="PHON_NSTRUCT">    -1</i>
   <i type="logical" name="LMUSIC"> F  </i>
   <v name="POMASS">     74.92200000     69.72300000</v>
   <v name="DARWINR">      0.00000000      0.00000000</v>
   <v name="DARWINV">      1.00000000      1.00000000</v>
   <i type="logical" name="LCORR"> T  </i>
  </separator>
  <i type="logical" name="GGA_COMPAT"> T  </i>
  <i type="logical" name="LBERRY"> F  </i>
  <i type="int" name="ICORELEVEL">     0</i>
  <i type="logical" name="LDAU"> F  </i>
  <i type="int" name="I_CONSTRAINED_M">     0</i>
  <separator name="electronic exchange-correlation" >
   <i type="string" name="GGA    ">PE</i>
   <i type="string" name="XC_C">1</i>
   <i type="int" name="VOSKOWN">     0</i>
   <i type="logical" name="LHFCALC"> F  </i>
   <i type="string" name="PRECFOCK"></i>
   <i type="logical" name="LSYMGRAD"> F  </i>
   <i type="logical" name="LHFONE"> F  </i>
   <i type="logical" name="LRHFCALC"> F  </i>
   <i type="logical" name="LTHOMAS"> F  </i>
   <i type="logical" name="LMODELHF"> F  </i>
   <i type="logical" name="LFOCKACE"> F  </i>
   <i name="ENCUT4O">     -1.00000000</i>
   <i type="int" name="EXXOEP">     0</i>
   <i type="int" name="FOURORBIT">     0</i>
   <i name="AEXX">      0.00000000</i>
   <i name="HFALPHA">      0.00000000</i>
   <i name="MCALPHA">      0.00000000</i>
   <i name="ALDAX">      1.00000000</i>
   <i name="AGGAX">      1.00000000</i>
   <i name="AMGGAX">      1.00000000</i>
   <i name="ALDAC">      1.00000000</i>
   <i name="AGGAC">      1.00000000</i>
   <i name="AMGGAC">      1.00000000</i>
   <i type="int" name="NKREDX">     1</i>
   <i type="int" name="NKREDY">     1</i>
   <i type="int" name="NKREDZ">     1</i>
   <i type="logical" name="SHIFTRED"> F  </i>
   <i type="logical" name="ODDONLY"> F  </i>
   <i type="logical" name="EVENONLY"> F  </i>
   <i type="int" name="LMAXFOCK">     0</i>
   <i type="int" name="NMAXFOCKAE">     0</i>
   <i type="logical" name="LFOCKAEDFT"> F  </i>
   <i name="HFSCREEN">      0.00000000</i>
   <i name="HFSCREENC">      0.00000000</i>
   <i type="int" name="NBANDSGWLOW">     0</i>
  </separator>
  <separator name="vdW DFT" >
   <i type="logical" name="LUSE_VDW"> F  </i>
   <i type="int" name="IVDW_NL">    -1</i>
   <i type="logical" name="LSPIN_VDW"> F  </i>
   <i name="ZAB_VDW">     -0.84910000</i>
   <i name="GAMMA_VDW">      1.39626340</i>
   <i name="ALPHA_VDW">      0.00000000</i>
   <i name="PARAM1">      0.12340000</i>
   <i name="PARAM2">      1.00000000</i>
   <i name="BPARAM">      6.30000000</i>
   <i name="CPARAM">      0.00930000</i>
  </separator>
  <separator name="model GW" >
   <i type="int" name="MODEL_GW">     0</i>
   <i name="MODEL_EPS0">     14.41192843</i>
   <i name="MODEL_ALPHA">      1.00000000</i>
  </separator>
  <separator name="linear response parameters" >
   <i type="logical" name="LEPSILON"> T  </i>
   <i type="logical" name="LRPA"> F  </i>
   <i type="logical" name="LNABLA"> F  </i>
   <i type="logical" name="LVEL"> F  </i>
   <i name="CSHIFT">      0.10000000</i>
   <i name="OMEGAMAX">     -1.00000000</i>
   <i name="DEG_THRESHOLD">      0.00200000</i>
   <i name="RTIME">     -0.10000000</i>
   <i name="WPLASMAI">      0.00000000</i>
   <v name="DFIELD">      0.00000000      0.00000000      0.00000000</v>
   <v name="WPLASMA">      0.00000000      0.00000000      0.00000000      0.00000000      0.00000000      0.00000000      0.00000000      0.00000000      0.00000000</v>
  </separator>
  <separator name="orbital magnetization" >
   <i type="logical" name="NUCIND"> F  </i>
   <v name="MAGPOS">      0.00000000      0.00000000      0.00000000</v>
   <i type="logical" name="LNICSALL"> T  </i>
   <i type="logical" name="ORBITALMAG"> F  </i>
   <i type="logical" name="LMAGBLOCH"> F  </i>
   <i type="logical" name="LCHIMAG"> F  </i>
   <i type="logical" name="LGAUGE"> T  </i>
   <i type="int" name="MAGATOM">     0</i>
   <v name="MAGDIPOL">      0.00000000      0.00000000      0.00000000</v>
   <v name="AVECCONST">      0.00000000      0.00000000      0.00000000</v>
  </separator>
  <separator name="response functions" >
   <i type="logical" name="LALL_IN_ONE"> F  </i>
   <i type="int" name="IALL_IN_ONE">    -1</i>
   <i type="int" name="NBANDS_WAVE">    -1</i>
   <i type="logical" name="LFINITE_TEMPERATURE"> F  </i>
   <i type="logical" name="LADDER"> F  </i>
   <i type="logical" name="LRPAFORCE"> F  </i>
   <i type="logical" name="LFXC"> F  </i>
   <i type="logical" name="LHARTREE"> T  </i>
   <i type="int" name="IBSE">     0</i>
   <v type="int" name="KPOINT">    -1     0     0     0</v>
   <i type="logical" name="LTCTC"> F  </i>
   <i type="logical" name="LTCTE"> F  </i>
   <i type="logical" name="LTETE"> F  </i>
   <i type="logical" name="LTRIPLET"> F  </i>
   <i type="logical" name="LFXCEPS"> F  </i>
   <i type="logical" name="LFXHEG"> F  </i>
   <i type="int" name="NATURALO">     2</i>
   <i type="logical" name="LHOLEGF"> F  </i>
   <i type="logical" name="L2ORDER"> F  </i>
   <i type="logical" name="LDMP1"> F  </i>
   <i type="logical" name="LMP2LT"> F  </i>
   <i type="logical" name="LSMP2LT"> F  </i>
   <i type="logical" name="LGWLF"> F  </i>
   <i name="ENCUTGW">     -1.60000002</i>
   <i name="ENCUTGWSOFT">     -1.60000002</i>
   <i name="ENCUTLF">     -1.00000000</i>
   <i type="logical" name="ESF_SPLINES"> F  </i>
   <i name="ESF_CONV">      0.01000000</i>
   <i type="int" name="ESF_NINTER">    15</i>
   <i type="int" name="LMAXMP2">    -1</i>
   <i name="SCISSOR">      0.00000000</i>
   <i type="int" name="NOMEGA">     0</i>
   <i type="int" name="NOMEGAR">     0</i>
   <i type="int" name="NBANDSGW">    -1</i>
   <i type="int" name="NBANDSO">    -1</i>
   <i type="int" name="NBANDSV">    -1</i>
   <i type="int" name="NELMGW">     1</i>
   <i type="int" name="NELMHF">     1</i>
   <i type="int" name="DIM">     3</i>
   <i type="int" name="IESPILON">     4</i>
   <i type="int" name="ANTIRES">     0</i>
   <i name="OMEGAMAX">    -30.00000000</i>
   <i name="OMEGAMIN">    -30.00000000</i>
   <i name="OMEGATL">   -200.00000000</i>
   <i type="int" name="OMEGAGRID">     0</i>
   <i name="CSHIFT">     -0.10000000</i>
   <i type="logical" name="LSELFENERGY"> F  </i>
   <i type="logical" name="LSPECTRAL"> F  </i>
   <i type="logical" name="LSPECTRALGW"> F  </i>
   <i type="logical" name="LSINGLES"> F  </i>
   <i type="logical" name="LFERMIGW"> F  </i>
   <i type="logical" name="ODDONLYGW"> F  </i>
   <i type="logical" name="EVENONLYGW"> F  </i>
   <i type="int" name="NKREDLFX">     1</i>
   <i type="int" name="NKREDLFY">     1</i>
   <i type="int" name="NKREDLFZ">     1</i>
   <i type="int" name="MAXMEM">  2800</i>
   <i type="int" name="TELESCOPE">     0</i>
   <i type="int" name="NTAUPAR">    -1</i>
   <i type="int" name="NOMEGAPAR">    -1</i>
   <i name="DAMP_NEWTON">      0.80000001</i>
   <i name="LAMBDA">      1.00000000</i>
  </separator>
  <separator name="External order field" >
   <i name="OFIELD_KAPPA">      0.00000000</i>
   <v name="OFIELD_K">      0.00000000      0.00000000      0.00000000</v>
   <i name="OFIELD_Q6_NEAR">      0.00000000</i>
   <i name="OFIELD_Q6_FAR">      0.00000000</i>
   <i name="OFIELD_A">      0.00000000</i>
  </separator>
  <separator name="optional k-points parameters" >
   <i type="int" name="KPOINTS_OPT_MODE">     1</i>
   <i type="logical" name="LKPOINTS_OPT"> F  </i>
  </separator>
 </parameters>
 <atominfo>
  <atoms>      64 </atoms>
  <types>       2 </types>
  <array name="atoms" >
   <dimension dim="1">ion</dimension>
   <field type="string">element</field>
   <field type="int">atomtype</field>
   <set>
    <rc><c>As</c><c>   1</c></rc>
    <rc><c>As</c><c>   1</c></rc>
    <rc><c>As</c><c>   1</c></rc>
    <rc><c>As</c><c>   1</c></rc>
    <rc><c>As</c><c>   1</c></rc>
    <rc><c>As</c><c>   1</c></rc>
    <rc><c>As</c><c>   1</c></rc>
    <rc><c>As</c><c>   1</c></rc>
    <rc><c>As</c><c>   1</c></rc>
    <rc><c>As</c><c>   1</c></rc>
    <rc><c>As</c><c>   1</c></rc>
    <rc><c>As</c><c>   1</c></rc>
    <rc><c>As</c><c>   1</c></rc>
    <rc><c>As</c><c>   1</c></rc>
    <rc><c>As</c><c>   1</c></rc>
    <rc><c>As</c><c>   1</c></rc>
    <rc><c>As</c><c>   1</c></rc>
    <rc><c>As</c><c>   1</c></rc>
    <rc><c>As</c><c>   1</c></rc>
    <rc><c>As</c><c>   1</c></rc>
    <rc><c>As</c><c>   1</c></rc>
    <rc><c>As</c><c>   1</c></rc>
    <rc><c>As</c><c>   1</c></rc>
    <rc><c>As</c><c>   1</c></rc>
    <rc><c>As</c><c>   1</c></rc>
    <rc><c>As</c><c>   1</c></rc>
    <rc><c>As</c><c>   1</c></rc>
    <rc><c>As</c><c>   1</c></rc>
    <rc><c>As</c><c>   1</c></rc>
    <rc><c>As</c><c>   1</c></rc>
    <rc><c>As</c><c>   1</c></rc>
    <rc><c>As</c><c>   1</c></rc>
    <rc><c>Ga</c><c>   2</c></rc>
    <rc><c>Ga</c><c>   2</c></rc>
    <rc><c>Ga</c><c>   2</c></rc>
    <rc><c>Ga</c><c>   2</c></rc>
    <rc><c>Ga</c><c>   2</c></rc>
    <rc><c>Ga</c><c>   2</c></rc>
    <rc><c>Ga</c><c>   2</c></rc>
    <rc><c>Ga</c><c>   2</c></rc>
    <rc><c>Ga</c><c>   2</c></rc>
    <rc><c>Ga</c><c>   2</c></rc>
    <rc><c>Ga</c><c>   2</c></rc>
    <rc><c>Ga</c><c>   2</c></rc>
    <rc><c>Ga</c><c>   2</c></rc>
    <rc><c>Ga</c><c>   2</c></rc>
    <rc><c>Ga</c><c>   2</c></rc>
    <rc><c>Ga</c><c>   2</c></rc>
    <rc><c>Ga</c><c>   2</c></rc>
    <rc><c>Ga</c><c>   2</c></rc>
    <rc><c>Ga</c><c>   2</c></rc>
    <rc><c>Ga</c><c>   2</c></rc>
    <rc><c>Ga</c><c>   2</c></rc>
    <rc><c>Ga</c><c>   2</c></rc>
    <rc><c>Ga</c><c>   2</c></rc>
    <rc><c>Ga</c><c>   2</c></rc>
    <rc><c>Ga</c><c>   2</c></rc>
    <rc><c>Ga</c><c>   2</c></rc>
    <rc><c>Ga</c><c>   2</c></rc>
    <rc><c>Ga</c><c>   2</c></rc>
    <rc><c>Ga</c><c>   2</c></rc>
    <rc><c>Ga</c><c>   2</c></rc>
    <rc><c>Ga</c><c>   2</c></rc>
    <rc><c>Ga</c><c>   2</c></rc>
   </set>
  </array>
  <array name="atomtypes" >
   <dimension dim="1">type</dimension>
   <field type="int">atomspertype</field>
   <field type="string">element</field>
   <field>mass</field>
   <field>valence</field>
   <field type="string">pseudopotential</field>
   <set>
    <rc><c>  32</c><c>As</c><c>     74.92200000</c><c>      5.00000000</c><c>  PAW_PBE As 22Sep2009                  </c></rc>
    <rc><c>  32</c><c>Ga</c><c>     69.72300000</c><c>      3.00000000</c><c>  PAW_PBE Ga 08Apr2002                  </c></rc>
   </set>
  </array>
 </atominfo>
 <structure name="initialpos" >
  <crystal>
   <varray name="basis" >
    <v>      11.64206783       0.00000000       0.00000000 </v>
    <v>       0.00000000      11.49106675       0.00000000 </v>
    <v>       0.00000000       0.00000000      11.49106675 </v>
   </varray>
   <i name="volume">   1537.27236638 </i>
   <varray name="rec_basis" >
    <v>       0.08589539       0.00000000       0.00000000 </v>
    <v>       0.00000000       0.08702412       0.00000000 </v>
    <v>       0.00000000       0.00000000       0.08702412 </v>
   </varray>
  </crystal>
  <varray name="positions" >
   <v>       0.00000000       0.00000000       0.00000000 </v>
   <v>       0.00000000       0.00000000       0.50000000 </v>
   <v>       0.00000000       0.50000000       0.00000000 </v>
   <v>       0.00000000       0.50000000       0.50000000 </v>
   <v>       0.50000000       0.00000000       0.00000000 </v>
   <v>       0.50000000       0.00000000       0.50000000 </v>
   <v>       0.50000000       0.50000000       0.00000000 </v>
   <v>       0.50000000       0.50000000       0.50000000 </v>
   <v>       0.25000000       0.25000000       0.00000000 </v>
   <v>       0.25000000       0.25000000       0.50000000 </v>
   <v>       0.25000000       0.75000000       0.00000000 </v>
   <v>       0.25000000       0.75000000       0.50000000 </v>
   <v>       0.75000000       0.25000000       0.00000000 </v>
   <v>       0.75000000       0.25000000       0.50000000 </v>
   <v>       0.75000000       0.75000000       0.00000000 </v>
   <v>       0.75000000       0.75000000       0.50000000 </v>
   <v>       0.25000000       0.00000000       0.25000000 </v>
   <v>       0.25000000       0.00000000       0.75000000 </v>
   <v>       0.25000000       0.50000000       0.25000000 </v>
   <v>       0.25000000       0.50000000       0.75000000 </v>
   <v>       0.75000000       0.00000000       0.25000000 </v>
   <v>       0.75000000       0.00000000       0.75000000 </v>
   <v>       0.75000000       0.50000000       0.25000000 </v>
   <v>       0.75000000       0.50000000       0.75000000 </v>
   <v>       0.00000000       0.25000000       0.25000000 </v>
   <v>       0.00000000       0.25000000       0.75000000 </v>
   <v>       0.00000000       0.75000000       0.25000000 </v>
   <v>       0.00000000       0.75000000       0.75000000 </v>
   <v>       0.50000000       0.25000000       0.25000000 </v>
   <v>       0.50000000       0.25000000       0.75000000 </v>
   <v>       0.50000000       0.75000000       0.25000000 </v>
   <v>       0.50000000       0.75000000       0.75000000 </v>
   <v>       0.12500000       0.12500000       0.12500000 </v>
   <v>       0.12500000       0.12500000       0.62500000 </v>
   <v>       0.12500000       0.62500000       0.12500000 </v>
   <v>       0.12500000       0.62500000       0.62500000 </v>
   <v>       0.62500000       0.12500000       0.12500000 </v>
   <v>       0.62500000       0.12500000       0.62500000 </v>
   <v>       0.62500000       0.62500000       0.12500000 </v>
   <v>       0.62500000       0.62500000       0.62500000 </v>
   <v>       0.37500000       0.12500000       0.37500000 </v>
   <v>       0.37500000       0.12500000       0.87500000 </v>
   <v>       0.37500000       0.62500000       0.37500000 </v>
   <v>       0.37500000       0.62500000       0.87500000 </v>
   <v>       0.87500000       0.12500000       0.37500000 </v>
   <v>       0.87500000       0.12500000       0.87500000 </v>
   <v>       0.87500000       0.62500000       0.37500000 </v>
   <v>       0.87500000       0.62500000       0.87500000 </v>
   <v>       0.37500000       0.37500000       0.12500000 </v>
   <v>       0.37500000       0.37500000       0.62500000 </v>
   <v>       0.37500000       0.87500000       0.12500000 </v>
   <v>       0.37500000       0.87500000       0.62500000 </v>
   <v>       0.87500000       0.37500000       0.12500000 </v>
   <v>       0.87500000       0.37500000       0.62500000 </v>
   <v>       0.87500000       0.87500000       0.12500000 </v>
   <v>       0.87500000       0.87500000       0.62500000 </v>
   <v>       0.12500000       0.37500000       0.37500000 </v>
   <v>       0.12500000       0.37500000       0.87500000 </v>
   <v>       0.12500000       0.87500000       0.37500000 </v>
   <v>       0.12500000       0.87500000       0.87500000 </v>
   <v>       0.62500000       0.37500000       0.37500000 </v>
   <v>       0.62500000       0.37500000       0.87500000 </v>
   <v>       0.62500000       0.87500000       0.37500000 </v>
   <v>       0.62500000       0.87500000       0.87500000 </v>
  </varray>
 </structure>
 <calculation>
  <scstep>
   <time name="dav">   67.77   68.75</time>
   <time name="total">   67.90   68.89</time>
   <energy>
    <i name="alphaZ">    569.68860807 </i>
    <i name="ewald">  -7184.58653356 </i>
    <i name="hartreedc">   -604.14622183 </i>
    <i name="XCdc">   -996.54467896 </i>
    <i name="pawpsdc">   6692.16565901 </i>
    <i name="pawaedc">  -5247.93935635 </i>
    <i name="eentropy">      0.00000000 </i>
    <i name="bandstr">    375.42943308 </i>
    <i name="atom">   7329.73306348 </i>
    <i name="e_fr_energy">    933.79997294 </i>
    <i name="e_wo_entrp">    933.79997294 </i>
    <i name="e_0_energy">    933.79997294 </i>
   </energy>
  </scstep>
  <scstep>
   <time name="dav">   78.27   79.38</time>
   <time name="total">   78.27   79.39</time>
   <energy>
    <i name="e_fr_energy">   -166.90894261 </i>
    <i name="e_wo_entrp">   -166.90894261 </i>
    <i name="e_0_energy">   -166.90894261 </i>
   </energy>
  </scstep>
  <scstep>
   <time name="dav">   80.67   81.88</time>
   <time name="total">   80.68   81.88</time>
   <energy>
    <i name="e_fr_energy">   -267.60154310 </i>
    <i name="e_wo_entrp">   -267.60154310 </i>
    <i name="e_0_energy">   -267.60154310 </i>
   </energy>
  </scstep>
  <scstep>
   <time name="dav">   79.25   80.58</time>
   <time name="total">   79.25   80.58</time>
   <energy>
    <i name="e_fr_energy">   -270.11388591 </i>
    <i name="e_wo_entrp">   -270.11388591 </i>
    <i name="e_0_energy">   -270.11388591 </i>
   </energy>
  </scstep>
  <scstep>
   <time name="dav">   79.93   81.15</time>
   <time name="total">   80.74   81.97</time>
   <energy>
    <i name="e_fr_energy">   -270.18680642 </i>
    <i name="e_wo_entrp">   -270.18680642 </i>
    <i name="e_0_energy">   -270.18680642 </i>
   </energy>
  </scstep>
  <scstep>
   <time name="dav">   77.35   78.58</time>
   <time name="total">   78.28   79.53</time>
   <energy>
    <i name="e_fr_energy">   -266.00841385 </i>
    <i name="e_wo_entrp">   -266.00841385 </i>
    <i name="e_0_energy">   -266.00841385 </i>
   </energy>
  </scstep>
  <scstep>
   <time name="dav">   79.42   80.78</time>
   <time name="total">   80.35   81.72</time>
   <energy>
    <i name="e_fr_energy">   -265.18596153 </i>
    <i name="e_wo_entrp">   -265.18596153 </i>
    <i name="e_0_energy">   -265.18596153 </i>
   </energy>
  </scstep>
  <scstep>
   <time name="dav">   77.81   79.10</time>
   <time name="total">   78.74   80.05</time>
   <energy>
    <i name="e_fr_energy">   -265.14478187 </i>
    <i name="e_wo_entrp">   -265.14478187 </i>
    <i name="e_0_energy">   -265.14478187 </i>
   </energy>
  </scstep>
  <scstep>
   <time name="dav">   76.23   77.36</time>
   <time name="total">   77.18   78.32</time>
   <energy>
    <i name="e_fr_energy">   -265.15662816 </i>
    <i name="e_wo_entrp">   -265.15662816 </i>
    <i name="e_0_energy">   -265.15662816 </i>
   </energy>
  </scstep>
  <scstep>
   <time name="dav">   82.25   83.47</time>
   <time name="total">   83.18   84.42</time>
   <energy>
    <i name="e_fr_energy">   -265.15768382 </i>
    <i name="e_wo_entrp">   -265.15768382 </i>
    <i name="e_0_energy">   -265.15768382 </i>
   </energy>
  </scstep>
  <scstep>
   <time name="dav">   72.80   73.87</time>
   <time name="total">   73.73   74.81</time>
   <energy>
    <i name="e_fr_energy">   -265.15900790 </i>
    <i name="e_wo_entrp">   -265.15900790 </i>
    <i name="e_0_energy">   -265.15900790 </i>
   </energy>
  </scstep>
  <scstep>
   <time name="dav">   80.91   82.13</time>
   <time name="total">   81.84   83.07</time>
   <energy>
    <i name="e_fr_energy">   -265.15901526 </i>
    <i name="e_wo_entrp">   -265.15901526 </i>
    <i name="e_0_energy">   -265.15901526 </i>
   </energy>
  </scstep>
  <scstep>
   <time name="dav">   76.33   77.50</time>
   <time name="total">   77.27   78.44</time>
   <energy>
    <i name="e_fr_energy">   -265.15902456 </i>
    <i name="e_wo_entrp">   -265.15902456 </i>
    <i name="e_0_energy">   -265.15902456 </i>
   </energy>
  </scstep>
  <scstep>
   <time name="dav">   68.80   69.84</time>
   <time name="total">   68.93   69.98</time>
   <energy>
    <i name="alphaZ">    569.68860807 </i>
    <i name="ewald">  -7184.58653356 </i>
    <i name="hartreedc">   -712.37959728 </i>
    <i name="XCdc">   -974.65564763 </i>
    <i name="pawpsdc">  14604.45055922 </i>
    <i name="pawaedc"> -13171.84830358 </i>
    <i name="eentropy">      0.00000000 </i>
    <i name="bandstr">   -725.56117264 </i>
    <i name="atom">   7329.73306348 </i>
    <i name="e_fr_energy">   -265.15902392 </i>
    <i name="e_wo_entrp">   -265.15902392 </i>
    <i name="e_0_energy">   -265.15902392 </i>
   </energy>
  </scstep>
  <structure>
   <crystal>
    <varray name="basis" >
     <v>      11.64206783       0.00000000       0.00000000 </v>
     <v>       0.00000000      11.49106675       0.00000000 </v>
     <v>       0.00000000       0.00000000      11.49106675 </v>
    </varray>
    <i name="volume">   1537.27236638 </i>
    <varray name="rec_basis" >
     <v>       0.08589539       0.00000000       0.00000000 </v>
     <v>       0.00000000       0.08702412       0.00000000 </v>
     <v>       0.00000000       0.00000000       0.08702412 </v>
    </varray>
   </crystal>
   <varray name="positions" >
    <v>       0.00000000       0.00000000       0.00000000 </v>
    <v>       0.00000000       0.00000000       0.50000000 </v>
    <v>       0.00000000       0.50000000       0.00000000 </v>
    <v>       0.00000000       0.50000000       0.50000000 </v>
    <v>       0.50000000       0.00000000       0.00000000 </v>
    <v>       0.50000000       0.00000000       0.50000000 </v>
    <v>       0.50000000       0.50000000       0.00000000 </v>
    <v>       0.50000000       0.50000000       0.50000000 </v>
    <v>       0.25000000       0.25000000       0.00000000 </v>
    <v>       0.25000000       0.25000000       0.50000000 </v>
    <v>       0.25000000       0.75000000       0.00000000 </v>
    <v>       0.25000000       0.75000000       0.50000000 </v>
    <v>       0.75000000       0.25000000       0.00000000 </v>
    <v>       0.75000000       0.25000000       0.50000000 </v>
    <v>       0.75000000       0.75000000       0.00000000 </v>
    <v>       0.75000000       0.75000000       0.50000000 </v>
    <v>       0.25000000       0.00000000       0.25000000 </v>
    <v>       0.25000000       0.00000000       0.75000000 </v>
    <v>       0.25000000       0.50000000       0.25000000 </v>
    <v>       0.25000000       0.50000000       0.75000000 </v>
    <v>       0.75000000       0.00000000       0.25000000 </v>
    <v>       0.75000000       0.00000000       0.75000000 </v>
    <v>       0.75000000       0.50000000       0.25000000 </v>
    <v>       0.75000000       0.50000000       0.75000000 </v>
    <v>       0.00000000       0.25000000       0.25000000 </v>
    <v>       0.00000000       0.25000000       0.75000000 </v>
    <v>       0.00000000       0.75000000       0.25000000 </v>
    <v>       0.00000000       0.75000000       0.75000000 </v>
    <v>       0.50000000       0.25000000       0.25000000 </v>
    <v>       0.50000000       0.25000000       0.75000000 </v>
    <v>       0.50000000       0.75000000       0.25000000 </v>
    <v>       0.50000000       0.75000000       0.75000000 </v>
    <v>       0.12500000       0.12500000       0.12500000 </v>
    <v>       0.12500000       0.12500000       0.62500000 </v>
    <v>       0.12500000       0.62500000       0.12500000 </v>
    <v>       0.12500000       0.62500000       0.62500000 </v>
    <v>       0.62500000       0.12500000       0.12500000 </v>
    <v>       0.62500000       0.12500000       0.62500000 </v>
    <v>       0.62500000       0.62500000       0.12500000 </v>
    <v>       0.62500000       0.62500000       0.62500000 </v>
    <v>       0.37500000       0.12500000       0.37500000 </v>
    <v>       0.37500000       0.12500000       0.87500000 </v>
    <v>       0.37500000       0.62500000       0.37500000 </v>
    <v>       0.37500000       0.62500000       0.87500000 </v>
    <v>       0.87500000       0.12500000       0.37500000 </v>
    <v>       0.87500000       0.12500000       0.87500000 </v>
    <v>       0.87500000       0.62500000       0.37500000 </v>
    <v>       0.87500000       0.62500000       0.87500000 </v>
    <v>       0.37500000       0.37500000       0.12500000 </v>
    <v>       0.37500000       0.37500000       0.62500000 </v>
    <v>       0.37500000       0.87500000       0.12500000 </v>
    <v>       0.37500000       0.87500000       0.62500000 </v>
    <v>       0.87500000       0.37500000       0.12500000 </v>
    <v>       0.87500000       0.37500000       0.62500000 </v>
    <v>       0.87500000       0.87500000       0.12500000 </v>
    <v>       0.87500000       0.87500000       0.62500000 </v>
    <v>       0.12500000       0.37500000       0.37500000 </v>
    <v>       0.12500000       0.37500000       0.87500000 </v>
    <v>       0.12500000       0.87500000       0.37500000 </v>
    <v>       0.12500000       0.87500000       0.87500000 </v>
    <v>       0.62500000       0.37500000       0.37500000 </v>
    <v>       0.62500000       0.37500000       0.87500000 </v>
    <v>       0.62500000       0.87500000       0.37500000 </v>
    <v>       0.62500000       0.87500000       0.87500000 </v>
   </varray>
  </structure>
  <varray name="forces" >
   <v>      -0.00000000      -0.00000000      -0.00000000 </v>
   <v>      -0.00000000      -0.00000000      -0.00000000 </v>
   <v>       0.00000000      -0.00000000       0.00000000 </v>
   <v>      -0.00000000      -0.00000000       0.00000000 </v>
   <v>      -0.00000000       0.00000000      -0.00000000 </v>
   <v>       0.00000000      -0.00000000      -0.00000000 </v>
   <v>       0.00000000       0.00000000       0.00000000 </v>
   <v>       0.00000000       0.00000000       0.00000000 </v>
   <v>       0.00000000       0.00000000       0.00000000 </v>
   <v>      -0.00000000      -0.00000000       0.00000000 </v>
   <v>       0.00000000      -0.00000000       0.00000000 </v>
   <v>       0.00000000      -0.00000000       0.00000000 </v>
   <v>      -0.00000000      -0.00000000       0.00000000 </v>
   <v>       0.00000000      -0.00000000       0.00000000 </v>
   <v>       0.00000000       0.00000000       0.00000000 </v>
   <v>       0.00000000       0.00000000       0.00000000 </v>
   <v>      -0.00000000      -0.00000000       0.00000000 </v>
   <v>      -0.00000000       0.00000000       0.00000000 </v>
   <v>       0.00000000       0.00000000       0.00000000 </v>
   <v>       0.00000000       0.00000000       0.00000000 </v>
   <v>       0.00000000      -0.00000000      -0.00000000 </v>
   <v>      -0.00000000      -0.00000000      -0.00000000 </v>
   <v>       0.00000000      -0.00000000      -0.00000000 </v>
   <v>       0.00000000       0.00000000       0.00000000 </v>
   <v>       0.00000000      -0.00000000       0.00000000 </v>
   <v>       0.00000000      -0.00000000       0.00000000 </v>
   <v>       0.00000000       0.00000000       0.00000000 </v>
   <v>       0.00000000       0.00000000       0.00000000 </v>
   <v>      -0.00000000       0.00000000       0.00000000 </v>
   <v>      -0.00000000       0.00000000       0.00000000 </v>
   <v>       0.00000000      -0.00000000       0.00000000 </v>
   <v>      -0.00000000       0.00000000       0.00000000 </v>
   <v>      -0.00000000      -0.00000000      -0.00000000 </v>
   <v>       0.00000000      -0.00000000      -0.00000000 </v>
   <v>      -0.00000000       0.00000000      -0.00000000 </v>
   <v>      -0.00000000       0.00000000      -0.00000000 </v>
   <v>       0.00000000      -0.00000000      -0.00000000 </v>
   <v>       0.00000000      -0.00000000      -0.00000000 </v>
   <v>      -0.00000000       0.00000000      -0.00000000 </v>
   <v>      -0.00000000      -0.00000000      -0.00000000 </v>
   <v>      -0.00000000      -0.00000000      -0.00000000 </v>
   <v>       0.00000000      -0.00000000      -0.00000000 </v>
   <v>      -0.00000000       0.00000000      -0.00000000 </v>
   <v>      -0.00000000      -0.00000000      -0.00000000 </v>
   <v>       0.00000000       0.00000000      -0.00000000 </v>
   <v>      -0.00000000       0.00000000      -0.00000000 </v>
   <v>      -0.00000000       0.00000000      -0.00000000 </v>
   <v>       0.00000000       0.00000000      -0.00000000 </v>
   <v>       0.00000000      -0.00000000      -0.00000000 </v>
   <v>      -0.00000000      -0.00000000      -0.00000000 </v>
   <v>       0.00000000       0.00000000      -0.00000000 </v>
   <v>      -0.00000000      -0.00000000      -0.00000000 </v>
   <v>       0.00000000      -0.00000000      -0.00000000 </v>
   <v>      -0.00000000       0.00000000      -0.00000000 </v>
   <v>       0.00000000      -0.00000000      -0.00000000 </v>
   <v>      -0.00000000       0.00000000      -0.00000000 </v>
   <v>       0.00000000       0.00000000      -0.00000000 </v>
   <v>      -0.00000000      -0.00000000      -0.00000000 </v>
   <v>       0.00000000      -0.00000000      -0.00000000 </v>
   <v>      -0.00000000       0.00000000      -0.00000000 </v>
   <v>      -0.00000000      -0.00000000      -0.00000000 </v>
   <v>      -0.00000000      -0.00000000      -0.00000000 </v>
   <v>       0.00000000       0.00000000      -0.00000000 </v>
   <v>      -0.00000000       0.00000000      -0.00000000 </v>
  </varray>
  <varray name="stress" >
   <v>      -7.59051693       0.00000000       0.00000000 </v>
   <v>       0.00000000      -0.09664571       0.00000000 </v>
   <v>       0.00000000       0.00000000      -0.09664571 </v>
  </varray>
  <scstep>
   <time name="total">  110.40  111.74</time>
   <energy>
    <i name="e_fr_energy">  -1272.74714773 </i>
    <i name="e_wo_entrp">  -1272.74714773 </i>
    <i name="e_0_energy">  -1272.74714773 </i>
   </energy>
  </scstep>
  <scstep>
   <time name="total">   79.02   80.03</time>
   <energy>
    <i name="e_fr_energy">  -1098.95201707 </i>
    <i name="e_wo_entrp">  -1098.95201707 </i>
    <i name="e_0_energy">  -1098.95201707 </i>
   </energy>
  </scstep>
  <scstep>
   <time name="total">   80.31   81.58</time>
   <energy>
    <i name="e_fr_energy">  -1101.29290570 </i>
    <i name="e_wo_entrp">  -1101.29290570 </i>
    <i name="e_0_energy">  -1101.29290570 </i>
   </energy>
  </scstep>
  <scstep>
   <time name="total">   53.41   54.09</time>
   <energy>
    <i name="e_fr_energy">  -1101.41662354 </i>
    <i name="e_wo_entrp">  -1101.41662354 </i>
    <i name="e_0_energy">  -1101.41662354 </i>
   </energy>
  </scstep>
  <scstep>
   <time name="total">   53.45   54.13</time>
   <energy>
    <i name="e_fr_energy">  -1101.41902547 </i>
    <i name="e_wo_entrp">  -1101.41902547 </i>
    <i name="e_0_energy">  -1101.41902547 </i>
   </energy>
  </scstep>
  <scstep>
   <time name="total">   56.77   57.63</time>
   <energy>
    <i name="e_fr_energy">  -1101.41900884 </i>
    <i name="e_wo_entrp">  -1101.41900884 </i>
    <i name="e_0_energy">  -1101.41900884 </i>
   </energy>
  </scstep>
  <scstep>
   <time name="total">   59.47   60.29</time>
   <energy>
    <i name="e_fr_energy">  -1101.41886219 </i>
    <i name="e_wo_entrp">  -1101.41886219 </i>
    <i name="e_0_energy">  -1101.41886219 </i>
   </energy>
  </scstep>
  <scstep>
   <time name="total">   63.35   64.18</time>
   <energy>
    <i name="e_fr_energy">  -1101.41896236 </i>
    <i name="e_wo_entrp">  -1101.41896236 </i>
    <i name="e_0_energy">  -1101.41896236 </i>
   </energy>
  </scstep>
  <scstep>
   <time name="total">   64.81   65.68</time>
   <energy>
    <i name="e_fr_energy">  -1101.41882861 </i>
    <i name="e_wo_entrp">  -1101.41882861 </i>
    <i name="e_0_energy">  -1101.41882861 </i>
   </energy>
  </scstep>
  <scstep>
   <time name="total">   65.94   66.92</time>
   <energy>
    <i name="e_fr_energy">  -1101.41898968 </i>
    <i name="e_wo_entrp">  -1101.41898968 </i>
    <i name="e_0_energy">  -1101.41898968 </i>
   </energy>
  </scstep>
  <scstep>
   <time name="total">   67.46   68.45</time>
   <energy>
    <i name="e_fr_energy">  -1101.41883661 </i>
    <i name="e_wo_entrp">  -1101.41883661 </i>
    <i name="e_0_energy">  -1101.41883661 </i>
   </energy>
  </scstep>
  <scstep>
   <time name="total">  110.33  111.93</time>
   <energy>
    <i name="e_fr_energy">  -1262.05529983 </i>
    <i name="e_wo_entrp">  -1262.05529983 </i>
    <i name="e_0_energy">  -1262.05529983 </i>
   </energy>
  </scstep>
  <scstep>
   <time name="total">   80.10   81.17</time>
   <energy>
    <i name="e_fr_energy">  -1100.81949090 </i>
    <i name="e_wo_entrp">  -1100.81949090 </i>
    <i name="e_0_energy">  -1100.81949090 </i>
   </energy>
  </scstep>
  <scstep>
   <time name="total">   81.32   82.41</time>
   <energy>
    <i name="e_fr_energy">  -1102.82053058 </i>
    <i name="e_wo_entrp">  -1102.82053058 </i>
    <i name="e_0_energy">  -1102.82053058 </i>
   </energy>
  </scstep>
  <scstep>
   <time name="total">   53.86   54.69</time>
   <energy>
    <i name="e_fr_energy">  -1102.90374336 </i>
    <i name="e_wo_entrp">  -1102.90374336 </i>
    <i name="e_0_energy">  -1102.90374336 </i>
   </energy>
  </scstep>
  <scstep>
   <time name="total">   53.36   54.04</time>
   <energy>
    <i name="e_fr_energy">  -1102.89169238 </i>
    <i name="e_wo_entrp">  -1102.89169238 </i>
    <i name="e_0_energy">  -1102.89169238 </i>
   </energy>
  </scstep>
  <scstep>
   <time name="total">   56.98   57.73</time>
   <energy>
    <i name="e_fr_energy">  -1102.88674289 </i>
    <i name="e_wo_entrp">  -1102.88674289 </i>
    <i name="e_0_energy">  -1102.88674289 </i>
   </energy>
  </scstep>
  <scstep>
   <time name="total">   60.37   61.27</time>
   <energy>
    <i name="e_fr_energy">  -1102.88556850 </i>
    <i name="e_wo_entrp">  -1102.88556850 </i>
    <i name="e_0_energy">  -1102.88556850 </i>
   </energy>
  </scstep>
  <scstep>
   <time name="total">   63.99   64.86</time>
   <energy>
    <i name="e_fr_energy">  -1102.88527648 </i>
    <i name="e_wo_entrp">  -1102.88527648 </i>
    <i name="e_0_energy">  -1102.88527648 </i>
   </energy>
  </scstep>
  <scstep>
   <time name="total">   65.07   66.03</time>
   <energy>
    <i name="e_fr_energy">  -1102.88518133 </i>
    <i name="e_wo_entrp">  -1102.88518133 </i>
    <i name="e_0_energy">  -1102.88518133 </i>
   </energy>
  </scstep>
  <scstep>
   <time name="total">   66.92   67.83</time>
   <energy>
    <i name="e_fr_energy">  -1102.88520277 </i>
    <i name="e_wo_entrp">  -1102.88520277 </i>
    <i name="e_0_energy">  -1102.88520277 </i>
   </energy>
  </scstep>
  <scstep>
   <time name="total">   68.57   69.44</time>
   <energy>
    <i name="e_fr_energy">  -1102.88518467 </i>
    <i name="e_wo_entrp">  -1102.88518467 </i>
    <i name="e_0_energy">  -1102.88518467 </i>
   </energy>
  </scstep>
  <scstep>
   <time name="total">  111.48  113.08</time>
   <energy>
    <i name="e_fr_energy">  -1381.07125606 </i>
    <i name="e_wo_entrp">  -1381.07125606 </i>
    <i name="e_0_energy">  -1381.07125606 </i>
   </energy>
  </scstep>
  <scstep>
   <time name="total">   81.94   83.14</time>
   <energy>
    <i name="e_fr_energy">  -1106.13358372 </i>
    <i name="e_wo_entrp">  -1106.13358372 </i>
    <i name="e_0_energy">  -1106.13358372 </i>
   </energy>
  </scstep>
  <scstep>
   <time name="total">   82.21   83.39</time>
   <energy>
    <i name="e_fr_energy">  -1108.29944526 </i>
    <i name="e_wo_entrp">  -1108.29944526 </i>
    <i name="e_0_energy">  -1108.29944526 </i>
   </energy>
  </scstep>
  <scstep>
   <time name="total">   53.63   54.35</time>
   <energy>
    <i name="e_fr_energy">  -1108.40429394 </i>
    <i name="e_wo_entrp">  -1108.40429394 </i>
    <i name="e_0_energy">  -1108.40429394 </i>
   </energy>
  </scstep>
  <scstep>
   <time name="total">   53.61   54.30</time>
   <energy>
    <i name="e_fr_energy">  -1108.39153251 </i>
    <i name="e_wo_entrp">  -1108.39153251 </i>
    <i name="e_0_energy">  -1108.39153251 </i>
   </energy>
  </scstep>
  <scstep>
   <time name="total">   56.75   57.46</time>
   <energy>
    <i name="e_fr_energy">  -1108.38627608 </i>
    <i name="e_wo_entrp">  -1108.38627608 </i>
    <i name="e_0_energy">  -1108.38627608 </i>
   </energy>
  </scstep>
  <scstep>
   <time name="total">   60.07   60.88</time>
   <energy>
    <i name="e_fr_energy">  -1108.38489084 </i>
    <i name="e_wo_entrp">  -1108.38489084 </i>
    <i name="e_0_energy">  -1108.38489084 </i>
   </energy>
  </scstep>
  <scstep>
   <time name="total">   63.65   64.45</time>
   <energy>
    <i name="e_fr_energy">  -1108.38454287 </i>
    <i name="e_wo_entrp">  -1108.38454287 </i>
    <i name="e_0_energy">  -1108.38454287 </i>
   </energy>
  </scstep>
  <scstep>
   <time name="total">   64.92   65.78</time>
   <energy>
    <i name="e_fr_energy">  -1108.38460926 </i>
    <i name="e_wo_entrp">  -1108.38460926 </i>
    <i name="e_0_energy">  -1108.38460926 </i>
   </energy>
  </scstep>
  <scstep>
   <time name="total">   66.45   67.28</time>
   <energy>
    <i name="e_fr_energy">  -1108.38457847 </i>
    <i name="e_wo_entrp">  -1108.38457847 </i>
    <i name="e_0_energy">  -1108.38457847 </i>
   </energy>
  </scstep>
  <scstep>
   <time name="total">   68.16   68.99</time>
   <energy>
    <i name="e_fr_energy">  -1108.38458597 </i>
    <i name="e_wo_entrp">  -1108.38458597 </i>
    <i name="e_0_energy">  -1108.38458597 </i>
   </energy>
  </scstep>
  <kpoints>
   <generation param="Gamma">
    <v type="int" name="divisions">       5        5        5 </v>
    <v name="usershift">      0.00000000       0.00000000       0.00000000 </v>
    <v name="genvec1">      0.20000000       0.00000000       0.00000000 </v>
    <v name="genvec2">      0.00000000       0.20000000       0.00000000 </v>
    <v name="genvec3">      0.00000000       0.00000000       0.20000000 </v>
    <v name="shift">      0.00000000       0.00000000       0.00000000 </v>
   </generation>
   <varray name="kpointlist" >
    <v>       0.00000000       0.00000000       0.00000000 </v>
    <v>       0.20000000       0.00000000       0.00000000 </v>
    <v>       0.40000000       0.00000000       0.00000000 </v>
    <v>       0.00000000       0.20000000       0.00000000 </v>
    <v>       0.20000000       0.20000000       0.00000000 </v>
    <v>       0.40000000       0.20000000       0.00000000 </v>
    <v>       0.00000000       0.40000000       0.00000000 </v>
    <v>       0.20000000       0.40000000       0.00000000 </v>
    <v>       0.40000000       0.40000000       0.00000000 </v>
    <v>       0.00000000       0.20000000       0.20000000 </v>
    <v>       0.00000000      -0.20000000       0.20000000 </v>
    <v>       0.20000000       0.20000000       0.20000000 </v>
    <v>       0.20000000      -0.20000000       0.20000000 </v>
    <v>       0.40000000       0.20000000       0.20000000 </v>
    <v>       0.40000000      -0.20000000       0.20000000 </v>
    <v>       0.00000000       0.40000000       0.20000000 </v>
    <v>       0.00000000      -0.20000000       0.40000000 </v>
    <v>       0.20000000       0.40000000       0.20000000 </v>
    <v>       0.20000000      -0.20000000       0.40000000 </v>
    <v>       0.40000000       0.40000000       0.20000000 </v>
    <v>       0.40000000      -0.20000000       0.40000000 </v>
    <v>       0.00000000       0.40000000       0.40000000 </v>
    <v>       0.00000000      -0.40000000       0.40000000 </v>
    <v>       0.20000000       0.40000000       0.40000000 </v>
    <v>       0.20000000      -0.40000000       0.40000000 </v>
    <v>       0.40000000       0.40000000       0.40000000 </v>
    <v>       0.40000000      -0.40000000       0.40000000 </v>
   </varray>
   <varray name="weights" >
    <v>       0.00800000 </v>
    <v>       0.01600000 </v>
    <v>       0.01600000 </v>
    <v>       0.03200000 </v>
    <v>       0.06400000 </v>
    <v>       0.06400000 </v>
    <v>       0.03200000 </v>
    <v>       0.06400000 </v>
    <v>       0.06400000 </v>
    <v>       0.01600000 </v>
    <v>       0.01600000 </v>
    <v>       0.03200000 </v>
    <v>       0.03200000 </v>
    <v>       0.03200000 </v>
    <v>       0.03200000 </v>
    <v>       0.03200000 </v>
    <v>       0.03200000 </v>
    <v>       0.06400000 </v>
    <v>       0.06400000 </v>
    <v>       0.06400000 </v>
    <v>       0.06400000 </v>
    <v>       0.01600000 </v>
    <v>       0.01600000 </v>
    <v>       0.03200000 </v>
    <v>       0.03200000 </v>
    <v>       0.03200000 </v>
    <v>       0.03200000 </v>
   </varray>
   <varray name="tetrahedronlist"  type="int" >
    <v type="int" >        4       12       14       18       20 </v>
    <v type="int" >        4       12       18       18       20 </v>
    <v type="int" >        4       18       18       20       24 </v>
    <v type="int" >        4       14       18       20       20 </v>
    <v type="int" >        4       18       20       20       26 </v>
    <v type="int" >        4       18       20       24       26 </v>
    <v type="int" >        2       14       14       20       20 </v>
    <v type="int" >        4       14       20       20       20 </v>
    <v type="int" >        4       20       20       20       26 </v>
    <v type="int" >        2       20       20       26       26 </v>
    <v type="int" >        4       10       12       16       18 </v>
    <v type="int" >        4       12       16       18       18 </v>
    <v type="int" >        4       16       18       18       24 </v>
    <v type="int" >        4       10       16       16       18 </v>
    <v type="int" >        4       16       16       18       22 </v>
    <v type="int" >        4       16       18       22       24 </v>
    <v type="int" >        4       18       20       21       24 </v>
    <v type="int" >        4       18       19       21       24 </v>
    <v type="int" >        4       19       21       24       25 </v>
    <v type="int" >        4       20       21       24       26 </v>
    <v type="int" >        4       21       24       26       27 </v>
    <v type="int" >        4       21       24       25       27 </v>
    <v type="int" >        4       20       20       21       26 </v>
    <v type="int" >        4       20       21       21       26 </v>
    <v type="int" >        4       21       21       26       27 </v>
    <v type="int" >        4       20       21       26       26 </v>
    <v type="int" >        4       21       26       26       27 </v>
    <v type="int" >        4       21       26       27       27 </v>
    <v type="int" >        4       18       19       20       26 </v>
    <v type="int" >        4       19       20       21       26 </v>
    <v type="int" >        4       19       21       26       27 </v>
    <v type="int" >        4       18       19       24       26 </v>
    <v type="int" >        4       19       24       25       26 </v>
    <v type="int" >        4       19       25       26       27 </v>
    <v type="int" >        4       16       17       18       24 </v>
    <v type="int" >        4       17       18       19       24 </v>
    <v type="int" >        4       17       19       24       25 </v>
    <v type="int" >        4       16       17       22       24 </v>
    <v type="int" >        4       17       22       23       24 </v>
    <v type="int" >        4       17       23       24       25 </v>
    <v type="int" >        4       16       18       19       22 </v>
    <v type="int" >        4       16       17       19       22 </v>
    <v type="int" >        4       17       19       22       23 </v>
    <v type="int" >        4       18       19       22       24 </v>
    <v type="int" >        4       19       22       24       25 </v>
    <v type="int" >        4       19       22       23       25 </v>
    <v type="int" >        4       15       19       21       25 </v>
    <v type="int" >        4       13       15       19       25 </v>
    <v type="int" >        4       15       21       25       27 </v>
    <v type="int" >        4       15       21       21       27 </v>
    <v type="int" >        4       15       15       21       27 </v>
    <v type="int" >        4       15       21       27       27 </v>
    <v type="int" >        4       13       19       21       27 </v>
    <v type="int" >        4       13       15       21       27 </v>
    <v type="int" >        4       13       19       25       27 </v>
    <v type="int" >        4       11       17       19       25 </v>
    <v type="int" >        4       11       13       19       25 </v>
    <v type="int" >        4       11       17       23       25 </v>
    <v type="int" >        4       13       17       19       23 </v>
    <v type="int" >        4       11       13       17       23 </v>
    <v type="int" >        4       13       19       23       25 </v>
    <v type="int" >        4        6       13       15       19 </v>
    <v type="int" >        4        5        6       13       19 </v>
    <v type="int" >        4        5        6        8       19 </v>
    <v type="int" >        4        6       15       19       21 </v>
    <v type="int" >        4        6        9       19       21 </v>
    <v type="int" >        4        6        8        9       19 </v>
    <v type="int" >        4        6       15       15       21 </v>
    <v type="int" >        4        6        6       15       21 </v>
    <v type="int" >        4        6        6        9       21 </v>
    <v type="int" >        4        6       15       21       21 </v>
    <v type="int" >        4        6        9       21       21 </v>
    <v type="int" >        4        6        9        9       21 </v>
    <v type="int" >        4        5       13       15       21 </v>
    <v type="int" >        4        5        6       15       21 </v>
    <v type="int" >        4        5        6        9       21 </v>
    <v type="int" >        4        5       13       19       21 </v>
    <v type="int" >        4        5        8       19       21 </v>
    <v type="int" >        4        5        8        9       21 </v>
    <v type="int" >        4        4       11       13       19 </v>
    <v type="int" >        4        4        5       13       19 </v>
    <v type="int" >        4        4        5        8       19 </v>
    <v type="int" >        4        4       11       17       19 </v>
    <v type="int" >        4        4        7       17       19 </v>
    <v type="int" >        4        4        7        8       19 </v>
    <v type="int" >        4        5       11       13       17 </v>
    <v type="int" >        4        4        5       11       17 </v>
    <v type="int" >        4        4        5        7       17 </v>
    <v type="int" >        4        5       13       17       19 </v>
    <v type="int" >        4        5        8       17       19 </v>
    <v type="int" >        4        5        7        8       17 </v>
    <v type="int" >        4        5        6        8       14 </v>
    <v type="int" >        4        5        8       12       14 </v>
    <v type="int" >        4        8       12       14       18 </v>
    <v type="int" >        4        6        8        9       14 </v>
    <v type="int" >        4        8        9       14       20 </v>
    <v type="int" >        4        8       14       18       20 </v>
    <v type="int" >        4        6        6        9       14 </v>
    <v type="int" >        4        6        9       14       14 </v>
    <v type="int" >        4        9       14       14       20 </v>
    <v type="int" >        4        6        9        9       14 </v>
    <v type="int" >        4        9        9       14       20 </v>
    <v type="int" >        4        9       14       20       20 </v>
    <v type="int" >        4        5        6        9       12 </v>
    <v type="int" >        4        6        9       12       14 </v>
    <v type="int" >        4        9       12       14       20 </v>
    <v type="int" >        4        5        8        9       12 </v>
    <v type="int" >        4        8        9       12       18 </v>
    <v type="int" >        4        9       12       18       20 </v>
    <v type="int" >        4        4        5        8       10 </v>
    <v type="int" >        4        5        8       10       12 </v>
    <v type="int" >        4        8       10       12       18 </v>
    <v type="int" >        4        4        7        8       10 </v>
    <v type="int" >        4        7        8       10       16 </v>
    <v type="int" >        4        8       10       16       18 </v>
    <v type="int" >        4        4        5        7       12 </v>
    <v type="int" >        4        4        7       10       12 </v>
    <v type="int" >        4        7       10       12       16 </v>
    <v type="int" >        4        5        7        8       12 </v>
    <v type="int" >        4        7        8       12       18 </v>
    <v type="int" >        4        7       12       16       18 </v>
    <v type="int" >        4       24       25       26       27 </v>
    <v type="int" >        4       24       25       25       27 </v>
    <v type="int" >        4       25       26       27       27 </v>
    <v type="int" >        2       26       26       27       27 </v>
    <v type="int" >        4       26       27       27       27 </v>
    <v type="int" >        4       22       23       24       25 </v>
    <v type="int" >        4       23       24       25       25 </v>
    <v type="int" >        4       22       23       23       25 </v>
    <v type="int" >        4        9       18       19       21 </v>
    <v type="int" >        4        8        9       18       19 </v>
    <v type="int" >        4        8        8        9       18 </v>
    <v type="int" >        4        9       18       20       21 </v>
    <v type="int" >        4        9        9       18       20 </v>
    <v type="int" >        4        8        9        9       18 </v>
    <v type="int" >        4        9       20       21       21 </v>
    <v type="int" >        4        9        9       20       21 </v>
    <v type="int" >        8        9        9        9       20 </v>
    <v type="int" >        4        9       20       20       21 </v>
    <v type="int" >        4        9        9       20       20 </v>
    <v type="int" >        4        8       19       20       21 </v>
    <v type="int" >        4        8        9       20       21 </v>
    <v type="int" >        4        8        9        9       20 </v>
    <v type="int" >        4        8       18       19       20 </v>
    <v type="int" >        4        8        8       18       20 </v>
    <v type="int" >        4        8        8        9       20 </v>
    <v type="int" >        4        7       17       18       19 </v>
    <v type="int" >        4        7        8       18       19 </v>
    <v type="int" >        4        7        8        8       18 </v>
    <v type="int" >        4        7       16       17       18 </v>
    <v type="int" >        4        7        7       16       18 </v>
    <v type="int" >        4        7        7        8       18 </v>
    <v type="int" >        4        8       16       17       19 </v>
    <v type="int" >        4        7        8       16       17 </v>
    <v type="int" >        4        7        7        8       16 </v>
    <v type="int" >        4        8       16       18       19 </v>
    <v type="int" >        4        8        8       16       18 </v>
    <v type="int" >        4        7        8        8       16 </v>
    <v type="int" >        4        5        6       12       14 </v>
    <v type="int" >        4        5        5        6       12 </v>
    <v type="int" >        4        2        5        5        6 </v>
    <v type="int" >        4        5        6        6       14 </v>
    <v type="int" >        4        3        5        6        6 </v>
    <v type="int" >        4        2        3        5        6 </v>
    <v type="int" >        2        6        6       14       14 </v>
    <v type="int" >        4        6        6        6       14 </v>
    <v type="int" >        4        3        6        6        6 </v>
    <v type="int" >        2        3        3        6        6 </v>
    <v type="int" >        4        4        5       10       12 </v>
    <v type="int" >        4        4        5        5       12 </v>
    <v type="int" >        4        2        4        5        5 </v>
    <v type="int" >        4        4        4        5       10 </v>
    <v type="int" >        4        1        4        4        5 </v>
    <v type="int" >        4        1        2        4        5 </v>
    <v type="int" >        4        2        5        6       15 </v>
    <v type="int" >        4        2        5       13       15 </v>
    <v type="int" >        4        2        3        6       15 </v>
    <v type="int" >        4        3        6        6       15 </v>
    <v type="int" >        4        3        6       15       15 </v>
    <v type="int" >        4        3        3        6       15 </v>
    <v type="int" >        4        3        5        6       13 </v>
    <v type="int" >        4        3        6       13       15 </v>
    <v type="int" >        4        2        3        5       13 </v>
    <v type="int" >        4        2        4        5       11 </v>
    <v type="int" >        4        2        5       11       13 </v>
    <v type="int" >        4        1        2        4       11 </v>
    <v type="int" >        4        1        4        5       13 </v>
    <v type="int" >        4        1        4       11       13 </v>
    <v type="int" >        4        1        2        5       13 </v>
   </varray>
   <i name="volumeweight">      0.00133333 </i>
  </kpoints>
  <scstep>
   <time name="total">  119.65  121.31</time>
   <energy>
    <i name="e_fr_energy">   -110.23687232 </i>
    <i name="e_wo_entrp">   -110.23687232 </i>
    <i name="e_0_energy">   -110.23687232 </i>
   </energy>
  </scstep>
  <scstep>
   <time name="total">  111.41  112.87</time>
   <energy>
    <i name="e_fr_energy">   -270.23920932 </i>
    <i name="e_wo_entrp">   -270.23920932 </i>
    <i name="e_0_energy">   -270.23920932 </i>
   </energy>
  </scstep>
  <scstep>
   <time name="total">  110.53  112.11</time>
   <energy>
    <i name="e_fr_energy">   -267.08527585 </i>
    <i name="e_wo_entrp">   -267.08527585 </i>
    <i name="e_0_energy">   -267.08527585 </i>
   </energy>
  </scstep>
  <scstep>
   <time name="total">  110.22  111.72</time>
   <energy>
    <i name="e_fr_energy">   -258.88934753 </i>
    <i name="e_wo_entrp">   -258.88934753 </i>
    <i name="e_0_energy">   -258.88934753 </i>
   </energy>
  </scstep>
  <scstep>
   <time name="total">  112.17  113.72</time>
   <energy>
    <i name="e_fr_energy">   -258.17964526 </i>
    <i name="e_wo_entrp">   -258.17964526 </i>
    <i name="e_0_energy">   -258.17964526 </i>
   </energy>
  </scstep>
  <scstep>
   <time name="total">  114.70  116.24</time>
   <energy>
    <i name="e_fr_energy">   -258.11551074 </i>
    <i name="e_wo_entrp">   -258.11551074 </i>
    <i name="e_0_energy">   -258.11551074 </i>
   </energy>
  </scstep>
  <scstep>
   <time name="total">  112.20  113.76</time>
   <energy>
    <i name="e_fr_energy">   -258.05058219 </i>
    <i name="e_wo_entrp">   -258.05058219 </i>
    <i name="e_0_energy">   -258.05058219 </i>
   </energy>
  </scstep>
  <scstep>
   <time name="total">  116.69  118.27</time>
   <energy>
    <i name="e_fr_energy">   -258.03652033 </i>
    <i name="e_wo_entrp">   -258.03652033 </i>
    <i name="e_0_energy">   -258.03652033 </i>
   </energy>
  </scstep>
  <scstep>
   <time name="total">  116.51  118.15</time>
   <energy>
    <i name="e_fr_energy">   -258.04213234 </i>
    <i name="e_wo_entrp">   -258.04213234 </i>
    <i name="e_0_energy">   -258.04213234 </i>
   </energy>
  </scstep>
  <scstep>
   <time name="total">  123.36  125.17</time>
   <energy>
    <i name="e_fr_energy">   -258.04164142 </i>
    <i name="e_wo_entrp">   -258.04164142 </i>
    <i name="e_0_energy">   -258.04164142 </i>
   </energy>
  </scstep>
  <scstep>
   <time name="total">  123.85  125.64</time>
   <energy>
    <i name="e_fr_energy">   -258.04154382 </i>
    <i name="e_wo_entrp">   -258.04154382 </i>
    <i name="e_0_energy">   -258.04154382 </i>
   </energy>
  </scstep>
  <scstep>
   <time name="total">  117.68  119.33</time>
   <energy>
    <i name="e_fr_energy">   -258.04156183 </i>
    <i name="e_wo_entrp">   -258.04156183 </i>
    <i name="e_0_energy">   -258.04156183 </i>
   </energy>
  </scstep>
  <scstep>
   <time name="total">  117.88  119.56</time>
   <energy>
    <i name="e_fr_energy">   -258.04154684 </i>
    <i name="e_wo_entrp">   -258.04154684 </i>
    <i name="e_0_energy">   -258.04154684 </i>
   </energy>
  </scstep>
  <kpoints>
[...]
     <r>     7.3046     0.0000     0.0000     0.0000     0.0000     0.0000     0.0000 </r>
     <r>     7.3146     0.0000     0.0000     0.0000     0.0000     0.0000     0.0000 </r>
    </set>
   </array>
  </conductivity>
  <dos>
   <i name="efermi">      2.30346127 </i>
   <total>
    <array>
     <dimension dim="1">gridpoints</dimension>
     <dimension dim="2">spin</dimension>
     <field>energy</field>
     <field>total</field>
     <field>integrated</field>
     <set>
      <set comment="spin 1">
       <r>   -11.0246     0.0000     0.0000 </r>
       <r>   -10.9626     0.0000     0.0000 </r>
       <r>   -10.9007     0.0000     0.0000 </r>
       <r>   -10.8388     0.0000     0.0000 </r>
       <r>   -10.7769     0.0000     0.0000 </r>
       <r>   -10.7150     0.0000     0.0000 </r>
       <r>   -10.6530     0.0000     0.0000 </r>
       <r>   -10.5911     0.0000     0.0000 </r>
       <r>   -10.5292     0.0000     0.0000 </r>
       <r>   -10.4673     0.0000     0.0000 </r>
       <r>   -10.4054     0.0000     0.0000 </r>
       <r>   -10.3435     0.0000     0.0000 </r>
       <r>   -10.2815     0.0000     0.0000 </r>
       <r>   -10.2196     0.0000     0.0000 </r>
       <r>   -10.1577     0.0000     0.0000 </r>
       <r>   -10.0958     0.0000     0.0000 </r>
       <r>   -10.0339     0.0000     0.0000 </r>
       <r>    -9.9719     3.5050     0.0753 </r>
       <r>    -9.9100     5.1275     0.3344 </r>
       <r>    -9.8481    10.9126     0.8449 </r>
       <r>    -9.7862     7.4638     1.3511 </r>
       <r>    -9.7243     5.6831     1.7958 </r>
       <r>    -9.6623    11.3627     2.3311 </r>
       <r>    -9.6004    15.0694     3.0236 </r>
       <r>    -9.5385    12.7899     3.8846 </r>
       <r>    -9.4766    12.1741     4.6477 </r>
       <r>    -9.4147    19.6631     5.6303 </r>
       <r>    -9.3528    10.1775     6.6053 </r>
       <r>    -9.2908    15.3819     7.4128 </r>
       <r>    -9.2289    14.5874     8.3371 </r>
       <r>    -9.1670    28.6735     9.7131 </r>
       <r>    -9.1051    33.4210    11.4718 </r>
       <r>    -9.0432    11.0732    12.7237 </r>
       <r>    -8.9812    31.4508    13.5616 </r>
       <r>    -8.9193    23.7068    15.2729 </r>
       <r>    -8.8574    17.2550    16.4285 </r>
       <r>    -8.7955    42.3702    18.4665 </r>
       <r>    -8.7336    28.9229    20.5222 </r>
       <r>    -8.6716    32.4401    22.3880 </r>
       <r>    -8.6097    39.5542    24.5898 </r>
       <r>    -8.5478    53.5694    27.1270 </r>
       <r>    -8.4859    67.3349    30.7281 </r>
       <r>    -8.4240    54.8226    34.1195 </r>
       <r>    -8.3621    64.7948    37.5385 </r>
       <r>    -8.3001    42.6384    40.5804 </r>
       <r>    -8.2382    46.7743    42.7757 </r>
       <r>    -8.1763    51.3145    46.0479 </r>
       <r>    -8.1144    74.4369    49.9262 </r>
       <r>    -8.0525    54.2272    53.0091 </r>
       <r>    -7.9905    67.4418    56.4053 </r>
       <r>    -7.9286    75.6607    61.1901 </r>
       <r>    -7.8667    12.1434    63.9714 </r>
       <r>    -7.8048     0.0000    64.0000 </r>
       <r>    -7.7429     0.0000    64.0000 </r>
       <r>    -7.6809     0.0000    64.0000 </r>
       <r>    -7.6190     0.0000    64.0000 </r>
       <r>    -7.5571     0.0000    64.0000 </r>
       <r>    -7.4952     0.0000    64.0000 </r>
       <r>    -7.4333     0.0000    64.0000 </r>
       <r>    -7.3714     0.0000    64.0000 </r>
       <r>    -7.3094     0.0000    64.0000 </r>
       <r>    -7.2475     0.0000    64.0000 </r>
       <r>    -7.1856     0.0000    64.0000 </r>
       <r>    -7.1237     0.0000    64.0000 </r>
       <r>    -7.0618     0.0000    64.0000 </r>
       <r>    -6.9998     0.0000    64.0000 </r>
       <r>    -6.9379     0.0000    64.0000 </r>
       <r>    -6.8760     0.0000    64.0000 </r>
       <r>    -6.8141     0.0000    64.0000 </r>
       <r>    -6.7522     0.0000    64.0000 </r>
       <r>    -6.6902     0.0000    64.0000 </r>
       <r>    -6.6283     0.0000    64.0000 </r>
       <r>    -6.5664     0.0000    64.0000 </r>
       <r>    -6.5045     0.0000    64.0000 </r>
       <r>    -6.4426     0.0000    64.0000 </r>
       <r>    -6.3807     0.0000    64.0000 </r>
       <r>    -6.3187     0.0000    64.0000 </r>
       <r>    -6.2568     0.0000    64.0000 </r>
       <r>    -6.1949     0.0000    64.0000 </r>
       <r>    -6.1330     0.0000    64.0000 </r>
       <r>    -6.0711     0.0000    64.0000 </r>
       <r>    -6.0091     0.0000    64.0000 </r>
       <r>    -5.9472     0.0000    64.0000 </r>
       <r>    -5.8853     0.0000    64.0000 </r>
       <r>    -5.8234     0.0000    64.0000 </r>
       <r>    -5.7615     0.0000    64.0000 </r>
       <r>    -5.6995     0.0000    64.0000 </r>
       <r>    -5.6376     0.0000    64.0000 </r>
       <r>    -5.5757     0.0000    64.0000 </r>
       <r>    -5.5138     0.0000    64.0000 </r>
       <r>    -5.4519     0.0000    64.0000 </r>
       <r>    -5.3900     0.0000    64.0000 </r>
       <r>    -5.3280     0.0000    64.0000 </r>
       <r>    -5.2661     0.0000    64.0000 </r>
       <r>    -5.2042     0.0000    64.0000 </r>
       <r>    -5.1423     0.0000    64.0000 </r>
       <r>    -5.0804     0.0000    64.0000 </r>
       <r>    -5.0184     0.0000    64.0000 </r>
       <r>    -4.9565     0.0000    64.0000 </r>
       <r>    -4.8946     0.0000    64.0000 </r>
       <r>    -4.8327     0.0000    64.0000 </r>
       <r>    -4.7708     0.0000    64.0000 </r>
       <r>    -4.7088     0.0000    64.0000 </r>
       <r>    -4.6469     0.0000    64.0000 </r>
       <r>    -4.5850     0.0000    64.0000 </r>
       <r>    -4.5231     0.0000    64.0000 </r>
       <r>    -4.4612     0.0000    64.0000 </r>
       <r>    -4.3992     0.0000    64.0000 </r>
       <r>    -4.3373     0.0000    64.0000 </r>
       <r>    -4.2754     1.5010    64.0155 </r>
       <r>    -4.2135     7.5446    64.2593 </r>
       <r>    -4.1516    20.8351    65.0700 </r>
       <r>    -4.0897    48.1478    66.9517 </r>
       <r>    -4.0277    71.5404    70.9662 </r>
       <r>    -3.9658    77.1457    75.1142 </r>
       <r>    -3.9039   107.8843    81.4444 </r>
       <r>    -3.8420    73.0571    86.4950 </r>
       <r>    -3.7801   153.3555    90.0990 </r>
       <r>    -3.7181    45.0078    93.7591 </r>
       <r>    -3.6562    16.8061    95.0376 </r>
       <r>    -3.5943    30.1236    96.3560 </r>
       <r>    -3.5324    43.7514    98.8647 </r>
       <r>    -3.4705    23.0279   100.7274 </r>
       <r>    -3.4085    15.7401   101.9230 </r>
       <r>    -3.3466    17.3459   102.8801 </r>
       <r>    -3.2847    50.8917   104.7514 </r>
       <r>    -3.2228    19.2916   106.8950 </r>
       <r>    -3.1609    14.2238   107.7401 </r>
       <r>    -3.0990     8.9128   108.4674 </r>
       <r>    -3.0370     9.4971   108.9653 </r>
       <r>    -2.9751    12.7502   109.6836 </r>
       <r>    -2.9132    17.3919   110.5158 </r>
       <r>    -2.8513    15.2127   111.5360 </r>
       <r>    -2.7894    13.7524   112.4045 </r>
       <r>    -2.7274    12.9862   113.2308 </r>
       <r>    -2.6655    13.0324   114.0353 </r>
       <r>    -2.6036    12.0738   114.8530 </r>
       <r>    -2.5417     9.8235   115.5502 </r>
       <r>    -2.4798     5.5489   115.9869 </r>
       <r>    -2.4178     6.9845   116.3786 </r>
       <r>    -2.3559     7.6523   116.8227 </r>
       <r>    -2.2940     8.8650   117.3313 </r>
       <r>    -2.2321    11.4913   118.0175 </r>
       <r>    -2.1702    10.1934   118.6969 </r>
       <r>    -2.1083     7.6375   119.2063 </r>
       <r>    -2.0463     7.7378   119.7215 </r>
       <r>    -1.9844     5.1084   120.0637 </r>
       <r>    -1.9225     4.5337   120.3557 </r>
       <r>    -1.8606     3.9027   120.6163 </r>
       <r>    -1.7987     3.7286   120.8501 </r>
       <r>    -1.7367     3.9024   121.0854 </r>
       <r>    -1.6748     5.5442   121.3516 </r>
       <r>    -1.6129     9.3624   121.8065 </r>
       <r>    -1.5510     9.2713   122.4148 </r>
       <r>    -1.4891     8.0171   122.9568 </r>
       <r>    -1.4271     6.3846   123.3830 </r>
       <r>    -1.3652     7.7406   123.7788 </r>
       <r>    -1.3033    20.2043   124.5240 </r>
       <r>    -1.2414    28.0958   126.1516 </r>
       <r>    -1.1795    47.8930   128.5706 </r>
       <r>    -1.1176    46.6373   131.4774 </r>
       <r>    -1.0556    47.8579   134.1389 </r>
       <r>    -0.9937    50.3708   137.4316 </r>
       <r>    -0.9318    38.5779   140.1062 </r>
       <r>    -0.8699    36.9801   142.3982 </r>
       <r>    -0.8080    35.3988   144.4913 </r>
       <r>    -0.7460    27.7376   146.4757 </r>
       <r>    -0.6841    35.1458   148.3437 </r>
       <r>    -0.6222    39.6547   150.4977 </r>
       <r>    -0.5603    43.5400   152.9362 </r>
       <r>    -0.4984    40.9696   155.3422 </r>
       <r>    -0.4364    48.9418   158.0930 </r>
       <r>    -0.3745    48.4645   161.1332 </r>
       <r>    -0.3126    51.1395   164.2258 </r>
       <r>    -0.2507    47.4046   167.2794 </r>
       <r>    -0.1888    44.3767   170.1042 </r>
       <r>    -0.1269    59.0225   173.0888 </r>
       <r>    -0.0649    58.6079   176.6567 </r>
       <r>    -0.0030    60.7871   180.3331 </r>
       <r>     0.0589    56.1111   183.5381 </r>
       <r>     0.1208    56.6372   186.4915 </r>
       <r>     0.1827    64.4966   189.9215 </r>
       <r>     0.2447    40.3140   192.8594 </r>
       <r>     0.3066    50.6709   195.3724 </r>
       <r>     0.3685    53.9095   198.4907 </r>
       <r>     0.4304    59.5432   201.8787 </r>
       <r>     0.4923    58.9259   205.1851 </r>
       <r>     0.5543    61.5521   208.9760 </r>
       <r>     0.6162    43.0431   211.7618 </r>
       <r>     0.6781    61.7508   214.6900 </r>
       <r>     0.7400    51.2164   217.5546 </r>
       <r>     0.8019    43.7091   220.4791 </r>
       <r>     0.8638    55.4975   223.0738 </r>
       <r>     0.9258    43.9097   226.1243 </r>
       <r>     0.9877    36.4730   228.4257 </r>
       <r>     1.0496    42.8162   230.8760 </r>
       <r>     1.1115    45.1134   233.6518 </r>
       <r>     1.1734    52.9689   236.3839 </r>
       <r>     1.2354    51.2053   239.6053 </r>
       <r>     1.2973    36.2533   242.2375 </r>
       <r>     1.3592    24.7632   244.0756 </r>
       <r>     1.4211    21.3709   245.4231 </r>
       <r>     1.4830    21.1898   246.9051 </r>
       <r>     1.5450    22.8069   248.2525 </r>
       <r>     1.6069    19.0176   249.5729 </r>
       <r>     1.6688    11.1613   250.4446 </r>
       <r>     1.7307    11.8668   251.1417 </r>
       <r>     1.7926    20.7064   252.1419 </r>
       <r>     1.8545    12.2089   253.2352 </r>
       <r>     1.9165     6.6683   253.6970 </r>
       <r>     1.9784    14.3196   254.2441 </r>
       <r>     2.0403    10.7885   255.0761 </r>
       <r>     2.1022     5.3823   255.5834 </r>
       <r>     2.1641     2.9345   255.8127 </r>
       <r>     2.2261     0.9573   255.9845 </r>
       <r>     2.2880     0.0000   256.0000 </r>
       <r>     2.3499     0.0000   256.0000 </r>
       <r>     2.4118     0.0004   256.0000 </r>
       <r>     2.4737     0.0029   256.0001 </r>
       <r>     2.5357     0.0076   256.0004 </r>
       <r>     2.5976     0.0147   256.0011 </r>
       <r>     2.6595     0.0240   256.0023 </r>
       <r>     2.7214     0.0356   256.0041 </r>
       <r>     2.7833     0.0494   256.0067 </r>
       <r>     2.8453     0.0656   256.0103 </r>
       <r>     2.9072     0.0840   256.0149 </r>
       <r>     2.9691     0.1047   256.0207 </r>
       <r>     3.0310     0.1277   256.0279 </r>
       <r>     3.0929     0.1529   256.0366 </r>
       <r>     3.1548     0.2013   256.0471 </r>
       <r>     3.2168     0.7234   256.0714 </r>
       <r>     3.2787     1.5076   256.1407 </r>
       <r>     3.3406     2.2464   256.2571 </r>
       <r>     3.4025     5.5805   256.4335 </r>
       <r>     3.4644     5.5347   256.7845 </r>
       <r>     3.5264     7.4152   257.1689 </r>
       <r>     3.5883     8.4712   257.6773 </r>
       <r>     3.6502     6.9559   258.1017 </r>
       <r>     3.7121     8.6020   258.6029 </r>
       <r>     3.7740    11.6189   259.2441 </r>
       <r>     3.8360    18.2742   260.0404 </r>
       <r>     3.8979    20.9461   261.4105 </r>
       <r>     3.9598    29.5800   262.7924 </r>
       <r>     4.0217    35.1997   264.6818 </r>
       <r>     4.0836    25.3325   266.6192 </r>
       <r>     4.1455    22.4520   267.8552 </r>
       <r>     4.2075    26.5221   269.2958 </r>
       <r>     4.2694    51.1094   271.2034 </r>
       <r>     4.3313    42.9040   273.9184 </r>
       <r>     4.3932    36.1027   276.4320 </r>
       <r>     4.4551    55.8951   279.2722 </r>
       <r>     4.5171    61.7238   282.2806 </r>
       <r>     4.5790    92.2564   286.0243 </r>
       <r>     4.6409    70.7752   289.9494 </r>
       <r>     4.7028    63.8423   293.9273 </r>
       <r>     4.7647    69.5642   298.0103 </r>
       <r>     4.8267    43.7736   301.4334 </r>
       <r>     4.8886    44.3711   304.1467 </r>
       <r>     4.9505    40.3465   306.5713 </r>
       <r>     5.0124    41.0174   309.1432 </r>
       <r>     5.0743    36.5067   311.3967 </r>
       <r>     5.1362    31.9651   313.4792 </r>
       <r>     5.1982    33.2396   315.5628 </r>
       <r>     5.2601    26.3493   317.4223 </r>
       <r>     5.3220    19.1593   318.7351 </r>
       <r>     5.3839    37.6068   320.4881 </r>
       <r>     5.4458    32.9258   322.4547 </r>
       <r>     5.5078    32.5454   324.4331 </r>
       <r>     5.5697    38.1390   326.2349 </r>
       <r>     5.6316    21.9281   327.8224 </r>
       <r>     5.6935    18.5373   328.9434 </r>
       <r>     5.7554    21.4024   330.2218 </r>
       <r>     5.8174    20.2803   331.5788 </r>
       <r>     5.8793    15.4235   332.6231 </r>
       <r>     5.9412    12.6340   333.4912 </r>
       <r>     6.0031    10.2775   334.2026 </r>
       <r>     6.0650     8.9697   334.8171 </r>
       <r>     6.1269     5.6898   335.2523 </r>
       <r>     6.1889     3.7801   335.5707 </r>
       <r>     6.2508     2.2456   335.7325 </r>
       <r>     6.3127     1.5719   335.8500 </r>
       <r>     6.3746     0.9446   335.9196 </r>
       <r>     6.4365     0.6336   335.9811 </r>
       <r>     6.4985     0.2662   335.9999 </r>
       <r>     6.5604     0.0000   336.0000 </r>
       <r>     6.6223     0.0000   336.0000 </r>
       <r>     6.6842     0.0000   336.0000 </r>
       <r>     6.7461     0.0000   336.0000 </r>
       <r>     6.8081     0.0000   336.0000 </r>
       <r>     6.8700     0.0000   336.0000 </r>
       <r>     6.9319     0.0000   336.0000 </r>
       <r>     6.9938     0.0000   336.0000 </r>
       <r>     7.0557     0.0000   336.0000 </r>
       <r>     7.1176     0.0000   336.0000 </r>
       <r>     7.1796     0.0000   336.0000 </r>
       <r>     7.2415     0.0000   336.0000 </r>
       <r>     7.3034     0.0000   336.0000 </r>
       <r>     7.3653     0.0000   336.0000 </r>
       <r>     7.4272     0.0000   336.0000 </r>
       <r>     7.4892     0.0000   336.0000 </r>
       <r>     7.5511     0.0000   336.0000 </r>
      </set>
     </set>
    </array>
   </total>
  </dos>
 </calculation>
 <structure name="finalpos" >
  <crystal>
   <varray name="basis" >
    <v>      11.64206783       0.00000000       0.00000000 </v>
    <v>       0.00000000      11.49106675       0.00000000 </v>
    <v>       0.00000000       0.00000000      11.49106675 </v>
   </varray>
   <i name="volume">   1537.27236638 </i>
   <varray name="rec_basis" >
    <v>       0.08589539       0.00000000       0.00000000 </v>
    <v>       0.00000000       0.08702412       0.00000000 </v>
    <v>       0.00000000       0.00000000       0.08702412 </v>
   </varray>
  </crystal>
  <varray name="positions" >
   <v>       0.00000000       0.00000000       0.00000000 </v>
   <v>       0.00000000       0.00000000       0.50000000 </v>
   <v>       0.00000000       0.50000000       0.00000000 </v>
   <v>       0.00000000       0.50000000       0.50000000 </v>
   <v>       0.50000000       0.00000000       0.00000000 </v>
   <v>       0.50000000       0.00000000       0.50000000 </v>
   <v>       0.50000000       0.50000000       0.00000000 </v>
   <v>       0.50000000       0.50000000       0.50000000 </v>
   <v>       0.25000000       0.25000000       0.00000000 </v>
   <v>       0.25000000       0.25000000       0.50000000 </v>
   <v>       0.25000000       0.75000000       0.00000000 </v>
   <v>       0.25000000       0.75000000       0.50000000 </v>
   <v>       0.75000000       0.25000000       0.00000000 </v>
   <v>       0.75000000       0.25000000       0.50000000 </v>
   <v>       0.75000000       0.75000000       0.00000000 </v>
   <v>       0.75000000       0.75000000       0.50000000 </v>
   <v>       0.25000000       0.00000000       0.25000000 </v>
   <v>       0.25000000       0.00000000       0.75000000 </v>
   <v>       0.25000000       0.50000000       0.25000000 </v>
   <v>       0.25000000       0.50000000       0.75000000 </v>
   <v>       0.75000000       0.00000000       0.25000000 </v>
   <v>       0.75000000       0.00000000       0.75000000 </v>
   <v>       0.75000000       0.50000000       0.25000000 </v>
   <v>       0.75000000       0.50000000       0.75000000 </v>
   <v>       0.00000000       0.25000000       0.25000000 </v>
   <v>       0.00000000       0.25000000       0.75000000 </v>
   <v>       0.00000000       0.75000000       0.25000000 </v>
   <v>       0.00000000       0.75000000       0.75000000 </v>
   <v>       0.50000000       0.25000000       0.25000000 </v>
   <v>       0.50000000       0.25000000       0.75000000 </v>
   <v>       0.50000000       0.75000000       0.25000000 </v>
   <v>       0.50000000       0.75000000       0.75000000 </v>
   <v>       0.12500000       0.12500000       0.12500000 </v>
   <v>       0.12500000       0.12500000       0.62500000 </v>
   <v>       0.12500000       0.62500000       0.12500000 </v>
   <v>       0.12500000       0.62500000       0.62500000 </v>
   <v>       0.62500000       0.12500000       0.12500000 </v>
   <v>       0.62500000       0.12500000       0.62500000 </v>
   <v>       0.62500000       0.62500000       0.12500000 </v>
   <v>       0.62500000       0.62500000       0.62500000 </v>
   <v>       0.37500000       0.12500000       0.37500000 </v>
   <v>       0.37500000       0.12500000       0.87500000 </v>
   <v>       0.37500000       0.62500000       0.37500000 </v>
   <v>       0.37500000       0.62500000       0.87500000 </v>
   <v>       0.87500000       0.12500000       0.37500000 </v>
   <v>       0.87500000       0.12500000       0.87500000 </v>
   <v>       0.87500000       0.62500000       0.37500000 </v>
   <v>       0.87500000       0.62500000       0.87500000 </v>
   <v>       0.37500000       0.37500000       0.12500000 </v>
   <v>       0.37500000       0.37500000       0.62500000 </v>
   <v>       0.37500000       0.87500000       0.12500000 </v>
   <v>       0.37500000       0.87500000       0.62500000 </v>
   <v>       0.87500000       0.37500000       0.12500000 </v>
   <v>       0.87500000       0.37500000       0.62500000 </v>
   <v>       0.87500000       0.87500000       0.12500000 </v>
   <v>       0.87500000       0.87500000       0.62500000 </v>
   <v>       0.12500000       0.37500000       0.37500000 </v>
   <v>       0.12500000       0.37500000       0.87500000 </v>
   <v>       0.12500000       0.87500000       0.37500000 </v>
   <v>       0.12500000       0.87500000       0.87500000 </v>
   <v>       0.62500000       0.37500000       0.37500000 </v>
   <v>       0.62500000       0.37500000       0.87500000 </v>
   <v>       0.62500000       0.87500000       0.37500000 </v>
   <v>       0.62500000       0.87500000       0.87500000 </v>
  </varray>
 </structure>
</modeling>
