  64  64   0   0
  0.2406379E+02  0.1169970E-08  0.1147320E-08  0.1147320E-08  0.1000000E-15
  1.000000000000000E-004
  CAR 
 GaAs                                    
      7.46726792    -11.02619017  301      2.30451087      1.00000000
    -11.026  0.0000E+00  0.0000E+00
    -10.965  0.0000E+00  0.0000E+00
    -10.903  0.0000E+00  0.0000E+00
    -10.841  0.0000E+00  0.0000E+00
    -10.780  0.0000E+00  0.0000E+00
    -10.718  0.0000E+00  0.0000E+00
    -10.656  0.0000E+00  0.0000E+00
    -10.595  0.0000E+00  0.0000E+00
    -10.533  0.0000E+00  0.0000E+00
    -10.471  0.0000E+00  0.0000E+00
    -10.410  0.0000E+00  0.0000E+00
    -10.348  0.0000E+00  0.0000E+00
    -10.286  0.0000E+00  0.0000E+00
    -10.225  0.0000E+00  0.0000E+00
    -10.163  0.0000E+00  0.0000E+00
    -10.102  0.0000E+00  0.0000E+00
    -10.040  0.0000E+00  0.0000E+00
     -9.978  0.3251E-01  0.5999E-03
     -9.917  0.4946E-01  0.3109E-02
     -9.855  0.1152E+00  0.7947E-02
     -9.793  0.7566E-01  0.1314E-01
     -9.732  0.5742E-01  0.1776E-01
     -9.670  0.1144E+00  0.2277E-01
     -9.608  0.1322E+00  0.2960E-01
     -9.547  0.1403E+00  0.3825E-01
     -9.485  0.1258E+00  0.4589E-01
     -9.423  0.2078E+00  0.5522E-01
     -9.362  0.1056E+00  0.6548E-01
     -9.300  0.1506E+00  0.7331E-01
     -9.238  0.1485E+00  0.8257E-01
     -9.177  0.2722E+00  0.9549E-01
     -9.115  0.3309E+00  0.1126E+00
     -9.054  0.1317E+00  0.1265E+00
     -8.992  0.2492E+00  0.1340E+00
     -8.930  0.2385E+00  0.1514E+00
     -8.869  0.1661E+00  0.1632E+00
     -8.807  0.4375E+00  0.1822E+00
     -8.745  0.3018E+00  0.2034E+00
     -8.684  0.3245E+00  0.2218E+00
     -8.622  0.3997E+00  0.2435E+00
     -8.560  0.5086E+00  0.2679E+00
     -8.499  0.5966E+00  0.3026E+00
     -8.437  0.5319E+00  0.3377E+00
     -8.375  0.5744E+00  0.3716E+00
     -8.314  0.5430E+00  0.4034E+00
     -8.252  0.4506E+00  0.4252E+00
     -8.191  0.6431E+00  0.4554E+00
     -8.129  0.8001E+00  0.4953E+00
     -8.067  0.5294E+00  0.5266E+00
     -8.006  0.6527E+00  0.5607E+00
     -7.944  0.8298E+00  0.6065E+00
     -7.882  0.2685E+00  0.6381E+00
     -7.821  0.0000E+00  0.6400E+00
     -7.759  0.0000E+00  0.6400E+00
     -7.697  0.0000E+00  0.6400E+00
     -7.636  0.0000E+00  0.6400E+00
     -7.574  0.0000E+00  0.6400E+00
     -7.512  0.0000E+00  0.6400E+00
     -7.451  0.0000E+00  0.6400E+00
     -7.389  0.0000E+00  0.6400E+00
     -7.327  0.0000E+00  0.6400E+00
     -7.266  0.0000E+00  0.6400E+00
     -7.204  0.0000E+00  0.6400E+00
     -7.143  0.0000E+00  0.6400E+00
     -7.081  0.0000E+00  0.6400E+00
     -7.019  0.0000E+00  0.6400E+00
     -6.958  0.0000E+00  0.6400E+00
     -6.896  0.0000E+00  0.6400E+00
     -6.834  0.0000E+00  0.6400E+00
     -6.773  0.0000E+00  0.6400E+00
     -6.711  0.0000E+00  0.6400E+00
     -6.649  0.0000E+00  0.6400E+00
     -6.588  0.0000E+00  0.6400E+00
     -6.526  0.0000E+00  0.6400E+00
     -6.464  0.0000E+00  0.6400E+00
     -6.403  0.0000E+00  0.6400E+00
     -6.341  0.0000E+00  0.6400E+00
     -6.280  0.0000E+00  0.6400E+00
     -6.218  0.0000E+00  0.6400E+00
     -6.156  0.0000E+00  0.6400E+00
     -6.095  0.0000E+00  0.6400E+00
     -6.033  0.0000E+00  0.6400E+00
     -5.971  0.0000E+00  0.6400E+00
     -5.910  0.0000E+00  0.6400E+00
     -5.848  0.0000E+00  0.6400E+00
     -5.786  0.0000E+00  0.6400E+00
     -5.725  0.0000E+00  0.6400E+00
     -5.663  0.0000E+00  0.6400E+00
     -5.601  0.0000E+00  0.6400E+00
     -5.540  0.0000E+00  0.6400E+00
     -5.478  0.0000E+00  0.6400E+00
     -5.417  0.0000E+00  0.6400E+00
     -5.355  0.0000E+00  0.6400E+00
     -5.293  0.0000E+00  0.6400E+00
     -5.232  0.0000E+00  0.6400E+00
     -5.170  0.0000E+00  0.6400E+00
     -5.108  0.0000E+00  0.6400E+00
     -5.047  0.0000E+00  0.6400E+00
     -4.985  0.0000E+00  0.6400E+00
     -4.923  0.0000E+00  0.6400E+00
     -4.862  0.0000E+00  0.6400E+00
     -4.800  0.0000E+00  0.6400E+00
     -4.738  0.0000E+00  0.6400E+00
     -4.677  0.0000E+00  0.6400E+00
     -4.615  0.0000E+00  0.6400E+00
     -4.553  0.0000E+00  0.6400E+00
     -4.492  0.0000E+00  0.6400E+00
     -4.430  0.0000E+00  0.6400E+00
     -4.369  0.0000E+00  0.6400E+00
     -4.307  0.9906E-02  0.6401E+00
     -4.245  0.5198E-01  0.6418E+00
     -4.184  0.1618E+00  0.6472E+00
     -4.122  0.2908E+00  0.6611E+00
     -4.060  0.7406E+00  0.6902E+00
     -3.999  0.7629E+00  0.7312E+00
     -3.937  0.1143E+01  0.7859E+00
     -3.875  0.1046E+01  0.8493E+00
     -3.814  0.5410E+00  0.8816E+00
     -3.752  0.8345E+00  0.9256E+00
     -3.690  0.2438E+00  0.9450E+00
     -3.629  0.1864E+00  0.9564E+00
     -3.567  0.5265E+00  0.9771E+00
     -3.506  0.2850E+00  0.1000E+01
     -3.444  0.1957E+00  0.1015E+01
     -3.382  0.1587E+00  0.1025E+01
     -3.321  0.2914E+00  0.1036E+01
     -3.259  0.3188E+00  0.1063E+01
     -3.197  0.1266E+00  0.1073E+01
     -3.136  0.1262E+00  0.1082E+01
     -3.074  0.7893E-01  0.1087E+01
     -3.012  0.1215E+00  0.1093E+01
     -2.951  0.1265E+00  0.1101E+01
     -2.889  0.1849E+00  0.1111E+01
     -2.827  0.1385E+00  0.1120E+01
     -2.766  0.1327E+00  0.1129E+01
     -2.704  0.1307E+00  0.1137E+01
     -2.642  0.1404E+00  0.1145E+01
     -2.581  0.1106E+00  0.1152E+01
     -2.519  0.7073E-01  0.1158E+01
     -2.458  0.6407E-01  0.1162E+01
     -2.396  0.7245E-01  0.1166E+01
     -2.334  0.8315E-01  0.1171E+01
     -2.273  0.1203E+00  0.1177E+01
     -2.211  0.1107E+00  0.1184E+01
     -2.149  0.7874E-01  0.1190E+01
     -2.088  0.8005E-01  0.1195E+01
     -2.026  0.6409E-01  0.1200E+01
     -1.964  0.4726E-01  0.1202E+01
     -1.903  0.4181E-01  0.1205E+01
     -1.841  0.3801E-01  0.1207E+01
     -1.779  0.3819E-01  0.1210E+01
     -1.718  0.4158E-01  0.1212E+01
     -1.656  0.7304E-01  0.1216E+01
     -1.595  0.9780E-01  0.1221E+01
     -1.533  0.8497E-01  0.1227E+01
     -1.471  0.6770E-01  0.1232E+01
     -1.410  0.5843E-01  0.1235E+01
     -1.348  0.8941E-01  0.1240E+01
     -1.286  0.2701E+00  0.1251E+01
     -1.225  0.3110E+00  0.1269E+01
     -1.163  0.5601E+00  0.1297E+01
     -1.101  0.4279E+00  0.1325E+01
     -1.040  0.5411E+00  0.1352E+01
     -0.978  0.4659E+00  0.1386E+01
     -0.916  0.3890E+00  0.1410E+01
     -0.855  0.3816E+00  0.1431E+01
     -0.793  0.3612E+00  0.1452E+01
     -0.731  0.2973E+00  0.1471E+01
     -0.670  0.3669E+00  0.1492E+01
     -0.608  0.3895E+00  0.1513E+01
     -0.547  0.3931E+00  0.1538E+01
     -0.485  0.4267E+00  0.1562E+01
     -0.423  0.5100E+00  0.1592E+01
     -0.362  0.4878E+00  0.1621E+01
     -0.300  0.5425E+00  0.1653E+01
     -0.238  0.4763E+00  0.1683E+01
     -0.177  0.4662E+00  0.1710E+01
     -0.115  0.5930E+00  0.1744E+01
     -0.053  0.6304E+00  0.1779E+01
      0.008  0.5395E+00  0.1814E+01
      0.070  0.4867E+00  0.1845E+01
      0.132  0.5933E+00  0.1875E+01
      0.193  0.5575E+00  0.1910E+01
      0.255  0.4172E+00  0.1934E+01
      0.316  0.5759E+00  0.1965E+01
      0.378  0.5172E+00  0.1996E+01
      0.440  0.5975E+00  0.2029E+01
      0.501  0.6186E+00  0.2062E+01
      0.563  0.5277E+00  0.2098E+01
      0.625  0.5112E+00  0.2125E+01
      0.686  0.5017E+00  0.2156E+01
      0.748  0.4762E+00  0.2184E+01
      0.810  0.4158E+00  0.2211E+01
      0.871  0.5731E+00  0.2239E+01
      0.933  0.4002E+00  0.2269E+01
      0.995  0.3905E+00  0.2292E+01
      1.056  0.4425E+00  0.2318E+01
      1.118  0.5065E+00  0.2346E+01
      1.179  0.5632E+00  0.2373E+01
      1.241  0.4499E+00  0.2402E+01
      1.303  0.3322E+00  0.2426E+01
      1.364  0.2483E+00  0.2444E+01
      1.426  0.2609E+00  0.2458E+01
      1.488  0.2090E+00  0.2472E+01
      1.549  0.2231E+00  0.2486E+01
      1.611  0.1895E+00  0.2498E+01
      1.673  0.1206E+00  0.2506E+01
      1.734  0.1121E+00  0.2513E+01
      1.796  0.2228E+00  0.2525E+01
      1.858  0.8764E-01  0.2533E+01
      1.919  0.7723E-01  0.2538E+01
      1.981  0.1422E+00  0.2545E+01
      2.043  0.9466E-01  0.2552E+01
      2.104  0.4730E-01  0.2556E+01
      2.166  0.3700E-01  0.2558E+01
      2.227  0.7109E-02  0.2560E+01
      2.289  0.0000E+00  0.2560E+01
      2.351  0.5926E-07  0.2560E+01
      2.412  0.1274E-04  0.2560E+01
      2.474  0.4754E-04  0.2560E+01
      2.536  0.1045E-03  0.2560E+01
      2.597  0.1835E-03  0.2560E+01
      2.659  0.2847E-03  0.2560E+01
      2.721  0.4080E-03  0.2560E+01
      2.782  0.5534E-03  0.2560E+01
      2.844  0.7209E-03  0.2560E+01
      2.906  0.9106E-03  0.2560E+01
      2.967  0.1122E-02  0.2560E+01
      3.029  0.1356E-02  0.2560E+01
      3.090  0.1612E-02  0.2560E+01
      3.152  0.2824E-02  0.2561E+01
      3.214  0.9706E-02  0.2561E+01
      3.275  0.1738E-01  0.2562E+01
      3.337  0.2454E-01  0.2563E+01
      3.399  0.5946E-01  0.2566E+01
      3.460  0.5781E-01  0.2569E+01
      3.522  0.8054E-01  0.2573E+01
      3.584  0.6555E-01  0.2578E+01
      3.645  0.7921E-01  0.2582E+01
      3.707  0.8640E-01  0.2588E+01
      3.769  0.1236E+00  0.2594E+01
      3.830  0.2506E+00  0.2604E+01
      3.892  0.1904E+00  0.2617E+01
      3.954  0.2966E+00  0.2633E+01
      4.015  0.3304E+00  0.2651E+01
      4.077  0.2226E+00  0.2668E+01
      4.138  0.2178E+00  0.2681E+01
      4.200  0.2657E+00  0.2696E+01
      4.262  0.4441E+00  0.2717E+01
      4.323  0.4507E+00  0.2744E+01
      4.385  0.5570E+00  0.2769E+01
      4.447  0.5306E+00  0.2800E+01
      4.508  0.5747E+00  0.2830E+01
      4.570  0.6534E+00  0.2867E+01
      4.632  0.6839E+00  0.2907E+01
      4.693  0.5959E+00  0.2944E+01
      4.755  0.5795E+00  0.2984E+01
      4.817  0.4605E+00  0.3015E+01
      4.878  0.4265E+00  0.3044E+01
      4.940  0.4373E+00  0.3070E+01
      5.001  0.3667E+00  0.3095E+01
      5.063  0.3342E+00  0.3116E+01
      5.125  0.3540E+00  0.3136E+01
      5.186  0.3313E+00  0.3157E+01
      5.248  0.2262E+00  0.3175E+01
      5.310  0.2332E+00  0.3188E+01
      5.371  0.4059E+00  0.3207E+01
      5.433  0.2435E+00  0.3227E+01
      5.495  0.3246E+00  0.3245E+01
      5.556  0.3384E+00  0.3264E+01
      5.618  0.2000E+00  0.3279E+01
      5.680  0.1719E+00  0.3290E+01
      5.741  0.2261E+00  0.3303E+01
      5.803  0.2171E+00  0.3317E+01
      5.865  0.1567E+00  0.3327E+01
      5.926  0.1268E+00  0.3336E+01
      5.988  0.1012E+00  0.3343E+01
      6.049  0.8139E-01  0.3349E+01
      6.111  0.4943E-01  0.3353E+01
      6.173  0.3815E-01  0.3356E+01
      6.234  0.2393E-01  0.3357E+01
      6.296  0.1468E-01  0.3359E+01
      6.358  0.8544E-02  0.3359E+01
      6.419  0.5296E-02  0.3360E+01
      6.481  0.0000E+00  0.3360E+01
      6.543  0.0000E+00  0.3360E+01
      6.604  0.0000E+00  0.3360E+01
      6.666  0.0000E+00  0.3360E+01
      6.728  0.0000E+00  0.3360E+01
      6.789  0.0000E+00  0.3360E+01
      6.851  0.0000E+00  0.3360E+01
      6.912  0.0000E+00  0.3360E+01
      6.974  0.0000E+00  0.3360E+01
      7.036  0.0000E+00  0.3360E+01
      7.097  0.0000E+00  0.3360E+01
      7.159  0.0000E+00  0.3360E+01
      7.221  0.0000E+00  0.3360E+01
      7.282  0.0000E+00  0.3360E+01
      7.344  0.0000E+00  0.3360E+01
      7.406  0.0000E+00  0.3360E+01
      7.467  0.0000E+00  0.3360E+01
