 vasp.6.4.3 19Mar24 (build Aug 29 2024 15:27:20) complex                        
  
 executed on             LinuxIFC date 2025.03.24  14:34:39
 running    8 mpi-ranks, on    1 nodes
 distrk:  each k-point on    8 cores,    1 groups
 distr:  one band on NCORE=   1 cores,    8 groups


--------------------------------------------------------------------------------------------------------


 INCAR:
   SYSTEM = GaAs
   PREC = Normal
   ENCUT = 400
   ISMEAR = -5
   SIGMA = 0.1
   IBRION = 2
   POTIM = 0.1
   NFREE = 2
   NSW = 100
   ISIF = 2
   LEPSILON = .TRUE.
   LOPTICS = .TRUE.

 POTCAR:    PAW_PBE As 22Sep2009                  
 POTCAR:    PAW_PBE Ga 08Apr2002                  
 -----------------------------------------------------------------------------
|                                                                             |
|           W    W    AA    RRRRR   N    N  II  N    N   GGGG   !!!           |
|           W    W   A  A   R    R  NN   N  II  NN   N  G    G  !!!           |
|           W    W  A    A  R    R  N N  N  II  N N  N  G       !!!           |
|           W WW W  AAAAAA  RRRRR   N  N N  II  N  N N  G  GGG   !            |
|           WW  WW  A    A  R   R   N   NN  II  N   NN  G    G                |
|           W    W  A    A  R    R  N    N  II  N    N   GGGG   !!!           |
|                                                                             |
|     For optimal performance we recommend to set                             |
|       NCORE = 2 up to number-of-cores-per-socket                            |
|     NCORE specifies how many cores store one orbital (NPAR=cpu/NCORE).      |
|     This setting can greatly improve the performance of VASP for DFT.       |
|     The default, NCORE=1 might be grossly inefficient on modern             |
|     multi-core architectures or massively parallel machines. Do your        |
|     own testing! More info at https://www.vasp.at/wiki/index.php/NCORE      |
|     Unfortunately you need to use the default for GW and RPA                |
|     calculations (for HF NCORE is supported but not extensively tested      |
|     yet).                                                                   |
|                                                                             |
 -----------------------------------------------------------------------------

 POTCAR:    PAW_PBE As 22Sep2009                  
   VRHFIN =As: s2p3                                                                                 
   LEXCH  = PE                                                                                      
   EATOM  =   170.1867 eV,   12.5084 Ry                                                             
                                                                                                    
   TITEL  = PAW_PBE As 22Sep2009                                                                    
   LULTRA =        F    use ultrasoft PP ?                                                          
   IUNSCR =        1    unscreen: 0-lin 1-nonlin 2-no                                               
   RPACOR =    1.900    partial core radius                                                         
   POMASS =   74.922; ZVAL   =    5.000    mass and valenz                                          
   RCORE  =    2.100    outmost cutoff radius                                                       
   RWIGS  =    2.300; RWIGS  =    1.217    wigner-seitz radius (au A)                               
   ENMAX  =  208.702; ENMIN  =  156.526 eV                                                          
   ICORE  =        3    local potential                                                             
   LCOR   =        T    correct aug charges                                                         
   LPAW   =        T    paw PP                                                                      
   EAUG   =  462.758                                                                                
   DEXC   =    0.000                                                                                
   RMAX   =    2.144    core radius for proj-oper                                                   
   RAUG   =    1.300    factor for augmentation sphere                                              
   RDEP   =    2.140    radius for radial grids                                                     
   RDEPT  =    1.956    core radius for aug-charge                                                  
                                                                                                    
   Atomic configuration                                                                             
   10 entries                                                                                       
     n  l   j            E        occ.                                                              
     1  0  0.50    -11718.0418   2.0000                                                             
     2  0  0.50     -1486.5454   2.0000                                                             
     2  1  1.50     -1303.3889   6.0000                                                             
     3  0  0.50      -190.2849   2.0000                                                             
     3  1  1.50      -133.6555   6.0000                                                             
     3  2  2.50       -40.6443  10.0000                                                             
     4  0  0.50       -14.4936   2.0000                                                             
     4  1  0.50        -5.1947   3.0000                                                             
     4  2  1.50        -5.4423   0.0000                                                             
     4  3  2.50        -5.4423   0.0000                                                             
   Description                                                                                      
     l       E           TYP  RCUT    TYP  RCUT                                                     
     0    -14.4935570     23  2.100                                                                 
     0    -11.9212055     23  2.100                                                                 
     1     -5.1947127     23  2.100                                                                 
     1     27.2116520     23  2.100                                                                 
     2     -5.4423304     23  2.100                                                                 
     3     -1.3605826      7  2.100                                                                 
  local pseudopotential read in
  partial core-charges read in
  partial kinetic energy density read in
  atomic valenz-charges read in
  non local Contribution for L=           0  read in
    real space projection operators read in
  non local Contribution for L=           0  read in
    real space projection operators read in
  non local Contribution for L=           1  read in
    real space projection operators read in
  non local Contribution for L=           1  read in
    real space projection operators read in
  non local Contribution for L=           2  read in
    real space projection operators read in
    PAW grid and wavefunctions read in
 
   number of l-projection  operators is LMAX  =           5
   number of lm-projection operators is LMMAX =          13
 
 POTCAR:    PAW_PBE Ga 08Apr2002                  
   VRHFIN =Ga: s2p1                                                                                 
   LEXCH  = PE                                                                                      
   EATOM  =    58.8688 eV,    4.3267 Ry                                                             
                                                                                                    
   TITEL  = PAW_PBE Ga 08Apr2002                                                                    
   LULTRA =        F    use ultrasoft PP ?                                                          
   IUNSCR =        1    unscreen: 0-lin 1-nonlin 2-no                                               
   RPACOR =    2.170    partial core radius                                                         
   POMASS =   69.723; ZVAL   =    3.000    mass and valenz                                          
   RCORE  =    2.600    outmost cutoff radius                                                       
   RWIGS  =    2.650; RWIGS  =    1.402    wigner-seitz radius (au A)                               
   ENMAX  =  134.678; ENMIN  =  101.009 eV                                                          
   ICORE  =        3    local potential                                                             
   LCOR   =        T    correct aug charges                                                         
   LPAW   =        T    paw PP                                                                      
   EAUG   =  320.264                                                                                
   DEXC   =    0.000                                                                                
   RMAX   =    2.658    core radius for proj-oper                                                   
   RAUG   =    1.300    factor for augmentation sphere                                              
   RDEP   =    2.684    radius for radial grids                                                     
   RDEPT  =    2.308    core radius for aug-charge                                                  
                                                                                                    
   Atomic configuration                                                                             
   10 entries                                                                                       
     n  l   j            E        occ.                                                              
     1  0  0.50    -10228.7830   2.0000                                                             
     2  0  0.50     -1262.1604   2.0000                                                             
     2  1  1.50     -1098.6333   6.0000                                                             
     3  0  0.50      -148.1110   2.0000                                                             
     3  1  1.50       -98.8436   6.0000                                                             
     3  2  2.50       -19.1549  10.0000                                                             
     4  0  0.50        -8.9483   2.0000                                                             
     4  1  0.50        -2.5791   1.0000                                                             
     4  2  1.50         5.4423   0.0000                                                             
     4  3  2.50        -2.7416   0.0000                                                             
   Description                                                                                      
     l       E           TYP  RCUT    TYP  RCUT                                                     
     0     -8.9483097     23  2.600                                                                 
     0     -5.8232215     23  2.600                                                                 
     1     -2.5790793     23  2.600                                                                 
     1      5.2230115     23  2.600                                                                 
     2      1.3605826     23  2.600                                                                 
     3     -1.3605826      7  2.600                                                                 
  local pseudopotential read in
  partial core-charges read in
  partial kinetic energy density read in
  atomic valenz-charges read in
  non local Contribution for L=           0  read in
    real space projection operators read in
  non local Contribution for L=           0  read in
    real space projection operators read in
  non local Contribution for L=           1  read in
    real space projection operators read in
  non local Contribution for L=           1  read in
    real space projection operators read in
  non local Contribution for L=           2  read in
    real space projection operators read in
    PAW grid and wavefunctions read in
 
   number of l-projection  operators is LMAX  =           5
   number of lm-projection operators is LMMAX =          13
 
 -----------------------------------------------------------------------------
|                                                                             |
|               ----> ADVICE to this user running VASP <----                  |
|                                                                             |
|     You have a (more or less) 'large supercell' and for larger cells it     |
|     might be more efficient to use real-space projection operators.         |
|     Therefore, try LREAL= Auto in the INCAR file.                           |
|     Mind: For very accurate calculation, you might also keep the            |
|     reciprocal projection scheme (i.e. LREAL=.FALSE.).                      |
|                                                                             |
 -----------------------------------------------------------------------------

  PAW_PBE As 22Sep2009                  :
 energy of atom  1       EATOM= -170.1867
 kinetic energy error for atom=    0.0013 (will be added to EATOM!!)
  PAW_PBE Ga 08Apr2002                  :
 energy of atom  2       EATOM=  -58.8688
 kinetic energy error for atom=    0.0001 (will be added to EATOM!!)
 
 
 POSCAR: cubic gallium arsenide
  positions in direct lattice
  velocities in cartesian coordinates


 exchange-correlation table for PE
   RHO(1)=    0.500       N(1)  =     2000
   RHO(2)=  100.500       N(2)  =     4000
 


--------------------------------------------------------------------------------------------------------


 ion  position               nearest neighbor table
   1  0.000  0.000  0.000-  33 2.50  46 2.50  55 2.50  60 2.50
   2  0.000  0.000  0.500-  34 2.50  45 2.50  56 2.50  59 2.50
   3  0.000  0.500  0.000-  35 2.50  48 2.50  53 2.50  58 2.50
   4  0.000  0.500  0.500-  36 2.50  47 2.50  54 2.50  57 2.50
   5  0.500  0.000  0.000-  37 2.50  42 2.50  51 2.50  64 2.50
   6  0.500  0.000  0.500-  38 2.50  41 2.50  52 2.50  63 2.50
   7  0.500  0.500  0.000-  39 2.50  44 2.50  49 2.50  62 2.50
   8  0.500  0.500  0.500-  40 2.50  43 2.50  50 2.50  61 2.50
   9  0.250  0.250  0.000-  33 2.50  42 2.50  49 2.50  58 2.50
  10  0.250  0.250  0.500-  34 2.50  41 2.50  50 2.50  57 2.50
  11  0.250  0.750  0.000-  35 2.50  44 2.50  51 2.50  60 2.50
  12  0.250  0.750  0.500-  36 2.50  43 2.50  52 2.50  59 2.50
  13  0.750  0.250  0.000-  37 2.50  46 2.50  53 2.50  62 2.50
  14  0.750  0.250  0.500-  38 2.50  45 2.50  54 2.50  61 2.50
  15  0.750  0.750  0.000-  39 2.50  48 2.50  55 2.50  64 2.50
  16  0.750  0.750  0.500-  40 2.50  47 2.50  56 2.50  63 2.50
  17  0.250  0.000  0.250-  33 2.50  41 2.50  51 2.50  59 2.50
  18  0.250  0.000  0.750-  34 2.50  42 2.50  52 2.50  60 2.50
  19  0.250  0.500  0.250-  35 2.50  43 2.50  49 2.50  57 2.50
  20  0.250  0.500  0.750-  36 2.50  44 2.50  50 2.50  58 2.50
  21  0.750  0.000  0.250-  37 2.50  45 2.50  55 2.50  63 2.50
  22  0.750  0.000  0.750-  38 2.50  46 2.50  56 2.50  64 2.50
  23  0.750  0.500  0.250-  39 2.50  47 2.50  53 2.50  61 2.50
  24  0.750  0.500  0.750-  40 2.50  48 2.50  54 2.50  62 2.50
  25  0.000  0.250  0.250-  33 2.50  45 2.50  53 2.50  57 2.50
  26  0.000  0.250  0.750-  34 2.50  46 2.50  54 2.50  58 2.50
  27  0.000  0.750  0.250-  35 2.50  47 2.50  55 2.50  59 2.50
  28  0.000  0.750  0.750-  36 2.50  48 2.50  56 2.50  60 2.50
  29  0.500  0.250  0.250-  37 2.50  41 2.50  49 2.50  61 2.50
  30  0.500  0.250  0.750-  38 2.50  42 2.50  50 2.50  62 2.50
  31  0.500  0.750  0.250-  39 2.50  43 2.50  51 2.50  63 2.50
  32  0.500  0.750  0.750-  40 2.50  44 2.50  52 2.50  64 2.50
  33  0.125  0.125  0.125-   1 2.50   9 2.50  17 2.50  25 2.50
  34  0.125  0.125  0.625-   2 2.50  10 2.50  18 2.50  26 2.50
  35  0.125  0.625  0.125-   3 2.50  11 2.50  19 2.50  27 2.50
  36  0.125  0.625  0.625-   4 2.50  12 2.50  20 2.50  28 2.50
  37  0.625  0.125  0.125-   5 2.50  13 2.50  21 2.50  29 2.50
  38  0.625  0.125  0.625-   6 2.50  14 2.50  22 2.50  30 2.50
  39  0.625  0.625  0.125-   7 2.50  15 2.50  23 2.50  31 2.50
  40  0.625  0.625  0.625-   8 2.50  16 2.50  24 2.50  32 2.50
  41  0.375  0.125  0.375-   6 2.50  10 2.50  17 2.50  29 2.50
  42  0.375  0.125  0.875-   5 2.50   9 2.50  18 2.50  30 2.50
  43  0.375  0.625  0.375-   8 2.50  12 2.50  19 2.50  31 2.50
  44  0.375  0.625  0.875-   7 2.50  11 2.50  20 2.50  32 2.50
  45  0.875  0.125  0.375-   2 2.50  14 2.50  21 2.50  25 2.50
  46  0.875  0.125  0.875-   1 2.50  13 2.50  22 2.50  26 2.50
  47  0.875  0.625  0.375-   4 2.50  16 2.50  23 2.50  27 2.50
  48  0.875  0.625  0.875-   3 2.50  15 2.50  24 2.50  28 2.50
  49  0.375  0.375  0.125-   7 2.50   9 2.50  19 2.50  29 2.50
  50  0.375  0.375  0.625-   8 2.50  10 2.50  20 2.50  30 2.50
  51  0.375  0.875  0.125-   5 2.50  11 2.50  17 2.50  31 2.50
  52  0.375  0.875  0.625-   6 2.50  12 2.50  18 2.50  32 2.50
  53  0.875  0.375  0.125-   3 2.50  13 2.50  23 2.50  25 2.50
  54  0.875  0.375  0.625-   4 2.50  14 2.50  24 2.50  26 2.50
  55  0.875  0.875  0.125-   1 2.50  15 2.50  21 2.50  27 2.50
  56  0.875  0.875  0.625-   2 2.50  16 2.50  22 2.50  28 2.50
  57  0.125  0.375  0.375-   4 2.50  10 2.50  19 2.50  25 2.50
  58  0.125  0.375  0.875-   3 2.50   9 2.50  20 2.50  26 2.50
  59  0.125  0.875  0.375-   2 2.50  12 2.50  17 2.50  27 2.50
  60  0.125  0.875  0.875-   1 2.50  11 2.50  18 2.50  28 2.50
  61  0.625  0.375  0.375-   8 2.50  14 2.50  23 2.50  29 2.50
  62  0.625  0.375  0.875-   7 2.50  13 2.50  24 2.50  30 2.50
  63  0.625  0.875  0.375-   6 2.50  16 2.50  21 2.50  31 2.50
  64  0.625  0.875  0.875-   5 2.50  15 2.50  22 2.50  32 2.50
 
  LATTYP: Found a simple tetragonal cell.
 ALAT       =    11.4732002143
 C/A-ratio  =     1.0197417994
  
  Lattice vectors:
  
 A1 = (   0.0000000000,  11.4732002143,   0.0000000000)
 A2 = (   0.0000000000,   0.0000000000,  11.4732002143)
 A3 = (  11.6997018311,   0.0000000000,   0.0000000000)


Analysis of symmetry for initial positions (statically):
=====================================================================
 Subroutine PRICEL returns following result:
 
  LATTYP: Found a body centered tetragonal cell.
 ALAT       =     4.0563888367
 C/A-ratio  =     1.4421326828
  
  Lattice vectors:
  
 A1 = (   2.9249254578,   0.0000000000,   2.8683000536)
 A2 = (   2.9249254578,   0.0000000000,  -2.8683000536)
 A3 = (  -2.9249254578,   2.8683000536,   0.0000000000)
 
  32 primitive cells build up your supercell.
 

 Routine SETGRP: Setting up the symmetry group for a 
 simple tetragonal supercell.


 Subroutine GETGRP returns: Found  8 space group operations
 (whereof  8 operations were pure point group operations)
 out of a pool of 16 trial point group operations.


The static configuration has the point symmetry D_2d.


Analysis of symmetry for dynamics (positions and initial velocities):
=====================================================================
 Subroutine PRICEL returns following result:
 
  LATTYP: Found a body centered tetragonal cell.
 ALAT       =     4.0563888367
 C/A-ratio  =     1.4421326828
  
  Lattice vectors:
  
 A1 = (   2.9249254578,   0.0000000000,   2.8683000536)
 A2 = (   2.9249254578,   0.0000000000,  -2.8683000536)
 A3 = (  -2.9249254578,   2.8683000536,   0.0000000000)
 
  32 primitive cells build up your supercell.
 

 Routine SETGRP: Setting up the symmetry group for a 
 simple tetragonal supercell.


 Subroutine GETGRP returns: Found  8 space group operations
 (whereof  8 operations were pure point group operations)
 out of a pool of 16 trial point group operations.


The dynamic configuration has the point symmetry D_2d.


 Subroutine INISYM returns: Found  8 space group operations
 (whereof  8 operations are pure point group operations),
 and found    32 'primitive' translations


----------------------------------------------------------------------------------------

                                     Primitive cell                                     

  volume of cell :      48.1276

  direct lattice vectors                    reciprocal lattice vectors
     2.924925458  0.000000000  2.868300054     0.170944527  0.174319280  0.174319280
     2.924925458  0.000000000 -2.868300054     0.170944527  0.174319280 -0.174319280
    -2.924925458  2.868300054  0.000000000     0.000000000  0.348638560  0.000000000

  length of vectors
     4.096624724  4.096624724  4.096624724     0.299994090  0.299994090  0.348638560

  position of ions in fractional coordinates (direct lattice)
     0.000000000  0.000000000  0.000000000
     0.750000000  0.250000000  0.500000000

  ion indices of the primitive-cell ions
   primitive index   ion index
                 1           1
                 2          33

----------------------------------------------------------------------------------------

 
 
 KPOINTS: Automatic mesh                          

Automatic generation of k-mesh.
 Grid dimensions read from file:
 generate k-points for:    5    5    5

 Generating k-lattice:

  Cartesian coordinates                     Fractional coordinates (reciprocal lattice)
     0.017094453  0.000000000  0.000000000     0.200000000  0.000000000  0.000000000
     0.000000000  0.017431928  0.000000000     0.000000000  0.200000000  0.000000000
     0.000000000  0.000000000  0.017431928     0.000000000  0.000000000  0.200000000

  Length of vectors
     0.017094453  0.017431928  0.017431928

  Shift w.r.t. Gamma in fractional coordinates (k-lattice)
     0.000000000  0.000000000  0.000000000

 TETIRR: Found    177 inequivalent tetrahedra from      750
 
 Subroutine IBZKPT returns following result:
 ===========================================
 
 Found     18 irreducible k-points:
 
 Following reciprocal coordinates:
            Coordinates               Weight
  0.000000  0.000000  0.000000      1.000000
  0.200000  0.000000  0.000000      2.000000
  0.400000  0.000000  0.000000      2.000000
  0.000000  0.200000  0.000000      4.000000
  0.200000  0.200000  0.000000      8.000000
  0.400000  0.200000  0.000000      8.000000
  0.000000  0.400000  0.000000      4.000000
  0.200000  0.400000  0.000000      8.000000
  0.400000  0.400000  0.000000      8.000000
  0.000000  0.200000  0.200000      4.000000
  0.200000  0.200000  0.200000      8.000000
  0.400000  0.200000  0.200000      8.000000
  0.000000  0.400000  0.200000      8.000000
  0.200000  0.400000  0.200000     16.000000
  0.400000  0.400000  0.200000     16.000000
  0.000000  0.400000  0.400000      4.000000
  0.200000  0.400000  0.400000      8.000000
  0.400000  0.400000  0.400000      8.000000
 
 Following cartesian coordinates:
            Coordinates               Weight
  0.000000  0.000000  0.000000      1.000000
  0.017094  0.000000  0.000000      2.000000
  0.034189  0.000000  0.000000      2.000000
  0.000000  0.017432  0.000000      4.000000
  0.017094  0.017432  0.000000      8.000000
  0.034189  0.017432  0.000000      8.000000
  0.000000  0.034864  0.000000      4.000000
  0.017094  0.034864  0.000000      8.000000
  0.034189  0.034864  0.000000      8.000000
  0.000000  0.017432  0.017432      4.000000
  0.017094  0.017432  0.017432      8.000000
  0.034189  0.017432  0.017432      8.000000
  0.000000  0.034864  0.017432      8.000000
  0.017094  0.034864  0.017432     16.000000
  0.034189  0.034864  0.017432     16.000000
  0.000000  0.034864  0.034864      4.000000
  0.017094  0.034864  0.034864      8.000000
  0.034189  0.034864  0.034864      8.000000
 
 
 Subroutine IBZKPT_HF returns following result:
 ==============================================
 
 Found    125 k-points in 1st BZ
 the following    125 k-points will be used (e.g. in the exchange kernel)
 Following reciprocal coordinates:   # in IRBZ
  0.000000  0.000000  0.000000    0.00800000   1 t-inv F
  0.200000  0.000000  0.000000    0.00800000   2 t-inv F
  0.400000  0.000000  0.000000    0.00800000   3 t-inv F
  0.000000  0.200000  0.000000    0.00800000   4 t-inv F
  0.200000  0.200000  0.000000    0.00800000   5 t-inv F
  0.400000  0.200000  0.000000    0.00800000   6 t-inv F
  0.000000  0.400000  0.000000    0.00800000   7 t-inv F
  0.200000  0.400000  0.000000    0.00800000   8 t-inv F
  0.400000  0.400000  0.000000    0.00800000   9 t-inv F
  0.000000  0.200000  0.200000    0.00800000  10 t-inv F
  0.200000  0.200000  0.200000    0.00800000  11 t-inv F
  0.400000  0.200000  0.200000    0.00800000  12 t-inv F
  0.000000  0.400000  0.200000    0.00800000  13 t-inv F
  0.200000  0.400000  0.200000    0.00800000  14 t-inv F
  0.400000  0.400000  0.200000    0.00800000  15 t-inv F
  0.000000  0.400000  0.400000    0.00800000  16 t-inv F
  0.200000  0.400000  0.400000    0.00800000  17 t-inv F
  0.400000  0.400000  0.400000    0.00800000  18 t-inv F
 -0.200000  0.000000  0.000000    0.00800000   2 t-inv F
 -0.400000  0.000000  0.000000    0.00800000   3 t-inv F
  0.000000  0.000000 -0.200000    0.00800000   4 t-inv F
  0.000000 -0.200000  0.000000    0.00800000   4 t-inv F
  0.000000  0.000000  0.200000    0.00800000   4 t-inv F
 -0.200000  0.000000 -0.200000    0.00800000   5 t-inv F
  0.200000 -0.200000  0.000000    0.00800000   5 t-inv F
 -0.200000  0.000000  0.200000    0.00800000   5 t-inv F
 -0.200000 -0.200000  0.000000    0.00800000   5 t-inv F
  0.200000  0.000000 -0.200000    0.00800000   5 t-inv F
 -0.200000  0.200000  0.000000    0.00800000   5 t-inv F
  0.200000  0.000000  0.200000    0.00800000   5 t-inv F
 -0.400000  0.000000 -0.200000    0.00800000   6 t-inv F
  0.400000 -0.200000  0.000000    0.00800000   6 t-inv F
 -0.400000  0.000000  0.200000    0.00800000   6 t-inv F
 -0.400000 -0.200000  0.000000    0.00800000   6 t-inv F
  0.400000  0.000000 -0.200000    0.00800000   6 t-inv F
 -0.400000  0.200000  0.000000    0.00800000   6 t-inv F
  0.400000  0.000000  0.200000    0.00800000   6 t-inv F
  0.000000  0.000000 -0.400000    0.00800000   7 t-inv F
  0.000000 -0.400000  0.000000    0.00800000   7 t-inv F
  0.000000  0.000000  0.400000    0.00800000   7 t-inv F
 -0.200000  0.000000 -0.400000    0.00800000   8 t-inv F
  0.200000 -0.400000  0.000000    0.00800000   8 t-inv F
 -0.200000  0.000000  0.400000    0.00800000   8 t-inv F
 -0.200000 -0.400000  0.000000    0.00800000   8 t-inv F
  0.200000  0.000000 -0.400000    0.00800000   8 t-inv F
 -0.200000  0.400000  0.000000    0.00800000   8 t-inv F
  0.200000  0.000000  0.400000    0.00800000   8 t-inv F
 -0.400000  0.000000 -0.400000    0.00800000   9 t-inv F
  0.400000 -0.400000  0.000000    0.00800000   9 t-inv F
 -0.400000  0.000000  0.400000    0.00800000   9 t-inv F
 -0.400000 -0.400000  0.000000    0.00800000   9 t-inv F
  0.400000  0.000000 -0.400000    0.00800000   9 t-inv F
 -0.400000  0.400000  0.000000    0.00800000   9 t-inv F
  0.400000  0.000000  0.400000    0.00800000   9 t-inv F
  0.000000  0.200000 -0.200000    0.00800000  10 t-inv F
  0.000000 -0.200000 -0.200000    0.00800000  10 t-inv F
  0.000000 -0.200000  0.200000    0.00800000  10 t-inv F
 -0.200000  0.200000 -0.200000    0.00800000  11 t-inv F
  0.200000 -0.200000 -0.200000    0.00800000  11 t-inv F
 -0.200000 -0.200000  0.200000    0.00800000  11 t-inv F
 -0.400000  0.200000 -0.200000    0.00800000  12 t-inv F
  0.400000 -0.200000 -0.200000    0.00800000  12 t-inv F
 -0.400000 -0.200000  0.200000    0.00800000  12 t-inv F
  0.000000  0.200000 -0.400000    0.00800000  13 t-inv F
  0.000000 -0.400000 -0.200000    0.00800000  13 t-inv F
  0.000000 -0.200000  0.400000    0.00800000  13 t-inv F
  0.000000 -0.400000  0.200000    0.00800000  13 t-inv F
  0.000000 -0.200000 -0.400000    0.00800000  13 t-inv F
  0.000000  0.400000 -0.200000    0.00800000  13 t-inv F
  0.000000  0.200000  0.400000    0.00800000  13 t-inv F
 -0.200000  0.200000 -0.400000    0.00800000  14 t-inv F
  0.200000 -0.400000 -0.200000    0.00800000  14 t-inv F
 -0.200000 -0.200000  0.400000    0.00800000  14 t-inv F
 -0.200000 -0.400000  0.200000    0.00800000  14 t-inv F
  0.200000 -0.200000 -0.400000    0.00800000  14 t-inv F
 -0.200000  0.400000 -0.200000    0.00800000  14 t-inv F
  0.200000  0.200000  0.400000    0.00800000  14 t-inv F
 -0.400000  0.200000 -0.400000    0.00800000  15 t-inv F
  0.400000 -0.400000 -0.200000    0.00800000  15 t-inv F
 -0.400000 -0.200000  0.400000    0.00800000  15 t-inv F
 -0.400000 -0.400000  0.200000    0.00800000  15 t-inv F
  0.400000 -0.200000 -0.400000    0.00800000  15 t-inv F
 -0.400000  0.400000 -0.200000    0.00800000  15 t-inv F
  0.400000  0.200000  0.400000    0.00800000  15 t-inv F
  0.000000  0.400000 -0.400000    0.00800000  16 t-inv F
  0.000000 -0.400000 -0.400000    0.00800000  16 t-inv F
  0.000000 -0.400000  0.400000    0.00800000  16 t-inv F
 -0.200000  0.400000 -0.400000    0.00800000  17 t-inv F
  0.200000 -0.400000 -0.400000    0.00800000  17 t-inv F
 -0.200000 -0.400000  0.400000    0.00800000  17 t-inv F
 -0.400000  0.400000 -0.400000    0.00800000  18 t-inv F
  0.400000 -0.400000 -0.400000    0.00800000  18 t-inv F
 -0.400000 -0.400000  0.400000    0.00800000  18 t-inv F
 -0.200000 -0.200000 -0.200000    0.00800000  11 t-inv T
  0.200000 -0.200000  0.200000    0.00800000  11 t-inv T
 -0.200000  0.200000  0.200000    0.00800000  11 t-inv T
  0.200000  0.200000 -0.200000    0.00800000  11 t-inv T
 -0.400000 -0.200000 -0.200000    0.00800000  12 t-inv T
  0.400000 -0.200000  0.200000    0.00800000  12 t-inv T
 -0.400000  0.200000  0.200000    0.00800000  12 t-inv T
  0.400000  0.200000 -0.200000    0.00800000  12 t-inv T
 -0.200000 -0.400000 -0.200000    0.00800000  14 t-inv T
  0.200000 -0.200000  0.400000    0.00800000  14 t-inv T
 -0.200000  0.400000  0.200000    0.00800000  14 t-inv T
  0.200000  0.200000 -0.400000    0.00800000  14 t-inv T
  0.200000  0.400000 -0.200000    0.00800000  14 t-inv T
 -0.200000  0.200000  0.400000    0.00800000  14 t-inv T
  0.200000 -0.400000  0.200000    0.00800000  14 t-inv T
 -0.200000 -0.200000 -0.400000    0.00800000  14 t-inv T
 -0.400000 -0.400000 -0.200000    0.00800000  15 t-inv T
  0.400000 -0.200000  0.400000    0.00800000  15 t-inv T
 -0.400000  0.400000  0.200000    0.00800000  15 t-inv T
  0.400000  0.200000 -0.400000    0.00800000  15 t-inv T
  0.400000  0.400000 -0.200000    0.00800000  15 t-inv T
 -0.400000  0.200000  0.400000    0.00800000  15 t-inv T
  0.400000 -0.400000  0.200000    0.00800000  15 t-inv T
 -0.400000 -0.200000 -0.400000    0.00800000  15 t-inv T
 -0.200000 -0.400000 -0.400000    0.00800000  17 t-inv T
  0.200000 -0.400000  0.400000    0.00800000  17 t-inv T
 -0.200000  0.400000  0.400000    0.00800000  17 t-inv T
  0.200000  0.400000 -0.400000    0.00800000  17 t-inv T
 -0.400000 -0.400000 -0.400000    0.00800000  18 t-inv T
  0.400000 -0.400000  0.400000    0.00800000  18 t-inv T
 -0.400000  0.400000  0.400000    0.00800000  18 t-inv T
  0.400000  0.400000 -0.400000    0.00800000  18 t-inv T


--------------------------------------------------------------------------------------------------------




 Dimension of arrays:
   k-points           NKPTS =     18   k-points in BZ     NKDIM =     18   number of bands    NBANDS=    168
   number of dos      NEDOS =    301   number of ions     NIONS =     64
   non local maximal  LDIM  =      5   non local SUM 2l+1 LMDIM =     13
   total plane-waves  NPLWV = 188160
   max r-space proj   IRMAX =      1   max aug-charges    IRDMAX=   8979
   dimension x,y,z NGX =    60 NGY =   56 NGZ =   56
   dimension x,y,z NGXF=   120 NGYF=  112 NGZF=  112
   support grid    NGXF=   120 NGYF=  112 NGZF=  112
   ions per type =              32  32
   NGX,Y,Z   is equivalent  to a cutoff of   8.53,  8.11,  8.11 a.u.
   NGXF,Y,Z  is equivalent  to a cutoff of  17.05, 16.23, 16.23 a.u.

 SYSTEM =  GaAs                                    
 POSCAR =  cubic gallium arsenide                  

 Startparameter for this run:
   NWRITE =      2    write-flag & timer
   PREC   = normal    normal or accurate (medium, high low for compatibility)
   ISTART =      0    job   : 0-new  1-cont  2-samecut
   ICHARG =      2    charge: 1-file 2-atom 10-const
   ISPIN  =      1    spin polarized calculation?
   LNONCOLLINEAR =      F non collinear calculations
   LSORBIT =      F    spin-orbit coupling
   INIWAV =      1    electr: 0-lowe 1-rand  2-diag
   LASPH  =      F    aspherical Exc in radial PAW
 Electronic Relaxation 1
   ENCUT  =  400.0 eV  29.40 Ry    5.42 a.u.  19.08 18.71 18.71*2*pi/ulx,y,z
   ENINI  =  400.0     initial cutoff
   ENAUG  =  462.8 eV  augmentation charge cutoff
   NELM   =     60;   NELMIN=  2; NELMDL=  0     # of ELM steps 
   EDIFF  = 0.1E-05   stopping-criterion for ELM
   LREAL  =      F    real-space projection
   NLSPLINE    = F    spline interpolate recip. space projectors
   LCOMPAT=      F    compatible to vasp.4.4
   GGA_COMPAT  = T    GGA compatible to vasp.4.4-vasp.4.6
   LMAXPAW     = -100 max onsite density
   LMAXMIX     =    2 max onsite mixed and CHGCAR
   VOSKOWN=      0    Vosko Wilk Nusair interpolation
   ROPT   =    0.00000   0.00000
 Ionic relaxation
   EDIFFG = 0.1E-02   stopping-criterion for IOM
   NSW    =    100    number of steps for IOM
   NBLOCK =      1;   KBLOCK =    100    inner block; outer block 
   IBRION =      2    ionic relax: 0-MD 1-quasi-New 2-CG
   NFREE  =      2    steps in history (QN), initial steepest desc. (CG)
   ISIF   =      2    stress and relaxation
   IWAVPR =     11    prediction:  0-non 1-charg 2-wave 3-comb
   ISYM   =      2    0-nonsym 1-usesym 2-fastsym
   LCORR  =      T    Harris-Foulkes like correction to forces

   POTIM  = 0.1000    time-step for ionic-motion
   TEIN   =    0.0    initial temperature
   TEBEG  =    0.0;   TEEND  =   0.0 temperature during run
   SMASS  =  -3.00    Nose mass-parameter (am)
   estimated Nose-frequenzy (Omega)   =  0.10E-29 period in steps = 0.63E+47 mass=  -0.313E-26a.u.
   SCALEE = 1.0000    scale energy and forces
   NPACO  =    256;   APACO  = 10.0  distance and # of slots for P.C.
   PSTRESS=    0.0 pullay stress

  Mass of Ions in am
   POMASS =  74.92 69.72
  Ionic Valenz
   ZVAL   =   5.00  3.00
  Atomic Wigner-Seitz radii
   RWIGS  =  -1.00 -1.00
  virtual crystal weights 
   VCA    =   1.00  1.00
   NELECT =     256.0000    total number of electrons
   NUPDOWN=      -1.0000    fix difference up-down

 DOS related values:
   EMIN   =  10.00;   EMAX   =-10.00  energy-range for DOS
   EFERMI =   0.00;   METHOD = LEGACY      
   ISMEAR =    -5;   SIGMA  =   0.10  broadening in eV -4-tet -1-fermi 0-gaus

 Electronic relaxation 2 (details)
   IALGO  =     38    algorithm
   LDIAG  =      T    sub-space diagonalisation (order eigenvalues)
   LSUBROT=      F    optimize rotation matrix (better conditioning)
   TURBO    =      0    0=normal 1=particle mesh
   IRESTART =      0    0=no restart 2=restart with 2 vectors
   NREBOOT  =      0    no. of reboots
   NMIN     =      0    reboot dimension
   EREF     =   0.00    reference energy to select bands
   IMIX   =      4    mixing-type and parameters
     AMIX     =   0.40;   BMIX     =  1.00
     AMIX_MAG =   1.60;   BMIX_MAG =  1.00
     AMIN     =   0.10
     WC   =   100.;   INIMIX=   1;  MIXPRE=   1;  MAXMIX= -45

 Intra band minimization:
   WEIMIN = 0.0010     energy-eigenvalue tresh-hold
   EBREAK =  0.15E-08  absolut break condition
   DEPER  =   0.30     relativ break condition  

   TIME   =   0.40     timestep for ELM

  volume/ion in A,a.u.               =      24.06       162.39
  Fermi-wavevector in a.u.,A,eV,Ry     =   0.900133  1.701005 11.023984  0.810240
  Thomas-Fermi vector in A             =   2.023053
 
 Write flags
   LWAVE        =      T    write WAVECAR
   LDOWNSAMPLE  =      F    k-point downsampling of WAVECAR
   LCHARG       =      T    write CHGCAR
   LVTOT        =      F    write LOCPOT, total local potential
   LVHAR        =      F    write LOCPOT, Hartree potential only
   WRT_POTENTIAL= false  ! write potential to hdf5 file
   LELF         =      F    write electronic localiz. function (ELF)
   LORBIT       =      0    0 simple, 1 ext, 2 COOP (PROOUT), +10 PAW based schemes


 Dipole corrections
   LMONO      =      F    monopole corrections only (constant potential shift)
   LDIPOL     =      F    correct potential (dipole corrections)
   IDIPOL     =      0    1-x, 2-y, 3-z, 4-all directions 
   EPSILON    =  1.0000000 bulk dielectric constant
   LVACPOTAV  =      F  vacuum potentials using an averaging scheme for the charge density
   VACPOTFLAT =  0.1000000 required flatness to determine vacuum potential
 Exchange correlation treatment:
   GGA     = PE    functional components
   XC_C    = 1    coefficients multiplying the functional components
   LIBXC   =     F    Libxc                    
   VOSKOWN =     0    Vosko Wilk Nusair interpolation
   LHFCALC =     F    Hartree Fock is set to
   LHFONE  =     F    Hartree Fock one center treatment
   AEXX    =    0.0000 exact exchange contribution

 Parameters of functionals:
   PE:
     No parameter
 
 Van der Waals corrections
   IVDW    =     0    specifies the selected vdW correction

 Linear response parameters
   LEPSILON=     T    determine dielectric tensor
   LRPA    =     F    only Hartree local field effects (RPA)
   LNABLA  =     F    use nabla operator in PAW spheres
   LVEL    =     F    velocity operator in full k-point grid
   CSHIFT  =0.1000    complex shift for real part using Kramers Kronig
   OMEGAMAX=  -1.0    maximum frequency
   DEG_THRESHOLD= 0.2000000E-02 threshold for treating states as degnerate
   RTIME   =   -0.100 relaxation time in fs
  (WPLASMAI=    0.000 imaginary part of plasma frequency in eV, 0.658/RTIME)
   DFIELD  = 0.0000000 0.0000000 0.0000000 field for delta impulse in time
 
  Optional k-point grid parameters
   LKPOINTS_OPT  =     F    use optional k-point grid
   KPOINTS_OPT_MODE=     1    mode for optional k-point grid
 
 Orbital magnetization related:
   ORBITALMAG=     F  switch on orbital magnetization
   LCHIMAG   =     F  perturbation theory with respect to B field
   DQ        =  0.001000  dq finite difference perturbation B field
   LLRAUG    =     F  two centre corrections for induced B field
   LBONE     =     F  B-component reconstruction in AE one-centre
   LVGVCALC  =     T  calculate vGv susceptibility
   LVGVAPPL  =     F  apply vGv susceptibility instead of pGv for G=0

 Random number generation:
   RANDOM_GENERATOR = DEFAULT
   PCG_SEED         = not used


--------------------------------------------------------------------------------------------------------


 conjugate gradient relaxation of ions
 charge density and potential will be updated during run
 non-spin polarized calculation
 Variant of blocked Davidson
 Davidson routine will perform the subspace rotation
 perform sub-space diagonalisation
    after iterative eigenvector-optimisation
 modified Broyden-mixing scheme, WC =      100.0
 initial mixing is a Kerker type mixing with AMIX =  0.4000 and BMIX =      1.0000
 Hartree-type preconditioning will be used
 using additional bands           40
 reciprocal scheme for non local part
 use partial core corrections
 calculate Harris-corrections to forces 
   (improved forces if not selfconsistent)
 use gradient corrections 
 use of overlap-Matrix (Vanderbilt PP)
 Fermi weights with tetrahedron method with Bloechl corrections


--------------------------------------------------------------------------------------------------------


  energy-cutoff  :      400.00
  volume of cell :     1540.08
      direct lattice vectors                 reciprocal lattice vectors
    11.699701831  0.000000000  0.000000000     0.085472264  0.000000000  0.000000000
     0.000000000 11.473200214  0.000000000     0.000000000  0.087159640  0.000000000
     0.000000000  0.000000000 11.473200214     0.000000000  0.000000000  0.087159640

  length of vectors
    11.699701831 11.473200214 11.473200214     0.085472264  0.087159640  0.087159640


 
 k-points in units of 2pi/SCALE and weight: Automatic mesh                          
   0.00000000  0.00000000  0.00000000       0.008
   0.01709445  0.00000000  0.00000000       0.016
   0.03418891  0.00000000  0.00000000       0.016
   0.00000000  0.01743193  0.00000000       0.032
   0.01709445  0.01743193  0.00000000       0.064
   0.03418891  0.01743193  0.00000000       0.064
   0.00000000  0.03486386  0.00000000       0.032
   0.01709445  0.03486386  0.00000000       0.064
   0.03418891  0.03486386  0.00000000       0.064
   0.00000000  0.01743193  0.01743193       0.032
   0.01709445  0.01743193  0.01743193       0.064
   0.03418891  0.01743193  0.01743193       0.064
   0.00000000  0.03486386  0.01743193       0.064
   0.01709445  0.03486386  0.01743193       0.128
   0.03418891  0.03486386  0.01743193       0.128
   0.00000000  0.03486386  0.03486386       0.032
   0.01709445  0.03486386  0.03486386       0.064
   0.03418891  0.03486386  0.03486386       0.064
 
 k-points in reciprocal lattice and weights: Automatic mesh                          
   0.00000000  0.00000000  0.00000000       0.008
   0.20000000  0.00000000  0.00000000       0.016
   0.40000000  0.00000000  0.00000000       0.016
   0.00000000  0.20000000  0.00000000       0.032
   0.20000000  0.20000000  0.00000000       0.064
   0.40000000  0.20000000  0.00000000       0.064
   0.00000000  0.40000000  0.00000000       0.032
   0.20000000  0.40000000  0.00000000       0.064
   0.40000000  0.40000000  0.00000000       0.064
   0.00000000  0.20000000  0.20000000       0.032
   0.20000000  0.20000000  0.20000000       0.064
   0.40000000  0.20000000  0.20000000       0.064
   0.00000000  0.40000000  0.20000000       0.064
   0.20000000  0.40000000  0.20000000       0.128
   0.40000000  0.40000000  0.20000000       0.128
   0.00000000  0.40000000  0.40000000       0.032
   0.20000000  0.40000000  0.40000000       0.064
   0.40000000  0.40000000  0.40000000       0.064
 
 position of ions in fractional coordinates (direct lattice) 
   0.00000000  0.00000000  0.00000000
   0.00000000  0.00000000  0.50000000
   0.00000000  0.50000000  0.00000000
   0.00000000  0.50000000  0.50000000
   0.50000000  0.00000000  0.00000000
   0.50000000  0.00000000  0.50000000
   0.50000000  0.50000000  0.00000000
   0.50000000  0.50000000  0.50000000
   0.25000000  0.25000000  0.00000000
   0.25000000  0.25000000  0.50000000
   0.25000000  0.75000000  0.00000000
   0.25000000  0.75000000  0.50000000
   0.75000000  0.25000000  0.00000000
   0.75000000  0.25000000  0.50000000
   0.75000000  0.75000000  0.00000000
   0.75000000  0.75000000  0.50000000
   0.25000000  0.00000000  0.25000000
   0.25000000  0.00000000  0.75000000
   0.25000000  0.50000000  0.25000000
   0.25000000  0.50000000  0.75000000
   0.75000000  0.00000000  0.25000000
   0.75000000  0.00000000  0.75000000
   0.75000000  0.50000000  0.25000000
   0.75000000  0.50000000  0.75000000
   0.00000000  0.25000000  0.25000000
   0.00000000  0.25000000  0.75000000
   0.00000000  0.75000000  0.25000000
   0.00000000  0.75000000  0.75000000
   0.50000000  0.25000000  0.25000000
   0.50000000  0.25000000  0.75000000
   0.50000000  0.75000000  0.25000000
   0.50000000  0.75000000  0.75000000
   0.12500000  0.12500000  0.12500000
   0.12500000  0.12500000  0.62500000
   0.12500000  0.62500000  0.12500000
   0.12500000  0.62500000  0.62500000
   0.62500000  0.12500000  0.12500000
   0.62500000  0.12500000  0.62500000
   0.62500000  0.62500000  0.12500000
   0.62500000  0.62500000  0.62500000
   0.37500000  0.12500000  0.37500000
   0.37500000  0.12500000  0.87500000
   0.37500000  0.62500000  0.37500000
   0.37500000  0.62500000  0.87500000
   0.87500000  0.12500000  0.37500000
   0.87500000  0.12500000  0.87500000
   0.87500000  0.62500000  0.37500000
   0.87500000  0.62500000  0.87500000
   0.37500000  0.37500000  0.12500000
   0.37500000  0.37500000  0.62500000
   0.37500000  0.87500000  0.12500000
   0.37500000  0.87500000  0.62500000
   0.87500000  0.37500000  0.12500000
   0.87500000  0.37500000  0.62500000
   0.87500000  0.87500000  0.12500000
   0.87500000  0.87500000  0.62500000
   0.12500000  0.37500000  0.37500000
   0.12500000  0.37500000  0.87500000
   0.12500000  0.87500000  0.37500000
   0.12500000  0.87500000  0.87500000
   0.62500000  0.37500000  0.37500000
   0.62500000  0.37500000  0.87500000
   0.62500000  0.87500000  0.37500000
   0.62500000  0.87500000  0.87500000
 
 position of ions in cartesian coordinates  (Angst):
   0.00000000  0.00000000  0.00000000
   0.00000000  0.00000000  5.73660011
   0.00000000  5.73660011  0.00000000
   0.00000000  5.73660011  5.73660011
   5.84985092  0.00000000  0.00000000
   5.84985092  0.00000000  5.73660011
   5.84985092  5.73660011  0.00000000
   5.84985092  5.73660011  5.73660011
   2.92492546  2.86830005  0.00000000
   2.92492546  2.86830005  5.73660011
   2.92492546  8.60490016  0.00000000
   2.92492546  8.60490016  5.73660011
   8.77477637  2.86830005  0.00000000
   8.77477637  2.86830005  5.73660011
   8.77477637  8.60490016  0.00000000
   8.77477637  8.60490016  5.73660011
   2.92492546  0.00000000  2.86830005
   2.92492546  0.00000000  8.60490016
   2.92492546  5.73660011  2.86830005
   2.92492546  5.73660011  8.60490016
   8.77477637  0.00000000  2.86830005
   8.77477637  0.00000000  8.60490016
   8.77477637  5.73660011  2.86830005
   8.77477637  5.73660011  8.60490016
   0.00000000  2.86830005  2.86830005
   0.00000000  2.86830005  8.60490016
   0.00000000  8.60490016  2.86830005
   0.00000000  8.60490016  8.60490016
   5.84985092  2.86830005  2.86830005
   5.84985092  2.86830005  8.60490016
   5.84985092  8.60490016  2.86830005
   5.84985092  8.60490016  8.60490016
   1.46246273  1.43415003  1.43415003
   1.46246273  1.43415003  7.17075013
   1.46246273  7.17075013  1.43415003
   1.46246273  7.17075013  7.17075013
   7.31231364  1.43415003  1.43415003
   7.31231364  1.43415003  7.17075013
   7.31231364  7.17075013  1.43415003
   7.31231364  7.17075013  7.17075013
   4.38738819  1.43415003  4.30245008
   4.38738819  1.43415003 10.03905019
   4.38738819  7.17075013  4.30245008
   4.38738819  7.17075013 10.03905019
  10.23723910  1.43415003  4.30245008
  10.23723910  1.43415003 10.03905019
  10.23723910  7.17075013  4.30245008
  10.23723910  7.17075013 10.03905019
   4.38738819  4.30245008  1.43415003
   4.38738819  4.30245008  7.17075013
   4.38738819 10.03905019  1.43415003
   4.38738819 10.03905019  7.17075013
  10.23723910  4.30245008  1.43415003
  10.23723910  4.30245008  7.17075013
  10.23723910 10.03905019  1.43415003
  10.23723910 10.03905019  7.17075013
   1.46246273  4.30245008  4.30245008
   1.46246273  4.30245008 10.03905019
   1.46246273 10.03905019  4.30245008
   1.46246273 10.03905019 10.03905019
   7.31231364  4.30245008  4.30245008
   7.31231364  4.30245008 10.03905019
   7.31231364 10.03905019  4.30245008
   7.31231364 10.03905019 10.03905019
 


--------------------------------------------------------------------------------------------------------


 k-point     1 :   0.0000 0.0000 0.0000  plane waves:   27995
 k-point     2 :   0.2000 0.0000 0.0000  plane waves:   27990
 k-point     3 :   0.4000 0.0000 0.0000  plane waves:   28042
 k-point     4 :   0.0000 0.2000 0.0000  plane waves:   27993
 k-point     5 :   0.2000 0.2000 0.0000  plane waves:   27997
 k-point     6 :   0.4000 0.2000 0.0000  plane waves:   27969
 k-point     7 :   0.0000 0.4000 0.0000  plane waves:   27958
 k-point     8 :   0.2000 0.4000 0.0000  plane waves:   27960
 k-point     9 :   0.4000 0.4000 0.0000  plane waves:   27984
 k-point    10 :   0.0000 0.2000 0.2000  plane waves:   27973
 k-point    11 :   0.2000 0.2000 0.2000  plane waves:   27982
 k-point    12 :   0.4000 0.2000 0.2000  plane waves:   27975
 k-point    13 :   0.0000 0.4000 0.2000  plane waves:   27939
 k-point    14 :   0.2000 0.4000 0.2000  plane waves:   27969
 k-point    15 :   0.4000 0.4000 0.2000  plane waves:   27996
 k-point    16 :   0.0000 0.4000 0.4000  plane waves:   27990
 k-point    17 :   0.2000 0.4000 0.4000  plane waves:   27984
 k-point    18 :   0.4000 0.4000 0.4000  plane waves:   27982

 maximum and minimum number of plane-waves per node :     28042    27939

 maximum number of plane-waves:     28042
 maximum index in each direction: 
   IXMAX=   19   IYMAX=   18   IZMAX=   18
   IXMIN=  -19   IYMIN=  -19   IZMIN=  -19


 serial   3D FFT for wavefunctions
 parallel 3D FFT for charge:
    minimum data exchange during FFTs selected (reduces bandwidth)


 total amount of memory used by VASP MPI-rank0   364380. kBytes
=======================================================================

   base      :      30000. kBytes
   nonl-proj :     133732. kBytes
   fftplans  :       7212. kBytes
   grid      :      18251. kBytes
   one-center:        519. kBytes
   wavefun   :     174666. kBytes
 
     INWAV:  cpu time      0.0001: real time      0.0002
 Broyden mixing: mesh for mixing (old mesh)
   NGX = 39   NGY = 37   NGZ = 37
  (NGX  =120   NGY  =112   NGZ  =112)
  gives a total of  53391 points

 initial charge density was supplied:
 charge density of overlapping atoms calculated
 number of electron     256.0000000 magnetization 
 keeping initial charge density in first step


--------------------------------------------------------------------------------------------------------


 Maximum index for augmentation-charges         1091 (set IRDMAX)


--------------------------------------------------------------------------------------------------------


 First call to EWALD:  gamma=   0.153
 Maximum number of real-space cells 3x 3x 3
 Maximum number of reciprocal cells 3x 3x 3

    FEWALD:  cpu time      0.0029: real time      0.0029
[...]
   15.492955    0.383588    0.405798    0.405798   -0.000000    0.000000    0.000000
   15.512767    0.385525    0.407420    0.407420   -0.000000    0.000000    0.000000
   15.532579    0.387403    0.408993    0.408993   -0.000000    0.000000    0.000000
   15.552391    0.389219    0.410527    0.410527   -0.000000    0.000000    0.000000
   15.572202    0.390973    0.412035    0.412035   -0.000000    0.000000    0.000000
   15.592014    0.392673    0.413530    0.413530   -0.000000    0.000000    0.000000
   15.611826    0.394331    0.415027    0.415027   -0.000000    0.000000    0.000000
   15.631638    0.395967    0.416536    0.416536   -0.000000    0.000000    0.000000
   15.651450    0.397601    0.418069    0.418069   -0.000000    0.000000    0.000000
   15.671262    0.399246    0.419632    0.419632   -0.000000    0.000000    0.000000
   15.691074    0.400906    0.421225    0.421225   -0.000000    0.000000    0.000000
   15.710886    0.402579    0.422848    0.422848   -0.000000    0.000000    0.000000
   15.730698    0.404262    0.424496    0.424496   -0.000000    0.000000    0.000000
   15.750510    0.405953    0.426165    0.426165   -0.000000    0.000000    0.000000
   15.770322    0.407649    0.427850    0.427850   -0.000000    0.000000    0.000000
   15.790134    0.409349    0.429545    0.429545   -0.000000    0.000000    0.000000
   15.809946    0.411053    0.431244    0.431244   -0.000000    0.000000    0.000000
   15.829758    0.412758    0.432943    0.432943   -0.000000    0.000000    0.000000
   15.849570    0.414463    0.434637    0.434637   -0.000000    0.000000    0.000000
   15.869382    0.416168    0.436325    0.436325   -0.000000    0.000000    0.000000
   15.889194    0.417874    0.438008    0.438008   -0.000000    0.000000    0.000000
   15.909006    0.419582    0.439693    0.439693   -0.000000    0.000000    0.000000
   15.928818    0.421294    0.441383    0.441383   -0.000000    0.000000    0.000000
   15.948630    0.423007    0.443080    0.443080   -0.000000    0.000000    0.000000
   15.968442    0.424717    0.444780    0.444780   -0.000000    0.000000    0.000000
   15.988254    0.426420    0.446478    0.446478   -0.000000    0.000000    0.000000
   16.008066    0.428113    0.448173    0.448173   -0.000000    0.000000    0.000000
   16.027878    0.429796    0.449863    0.449863   -0.000000    0.000000    0.000000
   16.047690    0.431471    0.451550    0.451550   -0.000000    0.000000    0.000000
   16.067502    0.433144    0.453235    0.453235   -0.000000    0.000000    0.000000
   16.087314    0.434820    0.454919    0.454919   -0.000000    0.000000    0.000000
   16.107125    0.436500    0.456601    0.456601   -0.000000    0.000000    0.000000
   16.126937    0.438183    0.458279    0.458279   -0.000000    0.000000    0.000000
   16.146749    0.439865    0.459949    0.459949   -0.000000    0.000000    0.000000
   16.166561    0.441543    0.461610    0.461610   -0.000000    0.000000    0.000000
   16.186373    0.443212    0.463259    0.463259   -0.000000    0.000000    0.000000
   16.206185    0.444873    0.464896    0.464896   -0.000000    0.000000    0.000000
   16.225997    0.446522    0.466519    0.466519   -0.000000    0.000000    0.000000
   16.245809    0.448160    0.468129    0.468129   -0.000000    0.000000    0.000000
   16.265621    0.449787    0.469727    0.469727   -0.000000    0.000000    0.000000
   16.285433    0.451403    0.471312    0.471312   -0.000000    0.000000    0.000000
   16.305245    0.453008    0.472885    0.472885   -0.000000    0.000000    0.000000
   16.325057    0.454602    0.474446    0.474446   -0.000000    0.000000    0.000000
   16.344869    0.456185    0.475996    0.475996   -0.000000    0.000000    0.000000
   16.364681    0.457758    0.477534    0.477534   -0.000000    0.000000    0.000000
   16.384493    0.459321    0.479062    0.479062   -0.000000    0.000000    0.000000
   16.404305    0.460873    0.480580    0.480580   -0.000000    0.000000    0.000000
   16.424117    0.462417    0.482087    0.482087   -0.000000    0.000000    0.000000
   16.443929    0.463950    0.483584    0.483584   -0.000000    0.000000    0.000000
   16.463741    0.465474    0.485072    0.485072   -0.000000    0.000000    0.000000
   16.483553    0.466989    0.486550    0.486550   -0.000000    0.000000    0.000000
   16.503365    0.468495    0.488018    0.488018   -0.000000    0.000000    0.000000
   16.523177    0.469991    0.489478    0.489478   -0.000000    0.000000    0.000000
   16.542989    0.471479    0.490928    0.490928   -0.000000    0.000000    0.000000
   16.562801    0.472958    0.492370    0.492370   -0.000000    0.000000    0.000000
   16.582613    0.474429    0.493803    0.493803   -0.000000    0.000000    0.000000
   16.602425    0.475891    0.495228    0.495228   -0.000000    0.000000    0.000000
   16.622237    0.477345    0.496644    0.496644   -0.000000    0.000000    0.000000
   16.642048    0.478791    0.498053    0.498053   -0.000000    0.000000    0.000000
   16.661860    0.480229    0.499453    0.499453   -0.000000    0.000000    0.000000
   16.681672    0.481659    0.500845    0.500845   -0.000000    0.000000    0.000000
   16.701484    0.483082    0.502230    0.502230   -0.000000    0.000000    0.000000
   16.721296    0.484497    0.503607    0.503607   -0.000000    0.000000    0.000000
   16.741108    0.485904    0.504977    0.504977   -0.000000    0.000000    0.000000
   16.760920    0.487305    0.506339    0.506339   -0.000000    0.000000    0.000000
   16.780732    0.488698    0.507694    0.507694   -0.000000    0.000000    0.000000
   16.800544    0.490084    0.509042    0.509042   -0.000000    0.000000    0.000000
   16.820356    0.491462    0.510383    0.510383   -0.000000    0.000000    0.000000
   16.840168    0.492834    0.511717    0.511717   -0.000000    0.000000    0.000000
   16.859980    0.494199    0.513044    0.513044   -0.000000    0.000000    0.000000
   16.879792    0.495558    0.514364    0.514364   -0.000000    0.000000    0.000000
   16.899604    0.496909    0.515678    0.515678   -0.000000    0.000000    0.000000
   16.919416    0.498254    0.516985    0.516985   -0.000000    0.000000    0.000000
   16.939228    0.499593    0.518285    0.518285   -0.000000    0.000000    0.000000
   16.959040    0.500925    0.519579    0.519579   -0.000000    0.000000    0.000000
   16.978852    0.502250    0.520867    0.520867   -0.000000    0.000000    0.000000
   16.998664    0.503569    0.522148    0.522148   -0.000000    0.000000    0.000000
   17.018476    0.504882    0.523423    0.523423   -0.000000    0.000000    0.000000
   17.038288    0.506189    0.524692    0.524692   -0.000000    0.000000    0.000000
   17.058100    0.507490    0.525955    0.525955   -0.000000    0.000000    0.000000
   17.077912    0.508784    0.527211    0.527211   -0.000000    0.000000    0.000000
   17.097724    0.510073    0.528462    0.528462   -0.000000    0.000000    0.000000
   17.117536    0.511355    0.529707    0.529707   -0.000000    0.000000    0.000000
   17.137348    0.512632    0.530946    0.530946   -0.000000    0.000000    0.000000
   17.157159    0.513903    0.532179    0.532179   -0.000000    0.000000    0.000000
   17.176971    0.515168    0.533406    0.533406   -0.000000    0.000000    0.000000
   17.196783    0.516427    0.534628    0.534628   -0.000000    0.000000    0.000000
   17.216595    0.517681    0.535844    0.535844   -0.000000    0.000000    0.000000
   17.236407    0.518929    0.537054    0.537054   -0.000000    0.000000    0.000000
   17.256219    0.520171    0.538259    0.538259   -0.000000    0.000000    0.000000
   17.276031    0.521408    0.539458    0.539458   -0.000000    0.000000    0.000000
   17.295843    0.522639    0.540652    0.540652   -0.000000    0.000000    0.000000
   17.315655    0.523865    0.541841    0.541841   -0.000000    0.000000    0.000000
   17.335467    0.525085    0.543024    0.543024   -0.000000    0.000000    0.000000
   17.355279    0.526301    0.544202    0.544202   -0.000000    0.000000    0.000000
   17.375091    0.527510    0.545375    0.545375   -0.000000    0.000000    0.000000
   17.394903    0.528715    0.546542    0.546542   -0.000000    0.000000    0.000000
   17.414715    0.529914    0.547704    0.547704   -0.000000    0.000000    0.000000
   17.434527    0.531108    0.548861    0.548861   -0.000000    0.000000    0.000000
   17.454339    0.532297    0.550013    0.550013   -0.000000    0.000000    0.000000
   17.474151    0.533481    0.551160    0.551160   -0.000000    0.000000    0.000000
   17.493963    0.534660    0.552302    0.552302   -0.000000    0.000000    0.000000
   17.513775    0.535833    0.553439    0.553439   -0.000000    0.000000    0.000000
   17.533587    0.537002    0.554572    0.554572   -0.000000    0.000000    0.000000
   17.553399    0.538166    0.555699    0.555699   -0.000000    0.000000    0.000000
   17.573211    0.539325    0.556821    0.556821   -0.000000    0.000000    0.000000
   17.593023    0.540479    0.557939    0.557939   -0.000000    0.000000    0.000000
   17.612835    0.541628    0.559052    0.559052   -0.000000    0.000000    0.000000
   17.632647    0.542772    0.560160    0.560160   -0.000000    0.000000    0.000000
   17.652459    0.543912    0.561263    0.561263   -0.000000    0.000000    0.000000
   17.672271    0.545047    0.562362    0.562362   -0.000000    0.000000    0.000000
   17.692082    0.546177    0.563456    0.563456   -0.000000    0.000000    0.000000
   17.711894    0.547302    0.564545    0.564545   -0.000000    0.000000    0.000000
   17.731706    0.548423    0.565630    0.565630   -0.000000    0.000000    0.000000
   17.751518    0.549539    0.566711    0.566711   -0.000000    0.000000    0.000000
   17.771330    0.550651    0.567787    0.567787   -0.000000    0.000000    0.000000
   17.791142    0.551758    0.568858    0.568858   -0.000000    0.000000    0.000000
   17.810954    0.552860    0.569925    0.569925   -0.000000    0.000000    0.000000
   17.830766    0.553958    0.570988    0.570988   -0.000000    0.000000    0.000000
   17.850578    0.555052    0.572046    0.572046   -0.000000    0.000000    0.000000
   17.870390    0.556141    0.573100    0.573100   -0.000000    0.000000    0.000000
   17.890202    0.557226    0.574149    0.574149   -0.000000    0.000000    0.000000
   17.910014    0.558306    0.575194    0.575194   -0.000000    0.000000    0.000000
   17.929826    0.559382    0.576235    0.576235   -0.000000    0.000000    0.000000
   17.949638    0.560454    0.577272    0.577272   -0.000000    0.000000    0.000000
   17.969450    0.561521    0.578305    0.578305   -0.000000    0.000000    0.000000
   17.989262    0.562585    0.579333    0.579333   -0.000000    0.000000    0.000000
   18.009074    0.563644    0.580357    0.580357   -0.000000    0.000000    0.000000
   18.028886    0.564698    0.581378    0.581378   -0.000000    0.000000    0.000000
   18.048698    0.565749    0.582394    0.582394   -0.000000    0.000000    0.000000
   18.068510    0.566796    0.583406    0.583406   -0.000000    0.000000    0.000000
   18.088322    0.567838    0.584414    0.584414   -0.000000    0.000000    0.000000
   18.108134    0.568876    0.585418    0.585418   -0.000000    0.000000    0.000000
   18.127946    0.569911    0.586418    0.586418   -0.000000    0.000000    0.000000
   18.147758    0.570941    0.587414    0.587414   -0.000000    0.000000    0.000000
   18.167570    0.571967    0.588406    0.588406   -0.000000    0.000000    0.000000
   18.187382    0.572989    0.589394    0.589394   -0.000000    0.000000    0.000000
   18.207193    0.574007    0.590378    0.590378   -0.000000    0.000000    0.000000
   18.227005    0.575022    0.591359    0.591359   -0.000000    0.000000    0.000000
   18.246817    0.576032    0.592336    0.592336   -0.000000    0.000000    0.000000
   18.266629    0.577038    0.593308    0.593308   -0.000000    0.000000    0.000000
   18.286441    0.578041    0.594277    0.594277   -0.000000    0.000000    0.000000
   18.306253    0.579040    0.595243    0.595243   -0.000000    0.000000    0.000000
   18.326065    0.580035    0.596204    0.596204   -0.000000    0.000000    0.000000
   18.345877    0.581026    0.597162    0.597162   -0.000000    0.000000    0.000000
   18.365689    0.582013    0.598116    0.598116   -0.000000    0.000000    0.000000
   18.385501    0.582997    0.599067    0.599067   -0.000000    0.000000    0.000000
   18.405313    0.583977    0.600014    0.600014   -0.000000    0.000000    0.000000
   18.425125    0.584953    0.600957    0.600957   -0.000000    0.000000    0.000000
   18.444937    0.585925    0.601896    0.601896   -0.000000    0.000000    0.000000
   18.464749    0.586894    0.602832    0.602832   -0.000000    0.000000    0.000000
   18.484561    0.587859    0.603765    0.603765   -0.000000    0.000000    0.000000
   18.504373    0.588821    0.604694    0.604694   -0.000000    0.000000    0.000000
   18.524185    0.589779    0.605619    0.605619   -0.000000    0.000000    0.000000
   18.543997    0.590733    0.606541    0.606541   -0.000000    0.000000    0.000000
   18.563809    0.591684    0.607459    0.607459   -0.000000    0.000000    0.000000
   18.583621    0.592631    0.608374    0.608374   -0.000000    0.000000    0.000000
   18.603433    0.593575    0.609286    0.609286   -0.000000    0.000000    0.000000
   18.623245    0.594515    0.610194    0.610194   -0.000000    0.000000    0.000000
   18.643057    0.595452    0.611099    0.611099   -0.000000    0.000000    0.000000
   18.662869    0.596385    0.612000    0.612000   -0.000000    0.000000    0.000000
   18.682681    0.597315    0.612898    0.612898   -0.000000    0.000000    0.000000
   18.702493    0.598241    0.613793    0.613793   -0.000000    0.000000    0.000000
   18.722305    0.599164    0.614684    0.614684   -0.000000    0.000000    0.000000
   18.742116    0.600084    0.615572    0.615572   -0.000000    0.000000    0.000000
   18.761928    0.601000    0.616457    0.616457   -0.000000    0.000000    0.000000
   18.781740    0.601913    0.617338    0.617338   -0.000000    0.000000    0.000000
   18.801552    0.602822    0.618216    0.618216   -0.000000    0.000000    0.000000
   18.821364    0.603729    0.619091    0.619091   -0.000000    0.000000    0.000000
   18.841176    0.604632    0.619963    0.619963   -0.000000    0.000000    0.000000
   18.860988    0.605531    0.620832    0.620832   -0.000000    0.000000    0.000000
   18.880800    0.606428    0.621697    0.621697   -0.000000    0.000000    0.000000
   18.900612    0.607321    0.622559    0.622559   -0.000000    0.000000    0.000000
   18.920424    0.608211    0.623418    0.623418   -0.000000    0.000000    0.000000
   18.940236    0.609098    0.624274    0.624274   -0.000000    0.000000    0.000000
   18.960048    0.609981    0.625127    0.625127   -0.000000    0.000000    0.000000
   18.979860    0.610862    0.625977    0.625977   -0.000000    0.000000    0.000000
   18.999672    0.611739    0.626824    0.626824   -0.000000    0.000000    0.000000
   19.019484    0.612613    0.627667    0.627667   -0.000000    0.000000    0.000000
   19.039296    0.613484    0.628508    0.628508   -0.000000    0.000000    0.000000
   19.059108    0.614352    0.629346    0.629346   -0.000000    0.000000    0.000000
   19.078920    0.615216    0.630180    0.630180   -0.000000    0.000000    0.000000
   19.098732    0.616078    0.631012    0.631012   -0.000000    0.000000    0.000000
   19.118544    0.616937    0.631840    0.631840   -0.000000    0.000000    0.000000
   19.138356    0.617792    0.632666    0.632666   -0.000000    0.000000    0.000000
   19.158168    0.618645    0.633489    0.633489   -0.000000    0.000000    0.000000
   19.177980    0.619495    0.634309    0.634309   -0.000000    0.000000    0.000000
   19.197792    0.620341    0.635125    0.635125   -0.000000    0.000000    0.000000
   19.217604    0.621185    0.635939    0.635939   -0.000000    0.000000    0.000000
   19.237416    0.622026    0.636751    0.636751   -0.000000    0.000000    0.000000
   19.257228    0.622863    0.637559    0.637559   -0.000000    0.000000    0.000000
   19.277039    0.623698    0.638364    0.638364   -0.000000    0.000000    0.000000
   19.296851    0.624530    0.639167    0.639167   -0.000000    0.000000    0.000000
   19.316663    0.625359    0.639967    0.639967   -0.000000    0.000000    0.000000
   19.336475    0.626185    0.640763    0.640763   -0.000000    0.000000    0.000000
   19.356287    0.627008    0.641558    0.641558   -0.000000    0.000000    0.000000
   19.376099    0.627828    0.642349    0.642349   -0.000000    0.000000    0.000000
   19.395911    0.628646    0.643138    0.643138   -0.000000    0.000000    0.000000
   19.415723    0.629461    0.643923    0.643923   -0.000000    0.000000    0.000000
   19.435535    0.630272    0.644706    0.644706   -0.000000    0.000000    0.000000
   19.455347    0.631082    0.645487    0.645487   -0.000000    0.000000    0.000000
   19.475159    0.631888    0.646265    0.646265   -0.000000    0.000000    0.000000
   19.494971    0.632691    0.647040    0.647040   -0.000000    0.000000    0.000000
   19.514783    0.633492    0.647812    0.647812   -0.000000    0.000000    0.000000
   19.534595    0.634290    0.648582    0.648582   -0.000000    0.000000    0.000000
   19.554407    0.635085    0.649348    0.649348   -0.000000    0.000000    0.000000
   19.574219    0.635878    0.650113    0.650113   -0.000000    0.000000    0.000000
   19.594031    0.636668    0.650875    0.650875   -0.000000    0.000000    0.000000
   19.613843    0.637455    0.651634    0.651634   -0.000000    0.000000    0.000000
   19.633655    0.638239    0.652390    0.652390   -0.000000    0.000000    0.000000
   19.653467    0.639021    0.653144    0.653144   -0.000000    0.000000    0.000000
   19.673279    0.639800    0.653895    0.653895   -0.000000    0.000000    0.000000
   19.693091    0.640577    0.654644    0.654644   -0.000000    0.000000    0.000000
   19.712903    0.641351    0.655391    0.655391   -0.000000    0.000000    0.000000
   19.732715    0.642122    0.656134    0.656134   -0.000000    0.000000    0.000000
   19.752527    0.642891    0.656875    0.656875   -0.000000    0.000000    0.000000
   19.772339    0.643657    0.657614    0.657614   -0.000000    0.000000    0.000000
   19.792150    0.644420    0.658350    0.658350   -0.000000    0.000000    0.000000
 
 The outermost node in the dielectric function lies at epsilon=  14.2


--------------------------------------------------------------------------------------------------------


    OPTICS:  cpu time     31.9769: real time     32.3740
    4ORBIT:  cpu time      0.0000: real time      0.0000
 BZINTS: Fermi energy:    2.304511;  256.000000 electrons
         Band energy:-0.727598E+03;  BLOECHL correction:    0.000000

 total amount of memory used by VASP MPI-rank0   364380. kBytes
=======================================================================

   base      :      30000. kBytes
   nonl-proj :     133732. kBytes
   fftplans  :       7212. kBytes
   grid      :      18251. kBytes
   one-center:        519. kBytes
   wavefun   :     174666. kBytes
 
  
  
 General timing and accounting informations for this job:
 ========================================================
  
                  Total CPU time used (sec):    12640.761
                            User time (sec):    12000.382
                          System time (sec):      640.378
                         Elapsed time (sec):    12757.254
  
                   Maximum memory used (kb):     1887436.
                   Average memory used (kb):          N/A
  
                          Minor page faults:       184546
                          Major page faults:           13
                 Voluntary context switches:        25426
