 running    8 mpi-ranks, on    1 nodes
 distrk:  each k-point on    8 cores,    1 groups
 distr:  one band on    1 cores,    8 groups
 vasp.6.4.3 19Mar24 (build Aug 29 2024 15:27:20) complex                        
  
 POSCAR found type information on POSCAR AsGa
 POSCAR found :  2 types and      64 ions
 scaLAPACK will be used
 -----------------------------------------------------------------------------
|                                                                             |
|           W    W    AA    RRRRR   N    N  II  N    N   GGGG   !!!           |
|           W    W   A  A   R    R  NN   N  II  NN   N  G    G  !!!           |
|           W    W  A    A  R    R  N N  N  II  N N  N  G       !!!           |
|           W WW W  AAAAAA  RRRRR   N  N N  II  N  N N  G  GGG   !            |
|           WW  WW  A    A  R   R   N   NN  II  N   NN  G    G                |
|           W    W  A    A  R    R  N    N  II  N    N   GGGG   !!!           |
|                                                                             |
|     For optimal performance we recommend to set                             |
|       NCORE = 2 up to number-of-cores-per-socket                            |
|     NCORE specifies how many cores store one orbital (NPAR=cpu/NCORE).      |
|     This setting can greatly improve the performance of VASP for DFT.       |
|     The default, NCORE=1 might be grossly inefficient on modern             |
|     multi-core architectures or massively parallel machines. Do your        |
|     own testing! More info at https://www.vasp.at/wiki/index.php/NCORE      |
|     Unfortunately you need to use the default for GW and RPA                |
|     calculations (for HF NCORE is supported but not extensively tested      |
|     yet).                                                                   |
|                                                                             |
 -----------------------------------------------------------------------------

 -----------------------------------------------------------------------------
|                                                                             |
|               ----> ADVICE to this user running VASP <----                  |
|                                                                             |
|     You have a (more or less) 'large supercell' and for larger cells it     |
|     might be more efficient to use real-space projection operators.         |
|     Therefore, try LREAL= Auto in the INCAR file.                           |
|     Mind: For very accurate calculation, you might also keep the            |
|     reciprocal projection scheme (i.e. LREAL=.FALSE.).                      |
|                                                                             |
 -----------------------------------------------------------------------------

 LDA part: xc-table for (Slater+PW92), standard interpolation
 POSCAR, INCAR and KPOINTS ok, starting setup
 FFT: planning ... GRIDC
 FFT: planning ... GRID_SOFT
 FFT: planning ... GRID
 WAVECAR not read
 WARNING: random wavefunctions but no delay for mixing, default for NELMDL
 entering main loop
       N       E                     dE             d eps       ncg     rms          rms(c)
DAV:   1     0.933478903471E+03    0.93348E+03   -0.80849E+04  6048   0.101E+03
DAV:   2    -0.167781722374E+03   -0.11013E+04   -0.10499E+04  7184   0.169E+02
DAV:   3    -0.267670697285E+03   -0.99889E+02   -0.98591E+02  7440   0.521E+01
DAV:   4    -0.270062833512E+03   -0.23921E+01   -0.23676E+01  7296   0.847E+00
DAV:   5    -0.270127701368E+03   -0.64868E-01   -0.64652E-01  7376   0.126E+00    0.200E+01
DAV:   6    -0.265957770126E+03    0.41699E+01   -0.65371E+00  7040   0.358E+00    0.118E+01
DAV:   7    -0.265141643091E+03    0.81613E+00   -0.42958E+00  7328   0.298E+00    0.244E+00
DAV:   8    -0.265100257140E+03    0.41386E-01   -0.50482E-01  7080   0.109E+00    0.615E-01
DAV:   9    -0.265112058950E+03   -0.11802E-01   -0.35855E-02  6936   0.392E-01    0.232E-01
DAV:  10    -0.265113148298E+03   -0.10893E-02   -0.98514E-04  7600   0.596E-02    0.109E-01
DAV:  11    -0.265114472387E+03   -0.13241E-02   -0.22237E-03  6536   0.876E-02    0.501E-02
DAV:  12    -0.265114479609E+03   -0.72219E-05   -0.31430E-05  7416   0.116E-02    0.225E-02
DAV:  13    -0.265114488756E+03   -0.91462E-05   -0.79524E-05  6912   0.134E-02    0.975E-03
DAV:  14    -0.265114488134E+03    0.62182E-06   -0.41482E-06  5984   0.393E-03
 Linear response reoptimize wavefunctions to high precision
DAV:   1    -0.265114488666E+03   -0.53241E-06   -0.21965E-06  7280   0.197E-03
DAV:   2    -0.265114488675E+03   -0.91450E-08   -0.89898E-08  6056   0.555E-04
DAV:   3    -0.265114488675E+03   -0.16007E-09   -0.17135E-09  3736   0.811E-05
 Linear response G [H, r] |phi>, progress :
  Direction:   1
       N       E                     dE             d eps       ncg     rms
RMM:   1    -0.127155851195E+04   -0.12716E+04    0.17982E+03 14176   0.839E+01
RMM:   2    -0.109861944115E+04    0.17294E+03   -0.20485E+02  9790   0.227E+01
RMM:   3    -0.110086977244E+04   -0.22503E+01   -0.99765E+00 10094   0.380E+00
RMM:   4    -0.110099232477E+04   -0.12255E+00   -0.30283E-01 10496   0.673E-01
RMM:   5    -0.110099594693E+04   -0.36222E-02   -0.21222E-02 10524   0.145E-01
RMM:   6    -0.110099615291E+04   -0.20599E-03   -0.56898E-03 11064   0.409E-02
RMM:   7    -0.110099616382E+04   -0.10902E-04   -0.47237E-03 11552   0.218E-02
RMM:   8    -0.110099618913E+04   -0.25315E-04   -0.50430E-03 12258   0.188E-02
RMM:   9    -0.110099615788E+04    0.31248E-04   -0.52667E-03 12466   0.184E-02
RMM:  10    -0.110099614346E+04    0.14422E-04   -0.43467E-03 12745   0.183E-02
RMM:  11    -0.110099618105E+04   -0.37584E-04   -0.47274E-03 13028   0.183E-02
 Linear response G [H, r] |phi>, progress :
  Direction:   2
       N       E                     dE             d eps       ncg     rms
RMM:   1    -0.125234892637E+04   -0.12523E+04    0.18525E+03 14286   0.837E+01
RMM:   2    -0.110578579330E+04    0.14656E+03   -0.21581E+02  9756   0.227E+01
RMM:   3    -0.110728203997E+04   -0.14962E+01   -0.16120E+01 10093   0.377E+00
RMM:   4    -0.110707909657E+04    0.20294E+00   -0.34532E+00 10476   0.662E-01
RMM:   5    -0.110685602695E+04    0.22307E+00   -0.90927E-01 10494   0.144E-01
RMM:   6    -0.110678558298E+04    0.70444E-01   -0.18549E-01 11081   0.408E-02
RMM:   7    -0.110677199443E+04    0.13589E-01   -0.48094E-02 11582   0.218E-02
RMM:   8    -0.110676717655E+04    0.48179E-02   -0.10707E-03 12300   0.187E-02
RMM:   9    -0.110676607188E+04    0.11047E-02    0.96500E-03 12476   0.183E-02
RMM:  10    -0.110676647658E+04   -0.40470E-03    0.61832E-03 12783   0.183E-02
RMM:  11    -0.110676705365E+04   -0.57707E-03    0.75492E-04 13109   0.183E-02
 Linear response G [H, r] |phi>, progress :
  Direction:   3
       N       E                     dE             d eps       ncg     rms
RMM:   1    -0.137199645417E+04   -0.13720E+04    0.14979E+03 14641   0.858E+01
RMM:   2    -0.111088959770E+04    0.26111E+03   -0.24774E+02  9787   0.240E+01
RMM:   3    -0.111239708120E+04   -0.15075E+01   -0.17366E+01 10085   0.399E+00
RMM:   4    -0.111221624526E+04    0.18084E+00   -0.34939E+00 10501   0.695E-01
RMM:   5    -0.111199469756E+04    0.22155E+00   -0.95491E-01 10519   0.151E-01
RMM:   6    -0.111192191110E+04    0.72786E-01   -0.20214E-01 11024   0.427E-02
RMM:   7    -0.111190998243E+04    0.11929E-01   -0.85698E-02 11642   0.233E-02
RMM:   8    -0.111190227249E+04    0.77099E-02   -0.10166E-02 12310   0.202E-02
RMM:   9    -0.111190408013E+04   -0.18076E-02   -0.27984E-02 12488   0.197E-02
RMM:  10    -0.111190155518E+04    0.25249E-02   -0.26573E-03 12771   0.197E-02
RMM:  11    -0.111190526894E+04   -0.37138E-02   -0.39435E-02 13080   0.197E-02
 Linear response to external field, progress :
  Direction:   1
       N       E                     dE             d eps       ncg     rms          rms(c)
RMM:   1    -0.106556932182E+03   -0.10656E+03   -0.79030E+02 15506   0.671E+00
RMM:   2    -0.239296572934E+03   -0.13274E+03   -0.76624E+00 14770   0.148E+00    0.121E+01
RMM:   3    -0.236286800013E+03    0.30098E+01   -0.12097E+00 14698   0.168E+00    0.704E+00
RMM:   4    -0.228242710286E+03    0.80441E+01   -0.17435E+00 14207   0.226E+00    0.786E-01
RMM:   5    -0.227516659334E+03    0.72605E+00   -0.75790E-02 15011   0.466E-01    0.141E-01
RMM:   6    -0.227454154469E+03    0.62505E-01   -0.38709E-03 15404   0.934E-02    0.785E-02
RMM:   7    -0.227385095932E+03    0.69059E-01   -0.26495E-03 15010   0.667E-02    0.251E-02
RMM:   8    -0.227370192445E+03    0.14903E-01   -0.47153E-04 15562   0.121E-02    0.707E-03
RMM:   9    -0.227375816350E+03   -0.56239E-02   -0.30475E-04 15845   0.710E-03    0.149E-03
RMM:  10    -0.227375255707E+03    0.56064E-03   -0.23495E-04 16277   0.253E-03    0.415E-04
RMM:  11    -0.227375245059E+03    0.10648E-04   -0.12860E-04 15741   0.228E-03    0.814E-05
RMM:  12    -0.227375251087E+03   -0.60289E-05   -0.17429E-04 14391   0.216E-03    0.319E-05
RMM:  13    -0.227375237457E+03    0.13631E-04   -0.13872E-04 14440   0.216E-03    0.689E-06
 change of polarisation eV/A/(eV/A) component  1 :   474.233    -8.460   -12.635
 dielectric tensor                  component  1 :    56.720    -0.994    -1.485
 Linear response to external field, progress :
  Direction:   2
       N       E                     dE             d eps       ncg     rms          rms(c)
RMM:   1    -0.262142291846E+03   -0.26214E+03   -0.21766E+03 22628   0.683E+00
RMM:   2    -0.294171370620E+04   -0.26796E+04   -0.56081E+01 21449   0.155E+00    0.246E+01
RMM:   3    -0.292781549634E+04    0.13898E+02   -0.63490E+00 20880   0.348E+00    0.140E+01
RMM:   4    -0.290374904808E+04    0.24066E+02   -0.64470E+00 20331   0.424E+00    0.133E+00
RMM:   5    -0.290135822686E+04    0.23908E+01   -0.43027E-01 21924   0.100E+00    0.402E-01
RMM:   6    -0.290037761645E+04    0.98061E+00   -0.35777E-02 22137   0.209E-01    0.200E-01
RMM:   7    -0.290022451819E+04    0.15310E+00   -0.21699E-02 21520   0.112E-01    0.274E-02
RMM:   8    -0.290016291334E+04    0.61605E-01   -0.14249E-03 21985   0.240E-02    0.149E-02
RMM:   9    -0.290016352012E+04   -0.60679E-03   -0.87350E-04 22890   0.141E-02    0.207E-03
RMM:  10    -0.290016139923E+04    0.21209E-02   -0.79861E-04 24305   0.376E-03    0.851E-04
RMM:  11    -0.290016184898E+04   -0.44975E-03   -0.43043E-04 24500   0.338E-03    0.216E-04
RMM:  12    -0.290016161657E+04    0.23242E-03    0.12836E-04 25128   0.306E-03    0.630E-05
RMM:  13    -0.290016167739E+04   -0.60819E-04   -0.33298E-04 25197   0.304E-03    0.250E-05
RMM:  14    -0.290016168581E+04   -0.84207E-05   -0.18964E-04 25846   0.304E-03    0.108E-05
RMM:  15    -0.290016168473E+04    0.10729E-05   -0.26763E-04 26442   0.304E-03    0.130E-06
 change of polarisation eV/A/(eV/A) component  2 :    -4.449  5860.356   -13.696
 dielectric tensor                  component  2 :    -0.523   689.567    -1.609
 Linear response to external field, progress :
  Direction:   3
       N       E                     dE             d eps       ncg     rms          rms(c)
RMM:   1    -0.262145781772E+03   -0.26215E+03   -0.21767E+03 22629   0.683E+00
RMM:   2    -0.294171425054E+04   -0.26796E+04   -0.56081E+01 21445   0.155E+00    0.246E+01
RMM:   3    -0.292781626368E+04    0.13898E+02   -0.63491E+00 20881   0.348E+00    0.140E+01
RMM:   4    -0.290374996282E+04    0.24066E+02   -0.64455E+00 20325   0.424E+00    0.133E+00
RMM:   5    -0.290135895863E+04    0.23910E+01   -0.42698E-01 21927   0.100E+00    0.402E-01
RMM:   6    -0.290037918357E+04    0.97978E+00   -0.16902E-02 22140   0.209E-01    0.200E-01
RMM:   7    -0.290022690297E+04    0.15228E+00    0.41754E-02 21526   0.112E-01    0.274E-02
RMM:   8    -0.290016370260E+04    0.63200E-01    0.21206E-04 21985   0.240E-02    0.149E-02
RMM:   9    -0.290016421709E+04   -0.51450E-03    0.25123E-03 22907   0.141E-02    0.207E-03
RMM:  10    -0.290016184357E+04    0.23735E-02    0.21306E-03 24328   0.377E-03    0.850E-04
RMM:  11    -0.290016229297E+04   -0.44940E-03    0.31105E-04 24535   0.339E-03    0.215E-04
RMM:  12    -0.290016211713E+04    0.17584E-03   -0.43845E-04 25120   0.307E-03    0.628E-05
RMM:  13    -0.290016212548E+04   -0.83478E-05    0.48296E-04 25199   0.305E-03    0.252E-05
RMM:  14    -0.290016215798E+04   -0.32501E-04   -0.52259E-04 25835   0.304E-03    0.105E-05
RMM:  15    -0.290016216491E+04   -0.69324E-05   -0.23332E-04 26454   0.304E-03    0.125E-06
 change of polarisation eV/A/(eV/A) component  3 :   -11.460    -3.742  5860.357
 dielectric tensor                  component  3 :    -1.347    -0.440   689.567
 Born effective charges drift removed
   1 F= -.26511449E+03 E0= -.26511449E+03  d E =-.265114E+03
 curvature:   0.00 expect dE= 0.000E+00 dE for cont linesearch  0.000E+00
 trial: gam= 0.00000 g(F)=  0.573E-58 g(S)=  0.000E+00 ort = 0.000E+00 (trialstep = 0.100E+01)
 search vector abs. value=  0.100E-09
 reached required accuracy - stopping structural energy minimisation
 writing wavefunctions
 optical routines
 imaginary and real dielectric function
 recalculating local potential from charge density
 direction            1
 direction            2
 direction            3
