<?xml version="1.0" encoding="ISO-8859-1"?>
<modeling>
 <generator>
  <i name="program" type="string">vasp </i>
  <i name="version" type="string">6.4.3  </i>
  <i name="subversion" type="string">19Mar24 (build Aug 29 2024 15:27:20) complex                          parallel </i>
  <i name="platform" type="string">LinuxIFC </i>
  <i name="date" type="string">2025 03 24 </i>
  <i name="time" type="string">14:34:39 </i>
 </generator>
 <incar>
  <i type="string" name="SYSTEM">GaAs</i>
  <i type="string" name="PREC">Normal</i>
  <i type="int" name="IBRION">     2</i>
  <i type="int" name="NFREE">     2</i>
  <i type="int" name="NSW">   100</i>
  <i type="int" name="ISIF">     2</i>
  <i name="ENCUT">    400.00000000</i>
  <i name="POTIM">      0.10000000</i>
  <i type="int" name="ISMEAR">    -5</i>
  <i name="SIGMA">      0.10000000</i>
  <i type="logical" name="LOPTICS"> T  </i>
  <i type="logical" name="LEPSILON"> T  </i>
 </incar>
 <primitive_cell>
  <structure name="primitive_cell" >
   <crystal>
    <varray name="basis" >
     <v>       2.92492546       0.00000000       2.86830005 </v>
     <v>       2.92492546       0.00000000      -2.86830005 </v>
     <v>      -2.92492546       2.86830005       0.00000000 </v>
    </varray>
    <i name="volume">     48.12757287 </i>
    <varray name="rec_basis" >
     <v>       0.17094453       0.17431928       0.17431928 </v>
     <v>       0.17094453       0.17431928      -0.17431928 </v>
     <v>       0.00000000       0.34863856       0.00000000 </v>
    </varray>
   </crystal>
   <varray name="positions" >
    <v>       0.00000000       0.00000000       0.00000000 </v>
    <v>       0.75000000       0.25000000       0.50000000 </v>
   </varray>
  </structure>
  <varray name="primitive_index" >
   <v type="int" >        1 </v>
   <v type="int" >       33 </v>
  </varray>
 </primitive_cell>
 <kpoints>
  <generation param="Gamma">
   <v type="int" name="divisions">       5        5        5 </v>
   <v name="usershift">      0.00000000       0.00000000       0.00000000 </v>
   <v name="genvec1">      0.20000000       0.00000000       0.00000000 </v>
   <v name="genvec2">      0.00000000       0.20000000       0.00000000 </v>
   <v name="genvec3">      0.00000000       0.00000000       0.20000000 </v>
   <v name="shift">      0.00000000       0.00000000       0.00000000 </v>
  </generation>
  <varray name="kpointlist" >
   <v>       0.00000000       0.00000000       0.00000000 </v>
   <v>       0.20000000       0.00000000       0.00000000 </v>
   <v>       0.40000000       0.00000000       0.00000000 </v>
   <v>       0.00000000       0.20000000       0.00000000 </v>
   <v>       0.20000000       0.20000000       0.00000000 </v>
   <v>       0.40000000       0.20000000       0.00000000 </v>
   <v>       0.00000000       0.40000000       0.00000000 </v>
   <v>       0.20000000       0.40000000       0.00000000 </v>
   <v>       0.40000000       0.40000000       0.00000000 </v>
   <v>       0.00000000       0.20000000       0.20000000 </v>
   <v>       0.20000000       0.20000000       0.20000000 </v>
   <v>       0.40000000       0.20000000       0.20000000 </v>
   <v>       0.00000000       0.40000000       0.20000000 </v>
   <v>       0.20000000       0.40000000       0.20000000 </v>
   <v>       0.40000000       0.40000000       0.20000000 </v>
   <v>       0.00000000       0.40000000       0.40000000 </v>
   <v>       0.20000000       0.40000000       0.40000000 </v>
   <v>       0.40000000       0.40000000       0.40000000 </v>
  </varray>
  <varray name="weights" >
   <v>       0.00800000 </v>
   <v>       0.01600000 </v>
   <v>       0.01600000 </v>
   <v>       0.03200000 </v>
   <v>       0.06400000 </v>
   <v>       0.06400000 </v>
   <v>       0.03200000 </v>
   <v>       0.06400000 </v>
   <v>       0.06400000 </v>
   <v>       0.03200000 </v>
   <v>       0.06400000 </v>
   <v>       0.06400000 </v>
   <v>       0.06400000 </v>
   <v>       0.12800000 </v>
   <v>       0.12800000 </v>
   <v>       0.03200000 </v>
   <v>       0.06400000 </v>
   <v>       0.06400000 </v>
  </varray>
  <varray name="tetrahedronlist"  type="int" >
   <v type="int" >        4       11       12       14       15 </v>
   <v type="int" >        4       11       14       14       15 </v>
   <v type="int" >        8       14       14       15       17 </v>
   <v type="int" >        4       12       14       15       15 </v>
   <v type="int" >        8       14       15       15       18 </v>
   <v type="int" >        4       14       15       17       18 </v>
   <v type="int" >        2       12       12       15       15 </v>
   <v type="int" >        4       12       15       15       15 </v>
   <v type="int" >       12       15       15       15       18 </v>
   <v type="int" >       10       15       15       18       18 </v>
   <v type="int" >        4       10       11       13       14 </v>
   <v type="int" >        4       11       13       14       14 </v>
   <v type="int" >        8       13       14       14       17 </v>
   <v type="int" >        4       10       13       13       14 </v>
   <v type="int" >        8       13       13       14       16 </v>
   <v type="int" >        4       13       14       16       17 </v>
   <v type="int" >        4       14       15       15       17 </v>
   <v type="int" >        4       14       15       17       17 </v>
   <v type="int" >        4       15       15       17       18 </v>
   <v type="int" >        4       15       17       18       18 </v>
   <v type="int" >        4       15       17       17       18 </v>
   <v type="int" >        8       15       18       18       18 </v>
   <v type="int" >        4       14       14       15       18 </v>
   <v type="int" >        4       14       15       18       18 </v>
   <v type="int" >        4       14       14       17       18 </v>
   <v type="int" >        4       14       17       17       18 </v>
   <v type="int" >        4       14       17       18       18 </v>
   <v type="int" >        4       13       13       14       17 </v>
   <v type="int" >        4       13       14       17       17 </v>
   <v type="int" >        4       13       13       16       17 </v>
   <v type="int" >        4       13       16       16       17 </v>
   <v type="int" >        4       13       16       17       17 </v>
   <v type="int" >        4       13       14       14       16 </v>
   <v type="int" >        4       13       14       16       16 </v>
   <v type="int" >        4       14       14       16       17 </v>
   <v type="int" >        4       14       16       17       17 </v>
   <v type="int" >        4       14       16       16       17 </v>
   <v type="int" >        4       12       14       15       17 </v>
   <v type="int" >        4       11       12       14       17 </v>
   <v type="int" >        4       12       15       17       18 </v>
   <v type="int" >        4       12       15       15       18 </v>
   <v type="int" >        4       12       12       15       18 </v>
   <v type="int" >        4       12       15       18       18 </v>
   <v type="int" >        4       11       14       15       18 </v>
   <v type="int" >        4       11       12       15       18 </v>
   <v type="int" >        4       11       14       17       18 </v>
   <v type="int" >        4       10       13       14       17 </v>
   <v type="int" >        4       10       11       14       17 </v>
   <v type="int" >        4       10       13       16       17 </v>
   <v type="int" >        4       11       13       14       16 </v>
   <v type="int" >        4       10       11       13       16 </v>
   <v type="int" >        4       11       14       16       17 </v>
   <v type="int" >        4        6       11       12       14 </v>
   <v type="int" >        4        5        6       11       14 </v>
   <v type="int" >        4        5        6        8       14 </v>
   <v type="int" >        4        6       12       14       15 </v>
   <v type="int" >        4        6        9       14       15 </v>
   <v type="int" >        4        6        8        9       14 </v>
   <v type="int" >        4        6       12       12       15 </v>
   <v type="int" >        4        6        6       12       15 </v>
   <v type="int" >        4        6        6        9       15 </v>
   <v type="int" >        4        6       12       15       15 </v>
   <v type="int" >        4        6        9       15       15 </v>
   <v type="int" >        4        6        9        9       15 </v>
   <v type="int" >        4        5       11       12       15 </v>
   <v type="int" >        4        5        6       12       15 </v>
   <v type="int" >        4        5        6        9       15 </v>
   <v type="int" >        4        5       11       14       15 </v>
   <v type="int" >        4        5        8       14       15 </v>
   <v type="int" >        4        5        8        9       15 </v>
   <v type="int" >        4        4       10       11       14 </v>
   <v type="int" >        4        4        5       11       14 </v>
   <v type="int" >        4        4        5        8       14 </v>
   <v type="int" >        4        4       10       13       14 </v>
   <v type="int" >        4        4        7       13       14 </v>
   <v type="int" >        4        4        7        8       14 </v>
   <v type="int" >        4        5       10       11       13 </v>
   <v type="int" >        4        4        5       10       13 </v>
   <v type="int" >        4        4        5        7       13 </v>
   <v type="int" >        4        5       11       13       14 </v>
   <v type="int" >        4        5        8       13       14 </v>
   <v type="int" >        4        5        7        8       13 </v>
   <v type="int" >        4        5        6        8       12 </v>
   <v type="int" >        4        5        8       11       12 </v>
   <v type="int" >        4        8       11       12       14 </v>
   <v type="int" >        4        6        8        9       12 </v>
   <v type="int" >        4        8        9       12       15 </v>
   <v type="int" >        4        8       12       14       15 </v>
   <v type="int" >        4        6        6        9       12 </v>
   <v type="int" >        4        6        9       12       12 </v>
   <v type="int" >        4        9       12       12       15 </v>
   <v type="int" >        4        6        9        9       12 </v>
   <v type="int" >        4        9        9       12       15 </v>
   <v type="int" >        4        9       12       15       15 </v>
   <v type="int" >        4        5        6        9       11 </v>
   <v type="int" >        4        6        9       11       12 </v>
   <v type="int" >        4        9       11       12       15 </v>
   <v type="int" >        4        5        8        9       11 </v>
   <v type="int" >        4        8        9       11       14 </v>
   <v type="int" >        4        9       11       14       15 </v>
   <v type="int" >        4        4        5        8       10 </v>
   <v type="int" >        4        5        8       10       11 </v>
   <v type="int" >        4        8       10       11       14 </v>
   <v type="int" >        4        4        7        8       10 </v>
   <v type="int" >        4        7        8       10       13 </v>
   <v type="int" >        4        8       10       13       14 </v>
   <v type="int" >        4        4        5        7       11 </v>
   <v type="int" >        4        4        7       10       11 </v>
   <v type="int" >        4        7       10       11       13 </v>
   <v type="int" >        4        5        7        8       11 </v>
   <v type="int" >        4        7        8       11       14 </v>
   <v type="int" >        4        7       11       13       14 </v>
   <v type="int" >        4       17       17       18       18 </v>
   <v type="int" >        4       17       17       17       18 </v>
   <v type="int" >        4       17       18       18       18 </v>
   <v type="int" >        6       18       18       18       18 </v>
   <v type="int" >        4       16       16       17       17 </v>
   <v type="int" >        4       16       17       17       17 </v>
   <v type="int" >        4       16       16       16       17 </v>
   <v type="int" >        4        9       14       14       15 </v>
   <v type="int" >        4        8        9       14       14 </v>
   <v type="int" >        4        8        8        9       14 </v>
   <v type="int" >        4        9       14       15       15 </v>
   <v type="int" >        4        9        9       14       15 </v>
   <v type="int" >        4        8        9        9       14 </v>
   <v type="int" >        8        9       15       15       15 </v>
   <v type="int" >        8        9        9       15       15 </v>
   <v type="int" >        8        9        9        9       15 </v>
   <v type="int" >        4        8       14       15       15 </v>
   <v type="int" >        4        8        9       15       15 </v>
   <v type="int" >        4        8        9        9       15 </v>
   <v type="int" >        4        8       14       14       15 </v>
   <v type="int" >        4        8        8       14       15 </v>
   <v type="int" >        4        8        8        9       15 </v>
   <v type="int" >        4        7       13       14       14 </v>
   <v type="int" >        4        7        8       14       14 </v>
   <v type="int" >        4        7        8        8       14 </v>
   <v type="int" >        4        7       13       13       14 </v>
   <v type="int" >        4        7        7       13       14 </v>
   <v type="int" >        4        7        7        8       14 </v>
   <v type="int" >        4        8       13       13       14 </v>
   <v type="int" >        4        7        8       13       13 </v>
   <v type="int" >        4        7        7        8       13 </v>
   <v type="int" >        4        8       13       14       14 </v>
   <v type="int" >        4        8        8       13       14 </v>
   <v type="int" >        4        7        8        8       13 </v>
   <v type="int" >        4        5        6       11       12 </v>
   <v type="int" >        4        5        5        6       11 </v>
   <v type="int" >        4        2        5        5        6 </v>
   <v type="int" >        4        5        6        6       12 </v>
   <v type="int" >        4        3        5        6        6 </v>
   <v type="int" >        4        2        3        5        6 </v>
   <v type="int" >        2        6        6       12       12 </v>
   <v type="int" >        4        6        6        6       12 </v>
   <v type="int" >        4        3        6        6        6 </v>
   <v type="int" >        2        3        3        6        6 </v>
   <v type="int" >        4        4        5       10       11 </v>
   <v type="int" >        4        4        5        5       11 </v>
   <v type="int" >        4        2        4        5        5 </v>
   <v type="int" >        4        4        4        5       10 </v>
   <v type="int" >        4        1        4        4        5 </v>
   <v type="int" >        4        1        2        4        5 </v>
   <v type="int" >        4        2        5        6       12 </v>
   <v type="int" >        4        2        5       11       12 </v>
   <v type="int" >        4        2        3        6       12 </v>
   <v type="int" >        4        3        6        6       12 </v>
   <v type="int" >        4        3        6       12       12 </v>
   <v type="int" >        4        3        3        6       12 </v>
   <v type="int" >        4        3        5        6       11 </v>
   <v type="int" >        4        3        6       11       12 </v>
   <v type="int" >        4        2        3        5       11 </v>
   <v type="int" >        4        2        4        5       10 </v>
   <v type="int" >        4        2        5       10       11 </v>
   <v type="int" >        4        1        2        4       10 </v>
   <v type="int" >        4        1        4        5       11 </v>
   <v type="int" >        4        1        4       10       11 </v>
   <v type="int" >        4        1        2        5       11 </v>
  </varray>
  <i name="volumeweight">      0.00133333 </i>
 </kpoints>
 <parameters>
  <separator name="general" >
   <i type="string" name="SYSTEM">GaAs</i>
   <i type="logical" name="LCOMPAT"> F  </i>
  </separator>
  <separator name="electronic" >
   <i type="string" name="PREC">normal</i>
   <i name="ENMAX">    400.00000000</i>
   <i name="ENAUG">    462.75800000</i>
   <i name="EDIFF">      0.00000100</i>
   <i type="int" name="IALGO">    38</i>
   <i type="int" name="IWAVPR">    11</i>
   <i type="int" name="NBANDS">   168</i>
   <i type="int" name="NBANDSLOW">    -1</i>
   <i type="int" name="NBANDSHIGH">    -1</i>
   <i name="NELECT">    256.00000000</i>
   <i type="int" name="TURBO">     0</i>
   <i type="int" name="IRESTART">     0</i>
   <i type="int" name="NREBOOT">     0</i>
   <i type="int" name="NMIN">     0</i>
   <i name="EREF">      0.00000000</i>
   <separator name="electronic smearing" >
    <i type="int" name="ISMEAR">    -5</i>
    <i name="SIGMA">      0.10000000</i>
    <i name="KSPACING">      0.50000000</i>
    <i type="logical" name="KGAMMA"> T  </i>
    <i type="logical" name="KBLOWUP"> T  </i>
   </separator>
   <separator name="electronic projectors" >
    <i type="logical" name="LREAL"> F  </i>
    <v name="ROPT">      0.00000000      0.00000000</v>
    <i type="int" name="LMAXPAW">  -100</i>
    <i type="int" name="LMAXMIX">     2</i>
    <i type="logical" name="NLSPLINE"> F  </i>
   </separator>
   <separator name="electronic startup" >
    <i type="int" name="ISTART">     0</i>
    <i type="int" name="ICHARG">     2</i>
    <i type="int" name="INIWAV">     1</i>
   </separator>
   <separator name="electronic spin" >
    <i type="int" name="ISPIN">     1</i>
    <i type="logical" name="LNONCOLLINEAR"> F  </i>
    <v name="MAGMOM">      1.00000000      1.00000000      1.00000000      1.00000000      1.00000000      1.00000000      1.00000000      1.00000000      1.00000000      1.00000000      1.00000000      1.00000000      1.00000000      1.00000000      1.00000000      1.00000000      1.00000000      1.00000000      1.00000000      1.00000000
      1.00000000      1.00000000      1.00000000      1.00000000      1.00000000      1.00000000      1.00000000      1.00000000      1.00000000      1.00000000      1.00000000      1.00000000      1.00000000      1.00000000      1.00000000      1.00000000      1.00000000      1.00000000      1.00000000      1.00000000
      1.00000000      1.00000000      1.00000000      1.00000000      1.00000000      1.00000000      1.00000000      1.00000000      1.00000000      1.00000000      1.00000000      1.00000000      1.00000000      1.00000000      1.00000000      1.00000000      1.00000000      1.00000000      1.00000000      1.00000000
      1.00000000      1.00000000      1.00000000      1.00000000</v>
    <i name="NUPDOWN">     -1.00000000</i>
    <i type="logical" name="LSORBIT"> F  </i>
    <v name="SAXIS">      0.00000000      0.00000000      1.00000000</v>
    <i type="logical" name="LSPIRAL"> F  </i>
    <v name="QSPIRAL">      0.00000000      0.00000000      0.00000000</v>
    <i type="logical" name="LZEROZ"> F  </i>
   </separator>
   <separator name="electronic exchange-correlation" >
    <i type="logical" name="LASPH"> F  </i>
   </separator>
   <separator name="electronic convergence" >
    <i type="int" name="NELM">    60</i>
    <i type="int" name="NELMDL">     0</i>
    <i type="int" name="NELMIN">     2</i>
    <i name="ENINI">    400.00000000</i>
    <separator name="electronic convergence detail" >
     <i type="logical" name="LDIAG"> T  </i>
     <i type="logical" name="LSUBROT"> F  </i>
     <i name="WEIMIN">      0.00100000</i>
     <i name="EBREAK">      0.00000000</i>
     <i name="DEPER">      0.30000000</i>
     <i type="int" name="NRMM">     4</i>
     <i name="TIME">      0.40000000</i>
    </separator>
   </separator>
   <separator name="electronic mixer" >
    <i name="AMIX">      0.40000000</i>
    <i name="BMIX">      1.00000000</i>
    <i name="AMIN">      0.10000000</i>
    <i name="AMIX_MAG">      1.60000000</i>
    <i name="BMIX_MAG">      1.00000000</i>
    <separator name="electronic mixer details" >
     <i type="int" name="IMIX">     4</i>
     <i type="logical" name="MIXFIRST"> F  </i>
     <i type="int" name="MAXMIX">   -45</i>
     <i name="WC">    100.00000000</i>
     <i type="int" name="INIMIX">     1</i>
     <i type="int" name="MIXPRE">     1</i>
     <i type="int" name="MREMOVE">     5</i>
    </separator>
   </separator>
   <separator name="electronic dipolcorrection" >
    <i type="logical" name="LDIPOL"> F  </i>
    <i type="logical" name="LMONO"> F  </i>
    <i type="int" name="IDIPOL">     0</i>
    <i name="EPSILON">      1.00000000</i>
    <v name="DIPOL">   -100.00000000   -100.00000000   -100.00000000</v>
    <i name="EFIELD">      0.00000000</i>
    <i type="logical" name="LVACPOTAV"> F  </i>
   </separator>
  </separator>
  <separator name="grids" >
   <i type="int" name="NGX">    60</i>
   <i type="int" name="NGY">    56</i>
   <i type="int" name="NGZ">    56</i>
   <i type="int" name="NGXF">   120</i>
   <i type="int" name="NGYF">   112</i>
   <i type="int" name="NGZF">   112</i>
   <i type="logical" name="ADDGRID"> F  </i>
  </separator>
  <separator name="ionic" >
   <i type="int" name="NSW">   100</i>
   <i type="int" name="IBRION">     2</i>
   <i type="int" name="MDALGO">     0</i>
   <i type="int" name="ISIF">     2</i>
   <i name="PSTRESS">      0.00000000</i>
   <i name="EDIFFG">      0.00100000</i>
   <i type="int" name="NFREE">     2</i>
   <i name="POTIM">      0.10000000</i>
   <i name="SMASS">     -3.00000000</i>
   <i name="SCALEE">      1.00000000</i>
  </separator>
  <separator name="ionic md" >
   <i name="TEBEG">      0.00010000</i>
   <i name="TEEND">      0.00010000</i>
   <i type="int" name="NBLOCK">     1</i>
   <i type="int" name="KBLOCK">   100</i>
   <i type="int" name="NPACO">   256</i>
   <i name="APACO">     10.00000000</i>
  </separator>
  <separator name="symmetry" >
   <i type="int" name="ISYM">     2</i>
   <i name="SYMPREC">      0.00001000</i>
  </separator>
  <separator name="dos" >
   <i type="int" name="LORBIT">     0</i>
   <v name="RWIGS">     -1.00000000     -1.00000000</v>
   <i type="int" name="NEDOS">   301</i>
   <i name="EMIN">     10.00000000</i>
   <i name="EMAX">    -10.00000000</i>
   <i name="EFERMI">      0.00000000</i>
  </separator>
  <separator name="writing" >
   <i type="int" name="NWRITE">     2</i>
   <i type="logical" name="LWAVE"> T  </i>
   <i type="logical" name="LDOWNSAMPLE"> F  </i>
   <i type="logical" name="LCHARG"> T  </i>
   <i type="logical" name="LPARD"> F  </i>
   <i type="logical" name="LVTOT"> F  </i>
   <i type="logical" name="LVHAR"> F  </i>
   <i type="logical" name="LELF"> F  </i>
   <i type="logical" name="LOPTICS"> T  </i>
   <v name="STM">      0.00000000      0.00000000      0.00000000      0.00000000      0.00000000      0.00000000      0.00000000</v>
  </separator>
  <separator name="performance" >
   <i type="int" name="NPAR">     8</i>
   <i type="int" name="NSIM">     4</i>
   <i type="int" name="NBLK">    -1</i>
   <i type="logical" name="LPLANE"> T  </i>
   <i type="logical" name="LSCALAPACK"> T  </i>
   <i type="logical" name="LSCAAWARE"> F  </i>
   <i type="logical" name="LSCALU"> F  </i>
   <i type="logical" name="LASYNC"> F  </i>
   <i type="logical" name="LORBITALREAL"> F  </i>
  </separator>
  <separator name="miscellaneous" >
   <i type="int" name="IDIOT">     3</i>
   <i type="int" name="PHON_NSTRUCT">    -1</i>
   <i type="logical" name="LMUSIC"> F  </i>
   <v name="POMASS">     74.92200000     69.72300000</v>
   <v name="DARWINR">      0.00000000      0.00000000</v>
   <v name="DARWINV">      1.00000000      1.00000000</v>
   <i type="logical" name="LCORR"> T  </i>
  </separator>
  <i type="logical" name="GGA_COMPAT"> T  </i>
  <i type="logical" name="LBERRY"> F  </i>
  <i type="int" name="ICORELEVEL">     0</i>
  <i type="logical" name="LDAU"> F  </i>
  <i type="int" name="I_CONSTRAINED_M">     0</i>
  <separator name="electronic exchange-correlation" >
   <i type="string" name="GGA    ">PE</i>
   <i type="string" name="XC_C">1</i>
   <i type="int" name="VOSKOWN">     0</i>
   <i type="logical" name="LHFCALC"> F  </i>
   <i type="string" name="PRECFOCK"></i>
   <i type="logical" name="LSYMGRAD"> F  </i>
   <i type="logical" name="LHFONE"> F  </i>
   <i type="logical" name="LRHFCALC"> F  </i>
   <i type="logical" name="LTHOMAS"> F  </i>
   <i type="logical" name="LMODELHF"> F  </i>
   <i type="logical" name="LFOCKACE"> F  </i>
   <i name="ENCUT4O">     -1.00000000</i>
   <i type="int" name="EXXOEP">     0</i>
   <i type="int" name="FOURORBIT">     0</i>
   <i name="AEXX">      0.00000000</i>
   <i name="HFALPHA">      0.00000000</i>
   <i name="MCALPHA">      0.00000000</i>
   <i name="ALDAX">      1.00000000</i>
   <i name="AGGAX">      1.00000000</i>
   <i name="AMGGAX">      1.00000000</i>
   <i name="ALDAC">      1.00000000</i>
   <i name="AGGAC">      1.00000000</i>
   <i name="AMGGAC">      1.00000000</i>
   <i type="int" name="NKREDX">     1</i>
   <i type="int" name="NKREDY">     1</i>
   <i type="int" name="NKREDZ">     1</i>
   <i type="logical" name="SHIFTRED"> F  </i>
   <i type="logical" name="ODDONLY"> F  </i>
   <i type="logical" name="EVENONLY"> F  </i>
   <i type="int" name="LMAXFOCK">     0</i>
   <i type="int" name="NMAXFOCKAE">     0</i>
   <i type="logical" name="LFOCKAEDFT"> F  </i>
   <i name="HFSCREEN">      0.00000000</i>
   <i name="HFSCREENC">      0.00000000</i>
   <i type="int" name="NBANDSGWLOW">     0</i>
  </separator>
  <separator name="vdW DFT" >
   <i type="logical" name="LUSE_VDW"> F  </i>
   <i type="int" name="IVDW_NL">    -1</i>
   <i type="logical" name="LSPIN_VDW"> F  </i>
   <i name="ZAB_VDW">     -0.84910000</i>
   <i name="GAMMA_VDW">      1.39626340</i>
   <i name="ALPHA_VDW">      0.00000000</i>
   <i name="PARAM1">      0.12340000</i>
   <i name="PARAM2">      1.00000000</i>
   <i name="BPARAM">      6.30000000</i>
   <i name="CPARAM">      0.00930000</i>
  </separator>
  <separator name="model GW" >
   <i type="int" name="MODEL_GW">     0</i>
   <i name="MODEL_EPS0">     14.43827186</i>
   <i name="MODEL_ALPHA">      1.00000000</i>
  </separator>
  <separator name="linear response parameters" >
   <i type="logical" name="LEPSILON"> T  </i>
   <i type="logical" name="LRPA"> F  </i>
   <i type="logical" name="LNABLA"> F  </i>
   <i type="logical" name="LVEL"> F  </i>
   <i name="CSHIFT">      0.10000000</i>
   <i name="OMEGAMAX">     -1.00000000</i>
   <i name="DEG_THRESHOLD">      0.00200000</i>
   <i name="RTIME">     -0.10000000</i>
   <i name="WPLASMAI">      0.00000000</i>
   <v name="DFIELD">      0.00000000      0.00000000      0.00000000</v>
   <v name="WPLASMA">      0.00000000      0.00000000      0.00000000      0.00000000      0.00000000      0.00000000      0.00000000      0.00000000      0.00000000</v>
  </separator>
  <separator name="orbital magnetization" >
   <i type="logical" name="NUCIND"> F  </i>
   <v name="MAGPOS">      0.00000000      0.00000000      0.00000000</v>
   <i type="logical" name="LNICSALL"> T  </i>
   <i type="logical" name="ORBITALMAG"> F  </i>
   <i type="logical" name="LMAGBLOCH"> F  </i>
   <i type="logical" name="LCHIMAG"> F  </i>
   <i type="logical" name="LGAUGE"> T  </i>
   <i type="int" name="MAGATOM">     0</i>
   <v name="MAGDIPOL">      0.00000000      0.00000000      0.00000000</v>
   <v name="AVECCONST">      0.00000000      0.00000000      0.00000000</v>
  </separator>
  <separator name="response functions" >
   <i type="logical" name="LALL_IN_ONE"> F  </i>
   <i type="int" name="IALL_IN_ONE">    -1</i>
   <i type="int" name="NBANDS_WAVE">    -1</i>
   <i type="logical" name="LFINITE_TEMPERATURE"> F  </i>
   <i type="logical" name="LADDER"> F  </i>
   <i type="logical" name="LRPAFORCE"> F  </i>
   <i type="logical" name="LFXC"> F  </i>
   <i type="logical" name="LHARTREE"> T  </i>
   <i type="int" name="IBSE">     0</i>
   <v type="int" name="KPOINT">    -1     0     0     0</v>
   <i type="logical" name="LTCTC"> F  </i>
   <i type="logical" name="LTCTE"> F  </i>
   <i type="logical" name="LTETE"> F  </i>
   <i type="logical" name="LTRIPLET"> F  </i>
   <i type="logical" name="LFXCEPS"> F  </i>
   <i type="logical" name="LFXHEG"> F  </i>
   <i type="int" name="NATURALO">     2</i>
   <i type="logical" name="LHOLEGF"> F  </i>
   <i type="logical" name="L2ORDER"> F  </i>
   <i type="logical" name="LDMP1"> F  </i>
   <i type="logical" name="LMP2LT"> F  </i>
   <i type="logical" name="LSMP2LT"> F  </i>
   <i type="logical" name="LGWLF"> F  </i>
   <i name="ENCUTGW">     -1.60000002</i>
   <i name="ENCUTGWSOFT">     -1.60000002</i>
   <i name="ENCUTLF">     -1.00000000</i>
   <i type="logical" name="ESF_SPLINES"> F  </i>
   <i name="ESF_CONV">      0.01000000</i>
   <i type="int" name="ESF_NINTER">    15</i>
   <i type="int" name="LMAXMP2">    -1</i>
   <i name="SCISSOR">      0.00000000</i>
   <i type="int" name="NOMEGA">     0</i>
   <i type="int" name="NOMEGAR">     0</i>
   <i type="int" name="NBANDSGW">    -1</i>
   <i type="int" name="NBANDSO">    -1</i>
   <i type="int" name="NBANDSV">    -1</i>
   <i type="int" name="NELMGW">     1</i>
   <i type="int" name="NELMHF">     1</i>
   <i type="int" name="DIM">     3</i>
   <i type="int" name="IESPILON">     4</i>
   <i type="int" name="ANTIRES">     0</i>
   <i name="OMEGAMAX">    -30.00000000</i>
   <i name="OMEGAMIN">    -30.00000000</i>
   <i name="OMEGATL">   -200.00000000</i>
   <i type="int" name="OMEGAGRID">     0</i>
   <i name="CSHIFT">     -0.10000000</i>
   <i type="logical" name="LSELFENERGY"> F  </i>
   <i type="logical" name="LSPECTRAL"> F  </i>
   <i type="logical" name="LSPECTRALGW"> F  </i>
   <i type="logical" name="LSINGLES"> F  </i>
   <i type="logical" name="LFERMIGW"> F  </i>
   <i type="logical" name="ODDONLYGW"> F  </i>
   <i type="logical" name="EVENONLYGW"> F  </i>
   <i type="int" name="NKREDLFX">     1</i>
   <i type="int" name="NKREDLFY">     1</i>
   <i type="int" name="NKREDLFZ">     1</i>
   <i type="int" name="MAXMEM">  2800</i>
   <i type="int" name="TELESCOPE">     0</i>
   <i type="int" name="NTAUPAR">    -1</i>
   <i type="int" name="NOMEGAPAR">    -1</i>
   <i name="DAMP_NEWTON">      0.80000001</i>
   <i name="LAMBDA">      1.00000000</i>
  </separator>
  <separator name="External order field" >
   <i name="OFIELD_KAPPA">      0.00000000</i>
   <v name="OFIELD_K">      0.00000000      0.00000000      0.00000000</v>
   <i name="OFIELD_Q6_NEAR">      0.00000000</i>
   <i name="OFIELD_Q6_FAR">      0.00000000</i>
   <i name="OFIELD_A">      0.00000000</i>
  </separator>
  <separator name="optional k-points parameters" >
   <i type="int" name="KPOINTS_OPT_MODE">     1</i>
   <i type="logical" name="LKPOINTS_OPT"> F  </i>
  </separator>
 </parameters>
 <atominfo>
  <atoms>      64 </atoms>
  <types>       2 </types>
  <array name="atoms" >
   <dimension dim="1">ion</dimension>
   <field type="string">element</field>
   <field type="int">atomtype</field>
   <set>
    <rc><c>As</c><c>   1</c></rc>
    <rc><c>As</c><c>   1</c></rc>
    <rc><c>As</c><c>   1</c></rc>
    <rc><c>As</c><c>   1</c></rc>
    <rc><c>As</c><c>   1</c></rc>
    <rc><c>As</c><c>   1</c></rc>
    <rc><c>As</c><c>   1</c></rc>
    <rc><c>As</c><c>   1</c></rc>
    <rc><c>As</c><c>   1</c></rc>
    <rc><c>As</c><c>   1</c></rc>
    <rc><c>As</c><c>   1</c></rc>
    <rc><c>As</c><c>   1</c></rc>
    <rc><c>As</c><c>   1</c></rc>
    <rc><c>As</c><c>   1</c></rc>
    <rc><c>As</c><c>   1</c></rc>
    <rc><c>As</c><c>   1</c></rc>
    <rc><c>As</c><c>   1</c></rc>
    <rc><c>As</c><c>   1</c></rc>
    <rc><c>As</c><c>   1</c></rc>
    <rc><c>As</c><c>   1</c></rc>
    <rc><c>As</c><c>   1</c></rc>
    <rc><c>As</c><c>   1</c></rc>
    <rc><c>As</c><c>   1</c></rc>
    <rc><c>As</c><c>   1</c></rc>
    <rc><c>As</c><c>   1</c></rc>
    <rc><c>As</c><c>   1</c></rc>
    <rc><c>As</c><c>   1</c></rc>
    <rc><c>As</c><c>   1</c></rc>
    <rc><c>As</c><c>   1</c></rc>
    <rc><c>As</c><c>   1</c></rc>
    <rc><c>As</c><c>   1</c></rc>
    <rc><c>As</c><c>   1</c></rc>
    <rc><c>Ga</c><c>   2</c></rc>
    <rc><c>Ga</c><c>   2</c></rc>
    <rc><c>Ga</c><c>   2</c></rc>
    <rc><c>Ga</c><c>   2</c></rc>
    <rc><c>Ga</c><c>   2</c></rc>
    <rc><c>Ga</c><c>   2</c></rc>
    <rc><c>Ga</c><c>   2</c></rc>
    <rc><c>Ga</c><c>   2</c></rc>
    <rc><c>Ga</c><c>   2</c></rc>
    <rc><c>Ga</c><c>   2</c></rc>
    <rc><c>Ga</c><c>   2</c></rc>
    <rc><c>Ga</c><c>   2</c></rc>
    <rc><c>Ga</c><c>   2</c></rc>
    <rc><c>Ga</c><c>   2</c></rc>
    <rc><c>Ga</c><c>   2</c></rc>
    <rc><c>Ga</c><c>   2</c></rc>
    <rc><c>Ga</c><c>   2</c></rc>
    <rc><c>Ga</c><c>   2</c></rc>
    <rc><c>Ga</c><c>   2</c></rc>
    <rc><c>Ga</c><c>   2</c></rc>
    <rc><c>Ga</c><c>   2</c></rc>
    <rc><c>Ga</c><c>   2</c></rc>
    <rc><c>Ga</c><c>   2</c></rc>
    <rc><c>Ga</c><c>   2</c></rc>
    <rc><c>Ga</c><c>   2</c></rc>
    <rc><c>Ga</c><c>   2</c></rc>
    <rc><c>Ga</c><c>   2</c></rc>
    <rc><c>Ga</c><c>   2</c></rc>
    <rc><c>Ga</c><c>   2</c></rc>
    <rc><c>Ga</c><c>   2</c></rc>
    <rc><c>Ga</c><c>   2</c></rc>
    <rc><c>Ga</c><c>   2</c></rc>
   </set>
  </array>
  <array name="atomtypes" >
   <dimension dim="1">type</dimension>
   <field type="int">atomspertype</field>
   <field type="string">element</field>
   <field>mass</field>
   <field>valence</field>
   <field type="string">pseudopotential</field>
   <set>
    <rc><c>  32</c><c>As</c><c>     74.92200000</c><c>      5.00000000</c><c>  PAW_PBE As 22Sep2009                  </c></rc>
    <rc><c>  32</c><c>Ga</c><c>     69.72300000</c><c>      3.00000000</c><c>  PAW_PBE Ga 08Apr2002                  </c></rc>
   </set>
  </array>
 </atominfo>
 <structure name="initialpos" >
  <crystal>
   <varray name="basis" >
    <v>      11.69970183       0.00000000       0.00000000 </v>
    <v>       0.00000000      11.47320021       0.00000000 </v>
    <v>       0.00000000       0.00000000      11.47320021 </v>
   </varray>
   <i name="volume">   1540.08233169 </i>
   <varray name="rec_basis" >
    <v>       0.08547226       0.00000000       0.00000000 </v>
    <v>       0.00000000       0.08715964       0.00000000 </v>
    <v>       0.00000000       0.00000000       0.08715964 </v>
   </varray>
  </crystal>
  <varray name="positions" >
   <v>       0.00000000       0.00000000       0.00000000 </v>
   <v>       0.00000000       0.00000000       0.50000000 </v>
   <v>       0.00000000       0.50000000       0.00000000 </v>
   <v>       0.00000000       0.50000000       0.50000000 </v>
   <v>       0.50000000       0.00000000       0.00000000 </v>
   <v>       0.50000000       0.00000000       0.50000000 </v>
   <v>       0.50000000       0.50000000       0.00000000 </v>
   <v>       0.50000000       0.50000000       0.50000000 </v>
   <v>       0.25000000       0.25000000       0.00000000 </v>
   <v>       0.25000000       0.25000000       0.50000000 </v>
   <v>       0.25000000       0.75000000       0.00000000 </v>
   <v>       0.25000000       0.75000000       0.50000000 </v>
   <v>       0.75000000       0.25000000       0.00000000 </v>
   <v>       0.75000000       0.25000000       0.50000000 </v>
   <v>       0.75000000       0.75000000       0.00000000 </v>
   <v>       0.75000000       0.75000000       0.50000000 </v>
   <v>       0.25000000       0.00000000       0.25000000 </v>
   <v>       0.25000000       0.00000000       0.75000000 </v>
   <v>       0.25000000       0.50000000       0.25000000 </v>
   <v>       0.25000000       0.50000000       0.75000000 </v>
   <v>       0.75000000       0.00000000       0.25000000 </v>
   <v>       0.75000000       0.00000000       0.75000000 </v>
   <v>       0.75000000       0.50000000       0.25000000 </v>
   <v>       0.75000000       0.50000000       0.75000000 </v>
   <v>       0.00000000       0.25000000       0.25000000 </v>
   <v>       0.00000000       0.25000000       0.75000000 </v>
   <v>       0.00000000       0.75000000       0.25000000 </v>
   <v>       0.00000000       0.75000000       0.75000000 </v>
   <v>       0.50000000       0.25000000       0.25000000 </v>
   <v>       0.50000000       0.25000000       0.75000000 </v>
   <v>       0.50000000       0.75000000       0.25000000 </v>
   <v>       0.50000000       0.75000000       0.75000000 </v>
   <v>       0.12500000       0.12500000       0.12500000 </v>
   <v>       0.12500000       0.12500000       0.62500000 </v>
   <v>       0.12500000       0.62500000       0.12500000 </v>
   <v>       0.12500000       0.62500000       0.62500000 </v>
   <v>       0.62500000       0.12500000       0.12500000 </v>
   <v>       0.62500000       0.12500000       0.62500000 </v>
   <v>       0.62500000       0.62500000       0.12500000 </v>
   <v>       0.62500000       0.62500000       0.62500000 </v>
   <v>       0.37500000       0.12500000       0.37500000 </v>
   <v>       0.37500000       0.12500000       0.87500000 </v>
   <v>       0.37500000       0.62500000       0.37500000 </v>
   <v>       0.37500000       0.62500000       0.87500000 </v>
   <v>       0.87500000       0.12500000       0.37500000 </v>
   <v>       0.87500000       0.12500000       0.87500000 </v>
   <v>       0.87500000       0.62500000       0.37500000 </v>
   <v>       0.87500000       0.62500000       0.87500000 </v>
   <v>       0.37500000       0.37500000       0.12500000 </v>
   <v>       0.37500000       0.37500000       0.62500000 </v>
   <v>       0.37500000       0.87500000       0.12500000 </v>
   <v>       0.37500000       0.87500000       0.62500000 </v>
   <v>       0.87500000       0.37500000       0.12500000 </v>
   <v>       0.87500000       0.37500000       0.62500000 </v>
   <v>       0.87500000       0.87500000       0.12500000 </v>
   <v>       0.87500000       0.87500000       0.62500000 </v>
   <v>       0.12500000       0.37500000       0.37500000 </v>
   <v>       0.12500000       0.37500000       0.87500000 </v>
   <v>       0.12500000       0.87500000       0.37500000 </v>
   <v>       0.12500000       0.87500000       0.87500000 </v>
   <v>       0.62500000       0.37500000       0.37500000 </v>
   <v>       0.62500000       0.37500000       0.87500000 </v>
   <v>       0.62500000       0.87500000       0.37500000 </v>
   <v>       0.62500000       0.87500000       0.87500000 </v>
  </varray>
 </structure>
 <calculation>
  <scstep>
   <time name="dav">   78.67   79.63</time>
   <time name="total">   78.83   79.80</time>
   <energy>
    <i name="alphaZ">    568.64917973 </i>
    <i name="ewald">  -7180.42000478 </i>
    <i name="hartreedc">   -605.24969175 </i>
    <i name="XCdc">   -996.70706494 </i>
    <i name="pawpsdc">   6692.16565901 </i>
    <i name="pawaedc">  -5247.93935635 </i>
    <i name="eentropy">      0.00000000 </i>
    <i name="bandstr">    373.24711907 </i>
    <i name="atom">   7329.73306348 </i>
    <i name="e_fr_energy">    933.47890347 </i>
    <i name="e_wo_entrp">    933.47890347 </i>
    <i name="e_0_energy">    933.47890347 </i>
   </energy>
  </scstep>
  <scstep>
   <time name="dav">   91.33   92.56</time>
   <time name="total">   91.34   92.57</time>
   <energy>
    <i name="e_fr_energy">   -167.78172237 </i>
    <i name="e_wo_entrp">   -167.78172237 </i>
    <i name="e_0_energy">   -167.78172237 </i>
   </energy>
  </scstep>
  <scstep>
   <time name="dav">   89.41   90.43</time>
   <time name="total">   89.42   90.44</time>
   <energy>
    <i name="e_fr_energy">   -267.67069728 </i>
    <i name="e_wo_entrp">   -267.67069728 </i>
    <i name="e_0_energy">   -267.67069728 </i>
   </energy>
  </scstep>
  <scstep>
   <time name="dav">   83.76   84.78</time>
   <time name="total">   83.76   84.79</time>
   <energy>
    <i name="e_fr_energy">   -270.06283351 </i>
    <i name="e_wo_entrp">   -270.06283351 </i>
    <i name="e_0_energy">   -270.06283351 </i>
   </energy>
  </scstep>
  <scstep>
   <time name="dav">   88.93   89.99</time>
   <time name="total">   90.08   91.14</time>
   <energy>
    <i name="e_fr_energy">   -270.12770137 </i>
    <i name="e_wo_entrp">   -270.12770137 </i>
    <i name="e_0_energy">   -270.12770137 </i>
   </energy>
  </scstep>
  <scstep>
   <time name="dav">   86.16   87.18</time>
   <time name="total">   87.44   88.48</time>
   <energy>
    <i name="e_fr_energy">   -265.95777013 </i>
    <i name="e_wo_entrp">   -265.95777013 </i>
    <i name="e_0_energy">   -265.95777013 </i>
   </energy>
  </scstep>
  <scstep>
   <time name="dav">   89.24   90.33</time>
   <time name="total">   90.27   91.38</time>
   <energy>
    <i name="e_fr_energy">   -265.14164309 </i>
    <i name="e_wo_entrp">   -265.14164309 </i>
    <i name="e_0_energy">   -265.14164309 </i>
   </energy>
  </scstep>
  <scstep>
   <time name="dav">   80.47   81.46</time>
   <time name="total">   81.67   82.68</time>
   <energy>
    <i name="e_fr_energy">   -265.10025714 </i>
    <i name="e_wo_entrp">   -265.10025714 </i>
    <i name="e_0_energy">   -265.10025714 </i>
   </energy>
  </scstep>
  <scstep>
   <time name="dav">   83.84   84.89</time>
   <time name="total">   85.13   86.19</time>
   <energy>
    <i name="e_fr_energy">   -265.11205895 </i>
    <i name="e_wo_entrp">   -265.11205895 </i>
    <i name="e_0_energy">   -265.11205895 </i>
   </energy>
  </scstep>
  <scstep>
   <time name="dav">   90.68   91.80</time>
   <time name="total">   91.97   93.11</time>
   <energy>
    <i name="e_fr_energy">   -265.11314830 </i>
    <i name="e_wo_entrp">   -265.11314830 </i>
    <i name="e_0_energy">   -265.11314830 </i>
   </energy>
  </scstep>
  <scstep>
   <time name="dav">   82.64   83.66</time>
   <time name="total">   83.95   84.98</time>
   <energy>
    <i name="e_fr_energy">   -265.11447239 </i>
    <i name="e_wo_entrp">   -265.11447239 </i>
    <i name="e_0_energy">   -265.11447239 </i>
   </energy>
  </scstep>
  <scstep>
   <time name="dav">   88.71   89.79</time>
   <time name="total">   89.75   90.85</time>
   <energy>
    <i name="e_fr_energy">   -265.11447961 </i>
    <i name="e_wo_entrp">   -265.11447961 </i>
    <i name="e_0_energy">   -265.11447961 </i>
   </energy>
  </scstep>
  <scstep>
   <time name="dav">   85.29   86.31</time>
   <time name="total">   86.55   87.59</time>
   <energy>
    <i name="e_fr_energy">   -265.11448876 </i>
    <i name="e_wo_entrp">   -265.11448876 </i>
    <i name="e_0_energy">   -265.11448876 </i>
   </energy>
  </scstep>
  <scstep>
   <time name="dav">   72.19   73.06</time>
   <time name="total">   72.35   73.22</time>
   <energy>
    <i name="alphaZ">    568.64917973 </i>
    <i name="ewald">  -7180.42000478 </i>
    <i name="hartreedc">   -713.29889975 </i>
    <i name="XCdc">   -974.85041565 </i>
    <i name="pawpsdc">  14560.01443522 </i>
    <i name="pawaedc"> -13127.35760221 </i>
    <i name="eentropy">      0.00000000 </i>
    <i name="bandstr">   -727.58424417 </i>
    <i name="atom">   7329.73306348 </i>
    <i name="e_fr_energy">   -265.11448813 </i>
    <i name="e_wo_entrp">   -265.11448813 </i>
    <i name="e_0_energy">   -265.11448813 </i>
   </energy>
  </scstep>
  <structure>
   <crystal>
    <varray name="basis" >
     <v>      11.69970183       0.00000000       0.00000000 </v>
     <v>       0.00000000      11.47320021       0.00000000 </v>
     <v>       0.00000000       0.00000000      11.47320021 </v>
    </varray>
    <i name="volume">   1540.08233169 </i>
    <varray name="rec_basis" >
     <v>       0.08547226       0.00000000       0.00000000 </v>
     <v>       0.00000000       0.08715964       0.00000000 </v>
     <v>       0.00000000       0.00000000       0.08715964 </v>
    </varray>
   </crystal>
   <varray name="positions" >
    <v>       0.00000000       0.00000000       0.00000000 </v>
    <v>       0.00000000       0.00000000       0.50000000 </v>
    <v>       0.00000000       0.50000000       0.00000000 </v>
    <v>       0.00000000       0.50000000       0.50000000 </v>
    <v>       0.50000000       0.00000000       0.00000000 </v>
    <v>       0.50000000       0.00000000       0.50000000 </v>
    <v>       0.50000000       0.50000000       0.00000000 </v>
    <v>       0.50000000       0.50000000       0.50000000 </v>
    <v>       0.25000000       0.25000000       0.00000000 </v>
    <v>       0.25000000       0.25000000       0.50000000 </v>
    <v>       0.25000000       0.75000000       0.00000000 </v>
    <v>       0.25000000       0.75000000       0.50000000 </v>
    <v>       0.75000000       0.25000000       0.00000000 </v>
    <v>       0.75000000       0.25000000       0.50000000 </v>
    <v>       0.75000000       0.75000000       0.00000000 </v>
    <v>       0.75000000       0.75000000       0.50000000 </v>
    <v>       0.25000000       0.00000000       0.25000000 </v>
    <v>       0.25000000       0.00000000       0.75000000 </v>
    <v>       0.25000000       0.50000000       0.25000000 </v>
    <v>       0.25000000       0.50000000       0.75000000 </v>
    <v>       0.75000000       0.00000000       0.25000000 </v>
    <v>       0.75000000       0.00000000       0.75000000 </v>
    <v>       0.75000000       0.50000000       0.25000000 </v>
    <v>       0.75000000       0.50000000       0.75000000 </v>
    <v>       0.00000000       0.25000000       0.25000000 </v>
    <v>       0.00000000       0.25000000       0.75000000 </v>
    <v>       0.00000000       0.75000000       0.25000000 </v>
    <v>       0.00000000       0.75000000       0.75000000 </v>
    <v>       0.50000000       0.25000000       0.25000000 </v>
    <v>       0.50000000       0.25000000       0.75000000 </v>
    <v>       0.50000000       0.75000000       0.25000000 </v>
    <v>       0.50000000       0.75000000       0.75000000 </v>
    <v>       0.12500000       0.12500000       0.12500000 </v>
    <v>       0.12500000       0.12500000       0.62500000 </v>
    <v>       0.12500000       0.62500000       0.12500000 </v>
    <v>       0.12500000       0.62500000       0.62500000 </v>
    <v>       0.62500000       0.12500000       0.12500000 </v>
    <v>       0.62500000       0.12500000       0.62500000 </v>
    <v>       0.62500000       0.62500000       0.12500000 </v>
    <v>       0.62500000       0.62500000       0.62500000 </v>
    <v>       0.37500000       0.12500000       0.37500000 </v>
    <v>       0.37500000       0.12500000       0.87500000 </v>
    <v>       0.37500000       0.62500000       0.37500000 </v>
    <v>       0.37500000       0.62500000       0.87500000 </v>
    <v>       0.87500000       0.12500000       0.37500000 </v>
    <v>       0.87500000       0.12500000       0.87500000 </v>
    <v>       0.87500000       0.62500000       0.37500000 </v>
    <v>       0.87500000       0.62500000       0.87500000 </v>
    <v>       0.37500000       0.37500000       0.12500000 </v>
    <v>       0.37500000       0.37500000       0.62500000 </v>
    <v>       0.37500000       0.87500000       0.12500000 </v>
    <v>       0.37500000       0.87500000       0.62500000 </v>
    <v>       0.87500000       0.37500000       0.12500000 </v>
    <v>       0.87500000       0.37500000       0.62500000 </v>
    <v>       0.87500000       0.87500000       0.12500000 </v>
    <v>       0.87500000       0.87500000       0.62500000 </v>
    <v>       0.12500000       0.37500000       0.37500000 </v>
    <v>       0.12500000       0.37500000       0.87500000 </v>
    <v>       0.12500000       0.87500000       0.37500000 </v>
    <v>       0.12500000       0.87500000       0.87500000 </v>
    <v>       0.62500000       0.37500000       0.37500000 </v>
    <v>       0.62500000       0.37500000       0.87500000 </v>
    <v>       0.62500000       0.87500000       0.37500000 </v>
    <v>       0.62500000       0.87500000       0.87500000 </v>
   </varray>
  </structure>
  <varray name="forces" >
   <v>      -0.00000000      -0.00000000       0.00000000 </v>
   <v>       0.00000000      -0.00000000      -0.00000000 </v>
   <v>       0.00000000      -0.00000000       0.00000000 </v>
   <v>       0.00000000      -0.00000000       0.00000000 </v>
   <v>       0.00000000       0.00000000       0.00000000 </v>
   <v>       0.00000000      -0.00000000       0.00000000 </v>
   <v>       0.00000000      -0.00000000       0.00000000 </v>
   <v>       0.00000000      -0.00000000       0.00000000 </v>
   <v>       0.00000000       0.00000000      -0.00000000 </v>
   <v>      -0.00000000       0.00000000      -0.00000000 </v>
   <v>      -0.00000000       0.00000000       0.00000000 </v>
   <v>      -0.00000000      -0.00000000       0.00000000 </v>
   <v>      -0.00000000      -0.00000000      -0.00000000 </v>
   <v>       0.00000000       0.00000000      -0.00000000 </v>
   <v>      -0.00000000      -0.00000000       0.00000000 </v>
   <v>      -0.00000000      -0.00000000       0.00000000 </v>
   <v>       0.00000000       0.00000000      -0.00000000 </v>
   <v>      -0.00000000       0.00000000       0.00000000 </v>
   <v>      -0.00000000      -0.00000000       0.00000000 </v>
   <v>       0.00000000       0.00000000       0.00000000 </v>
   <v>       0.00000000       0.00000000      -0.00000000 </v>
   <v>      -0.00000000       0.00000000       0.00000000 </v>
   <v>      -0.00000000       0.00000000       0.00000000 </v>
   <v>       0.00000000      -0.00000000       0.00000000 </v>
   <v>       0.00000000      -0.00000000      -0.00000000 </v>
   <v>       0.00000000      -0.00000000      -0.00000000 </v>
   <v>       0.00000000       0.00000000       0.00000000 </v>
   <v>      -0.00000000      -0.00000000       0.00000000 </v>
   <v>      -0.00000000      -0.00000000      -0.00000000 </v>
   <v>       0.00000000      -0.00000000      -0.00000000 </v>
   <v>      -0.00000000      -0.00000000       0.00000000 </v>
   <v>      -0.00000000      -0.00000000       0.00000000 </v>
   <v>       0.00000000       0.00000000      -0.00000000 </v>
   <v>       0.00000000       0.00000000      -0.00000000 </v>
   <v>       0.00000000       0.00000000      -0.00000000 </v>
   <v>       0.00000000       0.00000000      -0.00000000 </v>
   <v>      -0.00000000       0.00000000      -0.00000000 </v>
   <v>      -0.00000000       0.00000000      -0.00000000 </v>
   <v>       0.00000000      -0.00000000      -0.00000000 </v>
   <v>       0.00000000      -0.00000000      -0.00000000 </v>
   <v>       0.00000000       0.00000000      -0.00000000 </v>
   <v>       0.00000000       0.00000000      -0.00000000 </v>
   <v>       0.00000000       0.00000000      -0.00000000 </v>
   <v>       0.00000000      -0.00000000      -0.00000000 </v>
   <v>      -0.00000000       0.00000000      -0.00000000 </v>
   <v>      -0.00000000       0.00000000      -0.00000000 </v>
   <v>      -0.00000000      -0.00000000      -0.00000000 </v>
   <v>      -0.00000000       0.00000000      -0.00000000 </v>
   <v>       0.00000000       0.00000000      -0.00000000 </v>
   <v>       0.00000000      -0.00000000      -0.00000000 </v>
   <v>       0.00000000       0.00000000      -0.00000000 </v>
   <v>       0.00000000      -0.00000000      -0.00000000 </v>
   <v>      -0.00000000       0.00000000      -0.00000000 </v>
   <v>      -0.00000000       0.00000000      -0.00000000 </v>
   <v>      -0.00000000      -0.00000000      -0.00000000 </v>
   <v>      -0.00000000      -0.00000000      -0.00000000 </v>
   <v>       0.00000000       0.00000000      -0.00000000 </v>
   <v>      -0.00000000       0.00000000      -0.00000000 </v>
   <v>       0.00000000      -0.00000000      -0.00000000 </v>
   <v>       0.00000000      -0.00000000      -0.00000000 </v>
   <v>      -0.00000000      -0.00000000      -0.00000000 </v>
   <v>       0.00000000       0.00000000      -0.00000000 </v>
   <v>       0.00000000       0.00000000      -0.00000000 </v>
   <v>      -0.00000000       0.00000000      -0.00000000 </v>
  </varray>
  <varray name="stress" >
   <v>     -11.29271671       0.00000000       0.00000000 </v>
   <v>       0.00000000       0.06254210       0.00000000 </v>
   <v>      -0.00000000       0.00000000       0.06254210 </v>
  </varray>
  <scstep>
   <time name="total">  123.84  124.73</time>
   <energy>
    <i name="e_fr_energy">  -1271.55851195 </i>
    <i name="e_wo_entrp">  -1271.55851195 </i>
    <i name="e_0_energy">  -1271.55851195 </i>
   </energy>
  </scstep>
  <scstep>
   <time name="total">   91.29   92.01</time>
   <energy>
    <i name="e_fr_energy">  -1098.61944115 </i>
    <i name="e_wo_entrp">  -1098.61944115 </i>
    <i name="e_0_energy">  -1098.61944115 </i>
   </energy>
  </scstep>
  <scstep>
   <time name="total">   90.44   91.14</time>
   <energy>
    <i name="e_fr_energy">  -1100.86977244 </i>
    <i name="e_wo_entrp">  -1100.86977244 </i>
    <i name="e_0_energy">  -1100.86977244 </i>
   </energy>
  </scstep>
  <scstep>
   <time name="total">   59.63   60.12</time>
   <energy>
    <i name="e_fr_energy">  -1100.99232477 </i>
    <i name="e_wo_entrp">  -1100.99232477 </i>
    <i name="e_0_energy">  -1100.99232477 </i>
   </energy>
  </scstep>
  <scstep>
   <time name="total">   61.68   62.18</time>
   <energy>
    <i name="e_fr_energy">  -1100.99594693 </i>
    <i name="e_wo_entrp">  -1100.99594693 </i>
    <i name="e_0_energy">  -1100.99594693 </i>
   </energy>
  </scstep>
  <scstep>
   <time name="total">   63.48   64.04</time>
   <energy>
    <i name="e_fr_energy">  -1100.99615291 </i>
    <i name="e_wo_entrp">  -1100.99615291 </i>
    <i name="e_0_energy">  -1100.99615291 </i>
   </energy>
  </scstep>
  <scstep>
   <time name="total">   70.10   70.64</time>
   <energy>
    <i name="e_fr_energy">  -1100.99616382 </i>
    <i name="e_wo_entrp">  -1100.99616382 </i>
    <i name="e_0_energy">  -1100.99616382 </i>
   </energy>
  </scstep>
  <scstep>
   <time name="total">   69.49   70.03</time>
   <energy>
    <i name="e_fr_energy">  -1100.99618913 </i>
    <i name="e_wo_entrp">  -1100.99618913 </i>
    <i name="e_0_energy">  -1100.99618913 </i>
   </energy>
  </scstep>
  <scstep>
   <time name="total">   71.57   72.19</time>
   <energy>
    <i name="e_fr_energy">  -1100.99615788 </i>
    <i name="e_wo_entrp">  -1100.99615788 </i>
    <i name="e_0_energy">  -1100.99615788 </i>
   </energy>
  </scstep>
  <scstep>
   <time name="total">   77.20   78.07</time>
   <energy>
    <i name="e_fr_energy">  -1100.99614346 </i>
    <i name="e_wo_entrp">  -1100.99614346 </i>
    <i name="e_0_energy">  -1100.99614346 </i>
   </energy>
  </scstep>
  <scstep>
   <time name="total">   74.63   75.19</time>
   <energy>
    <i name="e_fr_energy">  -1100.99618105 </i>
    <i name="e_wo_entrp">  -1100.99618105 </i>
    <i name="e_0_energy">  -1100.99618105 </i>
   </energy>
  </scstep>
  <scstep>
   <time name="total">  119.45  120.25</time>
   <energy>
    <i name="e_fr_energy">  -1252.34892637 </i>
    <i name="e_wo_entrp">  -1252.34892637 </i>
    <i name="e_0_energy">  -1252.34892637 </i>
   </energy>
  </scstep>
  <scstep>
   <time name="total">   83.55   84.16</time>
   <energy>
    <i name="e_fr_energy">  -1105.78579330 </i>
    <i name="e_wo_entrp">  -1105.78579330 </i>
    <i name="e_0_energy">  -1105.78579330 </i>
   </energy>
  </scstep>
  <scstep>
   <time name="total">   92.43   93.16</time>
   <energy>
    <i name="e_fr_energy">  -1107.28203997 </i>
    <i name="e_wo_entrp">  -1107.28203997 </i>
    <i name="e_0_energy">  -1107.28203997 </i>
   </energy>
  </scstep>
  <scstep>
   <time name="total">   61.88   62.40</time>
   <energy>
    <i name="e_fr_energy">  -1107.07909657 </i>
    <i name="e_wo_entrp">  -1107.07909657 </i>
    <i name="e_0_energy">  -1107.07909657 </i>
   </energy>
  </scstep>
  <scstep>
   <time name="total">   62.78   63.33</time>
   <energy>
    <i name="e_fr_energy">  -1106.85602695 </i>
    <i name="e_wo_entrp">  -1106.85602695 </i>
    <i name="e_0_energy">  -1106.85602695 </i>
   </energy>
  </scstep>
  <scstep>
   <time name="total">   65.63   66.15</time>
   <energy>
    <i name="e_fr_energy">  -1106.78558298 </i>
    <i name="e_wo_entrp">  -1106.78558298 </i>
    <i name="e_0_energy">  -1106.78558298 </i>
   </energy>
  </scstep>
  <scstep>
   <time name="total">   65.88   66.46</time>
   <energy>
    <i name="e_fr_energy">  -1106.77199443 </i>
    <i name="e_wo_entrp">  -1106.77199443 </i>
    <i name="e_0_energy">  -1106.77199443 </i>
   </energy>
  </scstep>
  <scstep>
   <time name="total">   68.67   69.25</time>
   <energy>
    <i name="e_fr_energy">  -1106.76717655 </i>
    <i name="e_wo_entrp">  -1106.76717655 </i>
    <i name="e_0_energy">  -1106.76717655 </i>
   </energy>
  </scstep>
  <scstep>
   <time name="total">   68.67   69.21</time>
   <energy>
    <i name="e_fr_energy">  -1106.76607188 </i>
    <i name="e_wo_entrp">  -1106.76607188 </i>
    <i name="e_0_energy">  -1106.76607188 </i>
   </energy>
  </scstep>
  <scstep>
   <time name="total">   75.32   75.94</time>
   <energy>
    <i name="e_fr_energy">  -1106.76647658 </i>
    <i name="e_wo_entrp">  -1106.76647658 </i>
    <i name="e_0_energy">  -1106.76647658 </i>
   </energy>
  </scstep>
  <scstep>
   <time name="total">   80.03   80.66</time>
   <energy>
    <i name="e_fr_energy">  -1106.76705365 </i>
    <i name="e_wo_entrp">  -1106.76705365 </i>
    <i name="e_0_energy">  -1106.76705365 </i>
   </energy>
  </scstep>
  <scstep>
   <time name="total">  127.29  128.16</time>
   <energy>
    <i name="e_fr_energy">  -1371.99645417 </i>
    <i name="e_wo_entrp">  -1371.99645417 </i>
    <i name="e_0_energy">  -1371.99645417 </i>
   </energy>
  </scstep>
  <scstep>
   <time name="total">   87.68   88.32</time>
   <energy>
    <i name="e_fr_energy">  -1110.88959770 </i>
    <i name="e_wo_entrp">  -1110.88959770 </i>
    <i name="e_0_energy">  -1110.88959770 </i>
   </energy>
  </scstep>
  <scstep>
   <time name="total">   91.11   91.83</time>
   <energy>
    <i name="e_fr_energy">  -1112.39708120 </i>
    <i name="e_wo_entrp">  -1112.39708120 </i>
    <i name="e_0_energy">  -1112.39708120 </i>
   </energy>
  </scstep>
  <scstep>
   <time name="total">   63.60   64.18</time>
   <energy>
    <i name="e_fr_energy">  -1112.21624526 </i>
    <i name="e_wo_entrp">  -1112.21624526 </i>
    <i name="e_0_energy">  -1112.21624526 </i>
   </energy>
  </scstep>
  <scstep>
   <time name="total">   60.50   60.99</time>
   <energy>
    <i name="e_fr_energy">  -1111.99469756 </i>
    <i name="e_wo_entrp">  -1111.99469756 </i>
    <i name="e_0_energy">  -1111.99469756 </i>
   </energy>
  </scstep>
  <scstep>
   <time name="total">   68.55   69.14</time>
   <energy>
    <i name="e_fr_energy">  -1111.92191110 </i>
    <i name="e_wo_entrp">  -1111.92191110 </i>
    <i name="e_0_energy">  -1111.92191110 </i>
   </energy>
  </scstep>
  <scstep>
   <time name="total">   66.56   67.10</time>
   <energy>
    <i name="e_fr_energy">  -1111.90998243 </i>
    <i name="e_wo_entrp">  -1111.90998243 </i>
    <i name="e_0_energy">  -1111.90998243 </i>
   </energy>
  </scstep>
  <scstep>
   <time name="total">   81.63   82.31</time>
   <energy>
    <i name="e_fr_energy">  -1111.90227249 </i>
    <i name="e_wo_entrp">  -1111.90227249 </i>
    <i name="e_0_energy">  -1111.90227249 </i>
   </energy>
  </scstep>
  <scstep>
   <time name="total">   77.70   78.28</time>
   <energy>
    <i name="e_fr_energy">  -1111.90408013 </i>
    <i name="e_wo_entrp">  -1111.90408013 </i>
    <i name="e_0_energy">  -1111.90408013 </i>
   </energy>
  </scstep>
  <scstep>
   <time name="total">   82.88   83.51</time>
   <energy>
    <i name="e_fr_energy">  -1111.90155518 </i>
    <i name="e_wo_entrp">  -1111.90155518 </i>
    <i name="e_0_energy">  -1111.90155518 </i>
   </energy>
  </scstep>
  <scstep>
   <time name="total">   86.65   87.34</time>
   <energy>
    <i name="e_fr_energy">  -1111.90526894 </i>
    <i name="e_wo_entrp">  -1111.90526894 </i>
    <i name="e_0_energy">  -1111.90526894 </i>
   </energy>
  </scstep>
  <kpoints>
   <generation param="Gamma">
    <v type="int" name="divisions">       5        5        5 </v>
    <v name="usershift">      0.00000000       0.00000000       0.00000000 </v>
    <v name="genvec1">      0.20000000       0.00000000       0.00000000 </v>
    <v name="genvec2">      0.00000000       0.20000000       0.00000000 </v>
    <v name="genvec3">      0.00000000       0.00000000       0.20000000 </v>
    <v name="shift">      0.00000000       0.00000000       0.00000000 </v>
   </generation>
   <varray name="kpointlist" >
    <v>       0.00000000       0.00000000       0.00000000 </v>
    <v>       0.20000000       0.00000000       0.00000000 </v>
    <v>       0.40000000       0.00000000       0.00000000 </v>
    <v>       0.00000000       0.20000000       0.00000000 </v>
    <v>       0.20000000       0.20000000       0.00000000 </v>
    <v>       0.40000000       0.20000000       0.00000000 </v>
    <v>       0.00000000       0.40000000       0.00000000 </v>
    <v>       0.20000000       0.40000000       0.00000000 </v>
    <v>       0.40000000       0.40000000       0.00000000 </v>
    <v>       0.00000000       0.20000000       0.20000000 </v>
    <v>       0.00000000      -0.20000000       0.20000000 </v>
    <v>       0.20000000       0.20000000       0.20000000 </v>
    <v>       0.20000000      -0.20000000       0.20000000 </v>
    <v>       0.40000000       0.20000000       0.20000000 </v>
    <v>       0.40000000      -0.20000000       0.20000000 </v>
    <v>       0.00000000       0.40000000       0.20000000 </v>
    <v>       0.00000000      -0.20000000       0.40000000 </v>
    <v>       0.20000000       0.40000000       0.20000000 </v>
    <v>       0.20000000      -0.20000000       0.40000000 </v>
    <v>       0.40000000       0.40000000       0.20000000 </v>
    <v>       0.40000000      -0.20000000       0.40000000 </v>
    <v>       0.00000000       0.40000000       0.40000000 </v>
    <v>       0.00000000      -0.40000000       0.40000000 </v>
    <v>       0.20000000       0.40000000       0.40000000 </v>
    <v>       0.20000000      -0.40000000       0.40000000 </v>
    <v>       0.40000000       0.40000000       0.40000000 </v>
    <v>       0.40000000      -0.40000000       0.40000000 </v>
   </varray>
   <varray name="weights" >
    <v>       0.00800000 </v>
    <v>       0.01600000 </v>
    <v>       0.01600000 </v>
    <v>       0.03200000 </v>
    <v>       0.06400000 </v>
    <v>       0.06400000 </v>
    <v>       0.03200000 </v>
    <v>       0.06400000 </v>
    <v>       0.06400000 </v>
    <v>       0.01600000 </v>
    <v>       0.01600000 </v>
    <v>       0.03200000 </v>
    <v>       0.03200000 </v>
    <v>       0.03200000 </v>
    <v>       0.03200000 </v>
    <v>       0.03200000 </v>
    <v>       0.03200000 </v>
    <v>       0.06400000 </v>
    <v>       0.06400000 </v>
    <v>       0.06400000 </v>
    <v>       0.06400000 </v>
    <v>       0.01600000 </v>
    <v>       0.01600000 </v>
    <v>       0.03200000 </v>
    <v>       0.03200000 </v>
    <v>       0.03200000 </v>
    <v>       0.03200000 </v>
   </varray>
   <varray name="tetrahedronlist"  type="int" >
    <v type="int" >        4       12       14       18       20 </v>
    <v type="int" >        4       12       18       18       20 </v>
    <v type="int" >        4       18       18       20       24 </v>
    <v type="int" >        4       14       18       20       20 </v>
    <v type="int" >        4       18       20       20       26 </v>
    <v type="int" >        4       18       20       24       26 </v>
    <v type="int" >        2       14       14       20       20 </v>
    <v type="int" >        4       14       20       20       20 </v>
    <v type="int" >        4       20       20       20       26 </v>
    <v type="int" >        2       20       20       26       26 </v>
    <v type="int" >        4       10       12       16       18 </v>
    <v type="int" >        4       12       16       18       18 </v>
    <v type="int" >        4       16       18       18       24 </v>
    <v type="int" >        4       10       16       16       18 </v>
    <v type="int" >        4       16       16       18       22 </v>
    <v type="int" >        4       16       18       22       24 </v>
    <v type="int" >        4       18       20       21       24 </v>
    <v type="int" >        4       18       19       21       24 </v>
    <v type="int" >        4       19       21       24       25 </v>
    <v type="int" >        4       20       21       24       26 </v>
    <v type="int" >        4       21       24       26       27 </v>
    <v type="int" >        4       21       24       25       27 </v>
    <v type="int" >        4       20       20       21       26 </v>
    <v type="int" >        4       20       21       21       26 </v>
    <v type="int" >        4       21       21       26       27 </v>
    <v type="int" >        4       20       21       26       26 </v>
    <v type="int" >        4       21       26       26       27 </v>
    <v type="int" >        4       21       26       27       27 </v>
    <v type="int" >        4       18       19       20       26 </v>
    <v type="int" >        4       19       20       21       26 </v>
    <v type="int" >        4       19       21       26       27 </v>
    <v type="int" >        4       18       19       24       26 </v>
    <v type="int" >        4       19       24       25       26 </v>
    <v type="int" >        4       19       25       26       27 </v>
    <v type="int" >        4       16       17       18       24 </v>
    <v type="int" >        4       17       18       19       24 </v>
    <v type="int" >        4       17       19       24       25 </v>
    <v type="int" >        4       16       17       22       24 </v>
    <v type="int" >        4       17       22       23       24 </v>
    <v type="int" >        4       17       23       24       25 </v>
    <v type="int" >        4       16       18       19       22 </v>
    <v type="int" >        4       16       17       19       22 </v>
    <v type="int" >        4       17       19       22       23 </v>
    <v type="int" >        4       18       19       22       24 </v>
    <v type="int" >        4       19       22       24       25 </v>
    <v type="int" >        4       19       22       23       25 </v>
    <v type="int" >        4       15       19       21       25 </v>
    <v type="int" >        4       13       15       19       25 </v>
    <v type="int" >        4       15       21       25       27 </v>
    <v type="int" >        4       15       21       21       27 </v>
    <v type="int" >        4       15       15       21       27 </v>
    <v type="int" >        4       15       21       27       27 </v>
    <v type="int" >        4       13       19       21       27 </v>
    <v type="int" >        4       13       15       21       27 </v>
    <v type="int" >        4       13       19       25       27 </v>
    <v type="int" >        4       11       17       19       25 </v>
    <v type="int" >        4       11       13       19       25 </v>
    <v type="int" >        4       11       17       23       25 </v>
    <v type="int" >        4       13       17       19       23 </v>
    <v type="int" >        4       11       13       17       23 </v>
    <v type="int" >        4       13       19       23       25 </v>
    <v type="int" >        4        6       13       15       19 </v>
    <v type="int" >        4        5        6       13       19 </v>
    <v type="int" >        4        5        6        8       19 </v>
    <v type="int" >        4        6       15       19       21 </v>
    <v type="int" >        4        6        9       19       21 </v>
    <v type="int" >        4        6        8        9       19 </v>
    <v type="int" >        4        6       15       15       21 </v>
    <v type="int" >        4        6        6       15       21 </v>
    <v type="int" >        4        6        6        9       21 </v>
    <v type="int" >        4        6       15       21       21 </v>
    <v type="int" >        4        6        9       21       21 </v>
    <v type="int" >        4        6        9        9       21 </v>
    <v type="int" >        4        5       13       15       21 </v>
    <v type="int" >        4        5        6       15       21 </v>
    <v type="int" >        4        5        6        9       21 </v>
    <v type="int" >        4        5       13       19       21 </v>
    <v type="int" >        4        5        8       19       21 </v>
    <v type="int" >        4        5        8        9       21 </v>
    <v type="int" >        4        4       11       13       19 </v>
    <v type="int" >        4        4        5       13       19 </v>
    <v type="int" >        4        4        5        8       19 </v>
    <v type="int" >        4        4       11       17       19 </v>
    <v type="int" >        4        4        7       17       19 </v>
    <v type="int" >        4        4        7        8       19 </v>
    <v type="int" >        4        5       11       13       17 </v>
    <v type="int" >        4        4        5       11       17 </v>
    <v type="int" >        4        4        5        7       17 </v>
    <v type="int" >        4        5       13       17       19 </v>
    <v type="int" >        4        5        8       17       19 </v>
    <v type="int" >        4        5        7        8       17 </v>
    <v type="int" >        4        5        6        8       14 </v>
    <v type="int" >        4        5        8       12       14 </v>
    <v type="int" >        4        8       12       14       18 </v>
    <v type="int" >        4        6        8        9       14 </v>
    <v type="int" >        4        8        9       14       20 </v>
    <v type="int" >        4        8       14       18       20 </v>
    <v type="int" >        4        6        6        9       14 </v>
    <v type="int" >        4        6        9       14       14 </v>
    <v type="int" >        4        9       14       14       20 </v>
    <v type="int" >        4        6        9        9       14 </v>
    <v type="int" >        4        9        9       14       20 </v>
    <v type="int" >        4        9       14       20       20 </v>
    <v type="int" >        4        5        6        9       12 </v>
    <v type="int" >        4        6        9       12       14 </v>
    <v type="int" >        4        9       12       14       20 </v>
    <v type="int" >        4        5        8        9       12 </v>
    <v type="int" >        4        8        9       12       18 </v>
    <v type="int" >        4        9       12       18       20 </v>
    <v type="int" >        4        4        5        8       10 </v>
    <v type="int" >        4        5        8       10       12 </v>
    <v type="int" >        4        8       10       12       18 </v>
    <v type="int" >        4        4        7        8       10 </v>
    <v type="int" >        4        7        8       10       16 </v>
    <v type="int" >        4        8       10       16       18 </v>
    <v type="int" >        4        4        5        7       12 </v>
    <v type="int" >        4        4        7       10       12 </v>
    <v type="int" >        4        7       10       12       16 </v>
    <v type="int" >        4        5        7        8       12 </v>
    <v type="int" >        4        7        8       12       18 </v>
    <v type="int" >        4        7       12       16       18 </v>
    <v type="int" >        4       24       25       26       27 </v>
    <v type="int" >        4       24       25       25       27 </v>
    <v type="int" >        4       25       26       27       27 </v>
    <v type="int" >        2       26       26       27       27 </v>
    <v type="int" >        4       26       27       27       27 </v>
    <v type="int" >        4       22       23       24       25 </v>
    <v type="int" >        4       23       24       25       25 </v>
    <v type="int" >        4       22       23       23       25 </v>
    <v type="int" >        4        9       18       19       21 </v>
    <v type="int" >        4        8        9       18       19 </v>
    <v type="int" >        4        8        8        9       18 </v>
    <v type="int" >        4        9       18       20       21 </v>
    <v type="int" >        4        9        9       18       20 </v>
    <v type="int" >        4        8        9        9       18 </v>
    <v type="int" >        4        9       20       21       21 </v>
    <v type="int" >        4        9        9       20       21 </v>
    <v type="int" >        8        9        9        9       20 </v>
    <v type="int" >        4        9       20       20       21 </v>
    <v type="int" >        4        9        9       20       20 </v>
    <v type="int" >        4        8       19       20       21 </v>
    <v type="int" >        4        8        9       20       21 </v>
    <v type="int" >        4        8        9        9       20 </v>
    <v type="int" >        4        8       18       19       20 </v>
    <v type="int" >        4        8        8       18       20 </v>
    <v type="int" >        4        8        8        9       20 </v>
    <v type="int" >        4        7       17       18       19 </v>
    <v type="int" >        4        7        8       18       19 </v>
    <v type="int" >        4        7        8        8       18 </v>
    <v type="int" >        4        7       16       17       18 </v>
    <v type="int" >        4        7        7       16       18 </v>
    <v type="int" >        4        7        7        8       18 </v>
    <v type="int" >        4        8       16       17       19 </v>
    <v type="int" >        4        7        8       16       17 </v>
    <v type="int" >        4        7        7        8       16 </v>
    <v type="int" >        4        8       16       18       19 </v>
    <v type="int" >        4        8        8       16       18 </v>
    <v type="int" >        4        7        8        8       16 </v>
    <v type="int" >        4        5        6       12       14 </v>
    <v type="int" >        4        5        5        6       12 </v>
    <v type="int" >        4        2        5        5        6 </v>
    <v type="int" >        4        5        6        6       14 </v>
    <v type="int" >        4        3        5        6        6 </v>
    <v type="int" >        4        2        3        5        6 </v>
    <v type="int" >        2        6        6       14       14 </v>
    <v type="int" >        4        6        6        6       14 </v>
    <v type="int" >        4        3        6        6        6 </v>
    <v type="int" >        2        3        3        6        6 </v>
    <v type="int" >        4        4        5       10       12 </v>
    <v type="int" >        4        4        5        5       12 </v>
    <v type="int" >        4        2        4        5        5 </v>
    <v type="int" >        4        4        4        5       10 </v>
    <v type="int" >        4        1        4        4        5 </v>
    <v type="int" >        4        1        2        4        5 </v>
    <v type="int" >        4        2        5        6       15 </v>
    <v type="int" >        4        2        5       13       15 </v>
    <v type="int" >        4        2        3        6       15 </v>
    <v type="int" >        4        3        6        6       15 </v>
    <v type="int" >        4        3        6       15       15 </v>
    <v type="int" >        4        3        3        6       15 </v>
    <v type="int" >        4        3        5        6       13 </v>
    <v type="int" >        4        3        6       13       15 </v>
    <v type="int" >        4        2        3        5       13 </v>
    <v type="int" >        4        2        4        5       11 </v>
    <v type="int" >        4        2        5       11       13 </v>
    <v type="int" >        4        1        2        4       11 </v>
    <v type="int" >        4        1        4        5       13 </v>
    <v type="int" >        4        1        4       11       13 </v>
    <v type="int" >        4        1        2        5       13 </v>
   </varray>
   <i name="volumeweight">      0.00133333 </i>
  </kpoints>
  <scstep>
   <time name="total">  145.53  146.98</time>
   <energy>
    <i name="e_fr_energy">   -106.55693218 </i>
    <i name="e_wo_entrp">   -106.55693218 </i>
    <i name="e_0_energy">   -106.55693218 </i>
   </energy>
  </scstep>
  <scstep>
   <time name="total">  135.06  136.36</time>
   <energy>
    <i name="e_fr_energy">   -239.29657293 </i>
    <i name="e_wo_entrp">   -239.29657293 </i>
    <i name="e_0_energy">   -239.29657293 </i>
   </energy>
  </scstep>
  <scstep>
   <time name="total">  137.80  139.21</time>
   <energy>
    <i name="e_fr_energy">   -236.28680001 </i>
    <i name="e_wo_entrp">   -236.28680001 </i>
    <i name="e_0_energy">   -236.28680001 </i>
   </energy>
  </scstep>
  <scstep>
   <time name="total">  138.88  140.22</time>
   <energy>
    <i name="e_fr_energy">   -228.24271029 </i>
    <i name="e_wo_entrp">   -228.24271029 </i>
    <i name="e_0_energy">   -228.24271029 </i>
   </energy>
  </scstep>
  <scstep>
   <time name="total">  144.42  145.75</time>
   <energy>
    <i name="e_fr_energy">   -227.51665933 </i>
    <i name="e_wo_entrp">   -227.51665933 </i>
    <i name="e_0_energy">   -227.51665933 </i>
   </energy>
  </scstep>
  <scstep>
   <time name="total">  142.45  143.92</time>
   <energy>
    <i name="e_fr_energy">   -227.45415447 </i>
    <i name="e_wo_entrp">   -227.45415447 </i>
    <i name="e_0_energy">   -227.45415447 </i>
   </energy>
  </scstep>
  <scstep>
   <time name="total">  147.38  148.77</time>
   <energy>
    <i name="e_fr_energy">   -227.38509593 </i>
    <i name="e_wo_entrp">   -227.38509593 </i>
    <i name="e_0_energy">   -227.38509593 </i>
   </energy>
  </scstep>
  <scstep>
   <time name="total">  128.88  130.24</time>
   <energy>
    <i name="e_fr_energy">   -227.37019244 </i>
    <i name="e_wo_entrp">   -227.37019244 </i>
    <i name="e_0_energy">   -227.37019244 </i>
   </energy>
  </scstep>
  <scstep>
   <time name="total">  138.81  140.17</time>
   <energy>
    <i name="e_fr_energy">   -227.37581635 </i>
    <i name="e_wo_entrp">   -227.37581635 </i>
    <i name="e_0_energy">   -227.37581635 </i>
   </energy>
  </scstep>
  <scstep>
   <time name="total">  139.50  140.97</time>
   <energy>
    <i name="e_fr_energy">   -227.37525571 </i>
    <i name="e_wo_entrp">   -227.37525571 </i>
    <i name="e_0_energy">   -227.37525571 </i>
   </energy>
  </scstep>
  <scstep>
   <time name="total">  137.51  138.96</time>
   <energy>
    <i name="e_fr_energy">   -227.37524506 </i>
    <i name="e_wo_entrp">   -227.37524506 </i>
    <i name="e_0_energy">   -227.37524506 </i>
   </energy>
  </scstep>
  <scstep>
   <time name="total">  135.34  136.65</time>
   <energy>
    <i name="e_fr_energy">   -227.37525109 </i>
    <i name="e_wo_entrp">   -227.37525109 </i>
    <i name="e_0_energy">   -227.37525109 </i>
   </energy>
  </scstep>
  <scstep>
   <time name="total">  136.12  137.47</time>
   <energy>
    <i name="e_fr_energy">   -227.37523746 </i>
    <i name="e_wo_entrp">   -227.37523746 </i>
    <i name="e_0_energy">   -227.37523746 </i>
   </energy>
  </scstep>
  <kpoints>
[...]
     <r>     7.2890     0.0000     0.0000     0.0000     0.0000     0.0000     0.0000 </r>
     <r>     7.2990     0.0000     0.0000     0.0000     0.0000     0.0000     0.0000 </r>
    </set>
   </array>
  </conductivity>
  <dos>
   <i name="efermi">      2.30451087 </i>
   <total>
    <array>
     <dimension dim="1">gridpoints</dimension>
     <dimension dim="2">spin</dimension>
     <field>energy</field>
     <field>total</field>
     <field>integrated</field>
     <set>
      <set comment="spin 1">
       <r>   -11.0262     0.0000     0.0000 </r>
       <r>   -10.9645     0.0000     0.0000 </r>
       <r>   -10.9029     0.0000     0.0000 </r>
       <r>   -10.8413     0.0000     0.0000 </r>
       <r>   -10.7796     0.0000     0.0000 </r>
       <r>   -10.7180     0.0000     0.0000 </r>
       <r>   -10.6563     0.0000     0.0000 </r>
       <r>   -10.5947     0.0000     0.0000 </r>
       <r>   -10.5330     0.0000     0.0000 </r>
       <r>   -10.4714     0.0000     0.0000 </r>
       <r>   -10.4097     0.0000     0.0000 </r>
       <r>   -10.3481     0.0000     0.0000 </r>
       <r>   -10.2865     0.0000     0.0000 </r>
       <r>   -10.2248     0.0000     0.0000 </r>
       <r>   -10.1632     0.0000     0.0000 </r>
       <r>   -10.1015     0.0000     0.0000 </r>
       <r>   -10.0399     0.0000     0.0000 </r>
       <r>    -9.9782     3.2506     0.0600 </r>
       <r>    -9.9166     4.9460     0.3109 </r>
       <r>    -9.8549    11.5184     0.7947 </r>
       <r>    -9.7933     7.5656     1.3142 </r>
       <r>    -9.7316     5.7423     1.7757 </r>
       <r>    -9.6700    11.4393     2.2774 </r>
       <r>    -9.6084    13.2201     2.9601 </r>
       <r>    -9.5467    14.0263     3.8249 </r>
       <r>    -9.4851    12.5773     4.5885 </r>
       <r>    -9.4234    20.7750     5.5223 </r>
       <r>    -9.3618    10.5623     6.5480 </r>
       <r>    -9.3001    15.0629     7.3315 </r>
       <r>    -9.2385    14.8537     8.2574 </r>
       <r>    -9.1768    27.2189     9.5490 </r>
       <r>    -9.1152    33.0948    11.2621 </r>
       <r>    -9.0536    13.1663    12.6479 </r>
       <r>    -8.9919    24.9215    13.4036 </r>
       <r>    -8.9303    23.8468    15.1371 </r>
       <r>    -8.8686    16.6088    16.3176 </r>
       <r>    -8.8070    43.7481    18.2160 </r>
       <r>    -8.7453    30.1788    20.3412 </r>
       <r>    -8.6837    32.4517    22.1767 </r>
       <r>    -8.6220    39.9727    24.3501 </r>
       <r>    -8.5604    50.8603    26.7915 </r>
       <r>    -8.4988    59.6606    30.2580 </r>
       <r>    -8.4371    53.1853    33.7702 </r>
       <r>    -8.3755    57.4390    37.1572 </r>
       <r>    -8.3138    54.3001    40.3362 </r>
       <r>    -8.2522    45.0565    42.5209 </r>
       <r>    -8.1905    64.3138    45.5412 </r>
       <r>    -8.1289    80.0136    49.5289 </r>
       <r>    -8.0672    52.9396    52.6624 </r>
       <r>    -8.0056    65.2657    56.0741 </r>
       <r>    -7.9439    82.9806    60.6480 </r>
       <r>    -7.8823    26.8519    63.8113 </r>
       <r>    -7.8207     0.0000    64.0000 </r>
       <r>    -7.7590     0.0000    64.0000 </r>
       <r>    -7.6974     0.0000    64.0000 </r>
       <r>    -7.6357     0.0000    64.0000 </r>
       <r>    -7.5741     0.0000    64.0000 </r>
       <r>    -7.5124     0.0000    64.0000 </r>
       <r>    -7.4508     0.0000    64.0000 </r>
       <r>    -7.3891     0.0000    64.0000 </r>
       <r>    -7.3275     0.0000    64.0000 </r>
       <r>    -7.2659     0.0000    64.0000 </r>
       <r>    -7.2042     0.0000    64.0000 </r>
       <r>    -7.1426     0.0000    64.0000 </r>
       <r>    -7.0809     0.0000    64.0000 </r>
       <r>    -7.0193     0.0000    64.0000 </r>
       <r>    -6.9576     0.0000    64.0000 </r>
       <r>    -6.8960     0.0000    64.0000 </r>
       <r>    -6.8343     0.0000    64.0000 </r>
       <r>    -6.7727     0.0000    64.0000 </r>
       <r>    -6.7110     0.0000    64.0000 </r>
       <r>    -6.6494     0.0000    64.0000 </r>
       <r>    -6.5878     0.0000    64.0000 </r>
       <r>    -6.5261     0.0000    64.0000 </r>
       <r>    -6.4645     0.0000    64.0000 </r>
       <r>    -6.4028     0.0000    64.0000 </r>
       <r>    -6.3412     0.0000    64.0000 </r>
       <r>    -6.2795     0.0000    64.0000 </r>
       <r>    -6.2179     0.0000    64.0000 </r>
       <r>    -6.1562     0.0000    64.0000 </r>
       <r>    -6.0946     0.0000    64.0000 </r>
       <r>    -6.0330     0.0000    64.0000 </r>
       <r>    -5.9713     0.0000    64.0000 </r>
       <r>    -5.9097     0.0000    64.0000 </r>
       <r>    -5.8480     0.0000    64.0000 </r>
       <r>    -5.7864     0.0000    64.0000 </r>
       <r>    -5.7247     0.0000    64.0000 </r>
       <r>    -5.6631     0.0000    64.0000 </r>
       <r>    -5.6014     0.0000    64.0000 </r>
       <r>    -5.5398     0.0000    64.0000 </r>
       <r>    -5.4782     0.0000    64.0000 </r>
       <r>    -5.4165     0.0000    64.0000 </r>
       <r>    -5.3549     0.0000    64.0000 </r>
       <r>    -5.2932     0.0000    64.0000 </r>
       <r>    -5.2316     0.0000    64.0000 </r>
       <r>    -5.1699     0.0000    64.0000 </r>
       <r>    -5.1083     0.0000    64.0000 </r>
       <r>    -5.0466     0.0000    64.0000 </r>
       <r>    -4.9850     0.0000    64.0000 </r>
       <r>    -4.9233     0.0000    64.0000 </r>
       <r>    -4.8617     0.0000    64.0000 </r>
       <r>    -4.8001     0.0000    64.0000 </r>
       <r>    -4.7384     0.0000    64.0000 </r>
       <r>    -4.6768     0.0000    64.0000 </r>
       <r>    -4.6151     0.0000    64.0000 </r>
       <r>    -4.5535     0.0000    64.0000 </r>
       <r>    -4.4918     0.0000    64.0000 </r>
       <r>    -4.4302     0.0000    64.0000 </r>
       <r>    -4.3685     0.0000    64.0000 </r>
       <r>    -4.3069     0.9906    64.0091 </r>
       <r>    -4.2453     5.1982    64.1832 </r>
       <r>    -4.1836    16.1764    64.7217 </r>
       <r>    -4.1220    29.0816    66.1076 </r>
       <r>    -4.0603    74.0634    69.0216 </r>
       <r>    -3.9987    76.2936    73.1213 </r>
       <r>    -3.9370   114.3114    78.5946 </r>
       <r>    -3.8754   104.6490    84.9259 </r>
       <r>    -3.8137    54.0996    88.1551 </r>
       <r>    -3.7521    83.4522    92.5646 </r>
       <r>    -3.6905    24.3773    94.4997 </r>
       <r>    -3.6288    18.6450    95.6404 </r>
       <r>    -3.5672    52.6465    97.7087 </r>
       <r>    -3.5055    28.5008   100.0066 </r>
       <r>    -3.4439    19.5716   101.4625 </r>
       <r>    -3.3822    15.8672   102.4687 </r>
       <r>    -3.3206    29.1402   103.6253 </r>
       <r>    -3.2589    31.8763   106.3276 </r>
       <r>    -3.1973    12.6559   107.3421 </r>
       <r>    -3.1356    12.6209   108.1773 </r>
       <r>    -3.0740     7.8932   108.7378 </r>
       <r>    -3.0124    12.1523   109.3329 </r>
       <r>    -2.9507    12.6506   110.1121 </r>
       <r>    -2.8891    18.4887   111.1105 </r>
       <r>    -2.8274    13.8454   112.0181 </r>
       <r>    -2.7658    13.2744   112.8547 </r>
       <r>    -2.7041    13.0695   113.6619 </r>
       <r>    -2.6425    14.0444   114.4737 </r>
       <r>    -2.5808    11.0584   115.2131 </r>
       <r>    -2.5192     7.0727   115.8052 </r>
       <r>    -2.4576     6.4069   116.1874 </r>
       <r>    -2.3959     7.2446   116.6038 </r>
       <r>    -2.3343     8.3151   117.0821 </r>
       <r>    -2.2726    12.0334   117.6779 </r>
       <r>    -2.2110    11.0650   118.3913 </r>
       <r>    -2.1493     7.8736   118.9884 </r>
       <r>    -2.0877     8.0046   119.4616 </r>
       <r>    -2.0260     6.4089   119.9597 </r>
       <r>    -1.9644     4.7265   120.2167 </r>
       <r>    -1.9028     4.1809   120.4909 </r>
       <r>    -1.8411     3.8008   120.7341 </r>
       <r>    -1.7795     3.8193   120.9673 </r>
       <r>    -1.7178     4.1585   121.2097 </r>
       <r>    -1.6562     7.3039   121.5530 </r>
       <r>    -1.5945     9.7800   122.1139 </r>
       <r>    -1.5329     8.4968   122.7113 </r>
       <r>    -1.4712     6.7695   123.1523 </r>
       <r>    -1.4096     5.8428   123.5368 </r>
       <r>    -1.3479     8.9414   123.9905 </r>
       <r>    -1.2863    27.0088   125.1013 </r>
       <r>    -1.2247    31.1030   126.9008 </r>
       <r>    -1.1630    56.0122   129.6881 </r>
       <r>    -1.1014    42.7888   132.5074 </r>
       <r>    -1.0397    54.1139   135.2493 </r>
       <r>    -0.9781    46.5881   138.5541 </r>
       <r>    -0.9164    38.9030   141.0477 </r>
       <r>    -0.8548    38.1578   143.1112 </r>
       <r>    -0.7931    36.1181   145.1902 </r>
       <r>    -0.7315    29.7312   147.0510 </r>
       <r>    -0.6699    36.6926   149.1605 </r>
       <r>    -0.6082    38.9508   151.2688 </r>
       <r>    -0.5466    39.3142   153.7785 </r>
       <r>    -0.4849    42.6744   156.2307 </r>
       <r>    -0.4233    50.9965   159.1558 </r>
       <r>    -0.3616    48.7796   162.1404 </r>
       <r>    -0.3000    54.2466   165.3186 </r>
       <r>    -0.2383    47.6264   168.2695 </r>
       <r>    -0.1767    46.6200   171.0148 </r>
       <r>    -0.1150    59.2959   174.3667 </r>
       <r>    -0.0534    63.0408   177.9214 </r>
       <r>     0.0082    53.9468   181.4142 </r>
       <r>     0.0699    48.6695   184.5478 </r>
       <r>     0.1315    59.3251   187.4914 </r>
       <r>     0.1932    55.7544   190.9566 </r>
       <r>     0.2548    41.7191   193.4404 </r>
       <r>     0.3165    57.5907   196.4642 </r>
       <r>     0.3781    51.7158   199.5940 </r>
       <r>     0.4398    59.7453   202.8577 </r>
       <r>     0.5014    61.8552   206.1795 </r>
       <r>     0.5630    52.7678   209.7522 </r>
       <r>     0.6247    51.1187   212.5287 </r>
       <r>     0.6863    50.1696   215.6057 </r>
       <r>     0.7480    47.6191   218.3806 </r>
       <r>     0.8096    41.5816   221.1423 </r>
       <r>     0.8713    57.3063   223.9159 </r>
       <r>     0.9329    40.0184   226.8672 </r>
       <r>     0.9946    39.0452   229.1903 </r>
       <r>     1.0562    44.2463   231.7539 </r>
       <r>     1.1178    50.6488   234.5580 </r>
       <r>     1.1795    56.3225   237.2881 </r>
       <r>     1.2411    44.9947   240.1888 </r>
       <r>     1.3028    33.2182   242.6301 </r>
       <r>     1.3644    24.8299   244.3667 </r>
       <r>     1.4261    26.0862   245.8269 </r>
       <r>     1.4877    20.8994   247.2100 </r>
       <r>     1.5494    22.3123   248.5679 </r>
       <r>     1.6110    18.9529   249.7632 </r>
       <r>     1.6727    12.0634   250.6326 </r>
       <r>     1.7343    11.2095   251.3353 </r>
       <r>     1.7959    22.2781   252.5223 </r>
       <r>     1.8576     8.7643   253.3178 </r>
       <r>     1.9192     7.7231   253.7825 </r>
       <r>     1.9809    14.2152   254.4779 </r>
       <r>     2.0425     9.4662   255.2155 </r>
       <r>     2.1042     4.7304   255.6274 </r>
       <r>     2.1658     3.7003   255.8405 </r>
       <r>     2.2275     0.7109   255.9886 </r>
       <r>     2.2891     0.0000   256.0000 </r>
       <r>     2.3507     0.0000   256.0000 </r>
       <r>     2.4124     0.0013   256.0000 </r>
       <r>     2.4740     0.0048   256.0002 </r>
       <r>     2.5357     0.0104   256.0007 </r>
       <r>     2.5973     0.0184   256.0015 </r>
       <r>     2.6590     0.0285   256.0030 </r>
       <r>     2.7206     0.0408   256.0051 </r>
       <r>     2.7823     0.0553   256.0080 </r>
       <r>     2.8439     0.0721   256.0120 </r>
       <r>     2.9055     0.0911   256.0170 </r>
       <r>     2.9672     0.1122   256.0232 </r>
       <r>     3.0288     0.1356   256.0309 </r>
       <r>     3.0905     0.1612   256.0400 </r>
       <r>     3.1521     0.2824   256.0522 </r>
       <r>     3.2138     0.9706   256.0882 </r>
       <r>     3.2754     1.7381   256.1719 </r>
       <r>     3.3371     2.4538   256.3014 </r>
       <r>     3.3987     5.9459   256.5620 </r>
       <r>     3.4604     5.7809   256.8843 </r>
       <r>     3.5220     8.0536   257.3071 </r>
       <r>     3.5836     6.5553   257.8042 </r>
       <r>     3.6453     7.9206   258.2489 </r>
       <r>     3.7069     8.6398   258.7513 </r>
       <r>     3.7686    12.3576   259.4382 </r>
       <r>     3.8302    25.0633   260.4349 </r>
       <r>     3.8919    19.0412   261.6953 </r>
       <r>     3.9535    29.6647   263.2814 </r>
       <r>     4.0152    33.0441   265.1492 </r>
       <r>     4.0768    22.2567   266.8062 </r>
       <r>     4.1384    21.7775   268.1388 </r>
       <r>     4.2001    26.5729   269.6207 </r>
       <r>     4.2617    44.4107   271.7161 </r>
       <r>     4.3234    45.0709   274.4249 </r>
       <r>     4.3850    55.7047   276.8638 </r>
       <r>     4.4467    53.0567   279.9554 </r>
       <r>     4.5083    57.4731   282.9553 </r>
       <r>     4.5700    65.3436   286.7031 </r>
       <r>     4.6316    68.3884   290.7132 </r>
       <r>     4.6932    59.5873   294.4232 </r>
       <r>     4.7549    57.9524   298.3802 </r>
       <r>     4.8165    46.0474   301.5321 </r>
       <r>     4.8782    42.6546   304.4081 </r>
       <r>     4.9398    43.7252   307.0339 </r>
       <r>     5.0015    36.6703   309.4596 </r>
       <r>     5.0631    33.4163   311.5872 </r>
       <r>     5.1248    35.3985   313.6460 </r>
       <r>     5.1864    33.1283   315.7104 </r>
       <r>     5.2481    22.6190   317.5099 </r>
       <r>     5.3097    23.3233   318.7556 </r>
       <r>     5.3713    40.5860   320.7323 </r>
       <r>     5.4330    24.3471   322.6536 </r>
       <r>     5.4946    32.4605   324.4608 </r>
       <r>     5.5563    33.8433   326.3881 </r>
       <r>     5.6179    20.0038   327.8804 </r>
       <r>     5.6796    17.1860   329.0022 </r>
       <r>     5.7412    22.6090   330.3159 </r>
       <r>     5.8029    21.7089   331.6684 </r>
       <r>     5.8645    15.6739   332.7457 </r>
       <r>     5.9261    12.6764   333.6177 </r>
       <r>     5.9878    10.1203   334.3162 </r>
       <r>     6.0494     8.1388   334.8987 </r>
       <r>     6.1111     4.9427   335.2919 </r>
       <r>     6.1727     3.8146   335.5688 </r>
       <r>     6.2344     2.3926   335.7455 </r>
       <r>     6.2960     1.4684   335.8677 </r>
       <r>     6.3577     0.8544   335.9310 </r>
       <r>     6.4193     0.5296   335.9998 </r>
       <r>     6.4810     0.0000   336.0000 </r>
       <r>     6.5426     0.0000   336.0000 </r>
       <r>     6.6042     0.0000   336.0000 </r>
       <r>     6.6659     0.0000   336.0000 </r>
       <r>     6.7275     0.0000   336.0000 </r>
       <r>     6.7892     0.0000   336.0000 </r>
       <r>     6.8508     0.0000   336.0000 </r>
       <r>     6.9125     0.0000   336.0000 </r>
       <r>     6.9741     0.0000   336.0000 </r>
       <r>     7.0358     0.0000   336.0000 </r>
       <r>     7.0974     0.0000   336.0000 </r>
       <r>     7.1590     0.0000   336.0000 </r>
       <r>     7.2207     0.0000   336.0000 </r>
       <r>     7.2823     0.0000   336.0000 </r>
       <r>     7.3440     0.0000   336.0000 </r>
       <r>     7.4056     0.0000   336.0000 </r>
       <r>     7.4673     0.0000   336.0000 </r>
      </set>
     </set>
    </array>
   </total>
  </dos>
 </calculation>
 <structure name="finalpos" >
  <crystal>
   <varray name="basis" >
    <v>      11.69970183       0.00000000       0.00000000 </v>
    <v>       0.00000000      11.47320021       0.00000000 </v>
    <v>       0.00000000       0.00000000      11.47320021 </v>
   </varray>
   <i name="volume">   1540.08233169 </i>
   <varray name="rec_basis" >
    <v>       0.08547226       0.00000000       0.00000000 </v>
    <v>       0.00000000       0.08715964       0.00000000 </v>
    <v>       0.00000000       0.00000000       0.08715964 </v>
   </varray>
  </crystal>
  <varray name="positions" >
   <v>       0.00000000       0.00000000       0.00000000 </v>
   <v>       0.00000000       0.00000000       0.50000000 </v>
   <v>       0.00000000       0.50000000       0.00000000 </v>
   <v>       0.00000000       0.50000000       0.50000000 </v>
   <v>       0.50000000       0.00000000       0.00000000 </v>
   <v>       0.50000000       0.00000000       0.50000000 </v>
   <v>       0.50000000       0.50000000       0.00000000 </v>
   <v>       0.50000000       0.50000000       0.50000000 </v>
   <v>       0.25000000       0.25000000       0.00000000 </v>
   <v>       0.25000000       0.25000000       0.50000000 </v>
   <v>       0.25000000       0.75000000       0.00000000 </v>
   <v>       0.25000000       0.75000000       0.50000000 </v>
   <v>       0.75000000       0.25000000       0.00000000 </v>
   <v>       0.75000000       0.25000000       0.50000000 </v>
   <v>       0.75000000       0.75000000       0.00000000 </v>
   <v>       0.75000000       0.75000000       0.50000000 </v>
   <v>       0.25000000       0.00000000       0.25000000 </v>
   <v>       0.25000000       0.00000000       0.75000000 </v>
   <v>       0.25000000       0.50000000       0.25000000 </v>
   <v>       0.25000000       0.50000000       0.75000000 </v>
   <v>       0.75000000       0.00000000       0.25000000 </v>
   <v>       0.75000000       0.00000000       0.75000000 </v>
   <v>       0.75000000       0.50000000       0.25000000 </v>
   <v>       0.75000000       0.50000000       0.75000000 </v>
   <v>       0.00000000       0.25000000       0.25000000 </v>
   <v>       0.00000000       0.25000000       0.75000000 </v>
   <v>       0.00000000       0.75000000       0.25000000 </v>
   <v>       0.00000000       0.75000000       0.75000000 </v>
   <v>       0.50000000       0.25000000       0.25000000 </v>
   <v>       0.50000000       0.25000000       0.75000000 </v>
   <v>       0.50000000       0.75000000       0.25000000 </v>
   <v>       0.50000000       0.75000000       0.75000000 </v>
   <v>       0.12500000       0.12500000       0.12500000 </v>
   <v>       0.12500000       0.12500000       0.62500000 </v>
   <v>       0.12500000       0.62500000       0.12500000 </v>
   <v>       0.12500000       0.62500000       0.62500000 </v>
   <v>       0.62500000       0.12500000       0.12500000 </v>
   <v>       0.62500000       0.12500000       0.62500000 </v>
   <v>       0.62500000       0.62500000       0.12500000 </v>
   <v>       0.62500000       0.62500000       0.62500000 </v>
   <v>       0.37500000       0.12500000       0.37500000 </v>
   <v>       0.37500000       0.12500000       0.87500000 </v>
   <v>       0.37500000       0.62500000       0.37500000 </v>
   <v>       0.37500000       0.62500000       0.87500000 </v>
   <v>       0.87500000       0.12500000       0.37500000 </v>
   <v>       0.87500000       0.12500000       0.87500000 </v>
   <v>       0.87500000       0.62500000       0.37500000 </v>
   <v>       0.87500000       0.62500000       0.87500000 </v>
   <v>       0.37500000       0.37500000       0.12500000 </v>
   <v>       0.37500000       0.37500000       0.62500000 </v>
   <v>       0.37500000       0.87500000       0.12500000 </v>
   <v>       0.37500000       0.87500000       0.62500000 </v>
   <v>       0.87500000       0.37500000       0.12500000 </v>
   <v>       0.87500000       0.37500000       0.62500000 </v>
   <v>       0.87500000       0.87500000       0.12500000 </v>
   <v>       0.87500000       0.87500000       0.62500000 </v>
   <v>       0.12500000       0.37500000       0.37500000 </v>
   <v>       0.12500000       0.37500000       0.87500000 </v>
   <v>       0.12500000       0.87500000       0.37500000 </v>
   <v>       0.12500000       0.87500000       0.87500000 </v>
   <v>       0.62500000       0.37500000       0.37500000 </v>
   <v>       0.62500000       0.37500000       0.87500000 </v>
   <v>       0.62500000       0.87500000       0.37500000 </v>
   <v>       0.62500000       0.87500000       0.87500000 </v>
  </varray>
 </structure>
</modeling>
