GaAs                                    
   4.50000000000000     
     1.279410    0.000000   -0.000000
    -0.000000    1.279410   -0.000000
     0.000000   -0.000000    1.279410
   As   Ga
     4     4
Direct
  0.000000  0.000000  1.000000
  0.500000  0.500000  1.000000
  0.500000  0.000000  0.500000
  1.000000  0.500000  0.500000
  0.250000  0.250000  0.250000
  0.750000  0.250000  0.750000
  0.750000  0.750000  0.250000
  0.250000  0.750000  0.750000
 
   56   56   56
 -.66910460340E+02 -.56241545817E+02 -.27215841646E+02 0.12393231352E+02 0.52892051329E+02
 0.85793390493E+02 0.10590912952E+03 0.11194631247E+03 0.10591733453E+03 0.91953598936E+02
 0.74981143353E+02 0.59340818767E+02 0.46441424632E+02 0.36054895906E+02 0.27859652070E+02
 0.21512874208E+02 0.16670396169E+02 0.13007202763E+02 0.10240921931E+02 0.81471254784E+01
 0.65599480689E+01 0.53611112563E+01 0.44647052050E+01 0.38044061230E+01 0.33269236767E+01
 0.29910328800E+01 0.27680276182E+01 0.26403246396E+01 0.25987122603E+01 0.26403246396E+01
 0.27680276182E+01 0.29910328800E+01 0.33269236767E+01 0.38044061230E+01 0.44647052050E+01
 0.53611112563E+01 0.65599480689E+01 0.81471254784E+01 0.10240921931E+02 0.13007202763E+02
 0.16670396169E+02 0.21512874208E+02 0.27859652070E+02 0.36054895906E+02 0.46441424632E+02
 0.59340818767E+02 0.74981143353E+02 0.91953598936E+02 0.10591733453E+03 0.11194631247E+03
 0.10590912952E+03 0.85793390493E+02 0.52892051329E+02 0.12393231352E+02 -.27215841646E+02
 -.56241545817E+02 -.56241545817E+02 -.46071155722E+02 -.18420241452E+02 0.19251416852E+02
 0.57639125289E+02 0.88597288640E+02 0.10715848651E+03 0.11211847172E+03 0.10547598909E+03
 0.91285934274E+02 0.74366413453E+02 0.58905831554E+02 0.46151501339E+02 0.35872851546E+02
 0.27755722728E+02 0.21463819010E+02 0.16658389641E+02 0.13019049696E+02 0.10267376024E+02
 0.81820947636E+01 0.65996244010E+01 0.54031833198E+01 0.45077724424E+01 0.38476230575E+01
 0.33698271768E+01 0.30334559816E+01 0.28100148640E+01 0.26820311871E+01 0.26403246396E+01
 0.26820311871E+01 0.28100148640E+01 0.30334559816E+01 0.33698271768E+01 0.38476230575E+01
 0.45077724424E+01 0.54031833198E+01 0.65996244010E+01 0.81820947636E+01 0.10267376024E+02
 0.13019049696E+02 0.16658389641E+02 0.21463819010E+02 0.27755722728E+02 0.35872851546E+02
 0.46151501339E+02 0.58905831554E+02 0.74366413453E+02 0.91285934274E+02 0.10547598909E+03
 0.11211847172E+03 0.10715848651E+03 0.88597288640E+02 0.57639125289E+02 0.19251416852E+02
 -.18420241452E+02 -.46071155722E+02 -.27215841646E+02 -.18420241452E+02 0.54387935795E+01
 0.37765682278E+02 0.70329591618E+02 0.95931907898E+02 0.11022143088E+03 0.11224572698E+03
 0.10396879649E+03 0.89230802381E+02 0.72542150289E+02 0.57623116228E+02 0.45295493172E+02
 0.35334929870E+02 0.27448785506E+02 0.21319580763E+02 0.16624289936E+02 0.13056084869E+02
 0.10348162314E+02 0.82885574402E+01 0.67204412910E+01 0.55314552694E+01 0.46392834714E+01
 0.39797945966E+01 0.35012191840E+01 0.31635150431E+01 0.29388229543E+01 0.28100148640E+01
 0.27680276182E+01 0.28100148640E+01 0.29388229543E+01 0.31635150431E+01 0.35012191840E+01
 0.39797945966E+01 0.46392834714E+01 0.55314552694E+01 0.67204412910E+01 0.82885574402E+01
 0.10348162314E+02 0.13056084869E+02 0.16624289936E+02 0.21319580763E+02 0.27448785506E+02
 0.35334929870E+02 0.45295493172E+02 0.57623116228E+02 0.72542150289E+02 0.89230802381E+02
 0.10396879649E+03 0.11224572698E+03 0.11022143088E+03 0.95931907898E+02 0.70329591618E+02
 0.37765682278E+02 0.54387935795E+01 -.18420241452E+02 0.12393231352E+02 0.19251416852E+02
 0.37765682278E+02 0.62557792840E+02 0.86916133686E+02 0.10499239341E+03 0.11332623801E+03
 0.11133968746E+03 0.10095346798E+03 0.85690703984E+02 0.69594762728E+02 0.55558919188E+02
 0.43914544384E+02 0.34465824642E+02 0.26953435118E+02 0.21088869620E+02 0.16573683867E+02
 0.13122588136E+02 0.10487401436E+02 0.84711362733E+01 0.69278447771E+01 0.57522810947E+01
 0.48664297911E+01 0.42088068359E+01 0.37295266745E+01 0.33900287927E+01 0.31635150431E+01
 0.30334559816E+01 0.29910328800E+01 0.30334559816E+01 0.31635150431E+01 0.33900287927E+01
 0.37295266745E+01 0.42088068359E+01 0.48664297911E+01 0.57522810947E+01 0.69278447771E+01
 0.84711362733E+01 0.10487401436E+02 0.13122588136E+02 0.16573683867E+02 0.21088869620E+02
 0.26953435118E+02 0.34465824642E+02 0.43914544384E+02 0.55558919188E+02 0.69594762728E+02
 0.85690703984E+02 0.10095346798E+03 0.11133968746E+03 0.11332623801E+03 0.10499239341E+03
 0.86916133686E+02 0.62557792840E+02 0.37765682278E+02 0.19251416852E+02 0.52892051329E+02
 0.57639125289E+02 0.70329591618E+02 0.86916133686E+02 0.10235921603E+03 0.11231392773E+03
 0.11433009457E+03 0.10826702013E+03 0.95999272207E+02 0.80668739516E+02 0.65697103371E+02
 0.52820843249E+02 0.42076075488E+02 0.33306454208E+02 0.26293930773E+02 0.20785983648E+02
 0.16515513803E+02 0.13225334898E+02 0.10691806562E+02 0.87377181271E+01 0.72314657668E+01
 0.60771389949E+01 0.52023652048E+01 0.45492122093E+01 0.40704213830E+01 0.37295266745E+01
 0.35012191840E+01 0.33698271768E+01 0.33269236767E+01 0.33698271768E+01 0.35012191840E+01
 0.37295266745E+01 0.40704213830E+01 0.45492122093E+01 0.52023652048E+01 0.60771389949E+01
 0.72314657668E+01 0.87377181271E+01 0.10691806562E+02 0.13225334898E+02 0.16515513803E+02
 0.20785983648E+02 0.26293930773E+02 0.33306454208E+02 0.42076075488E+02 0.52820843249E+02
 0.65697103371E+02 0.80668739516E+02 0.95999272207E+02 0.10826702013E+03 0.11433009457E+03
 0.11231392773E+03 0.10235921603E+03 0.86916133686E+02 0.70329591618E+02 0.57639125289E+02
 0.85793390493E+02 0.88597288640E+02 0.95931907898E+02 0.10499239341E+03 0.11231392773E+03
 0.11498722765E+03 0.11154439982E+03 0.10227559594E+03 0.88995319624E+02 0.74424565755E+02
 0.61066163279E+02 0.49550892505E+02 0.39870367068E+02 0.31912488918E+02 0.25503571203E+02
 0.20430544713E+02 0.16462058186E+02 0.13373851889E+02 0.10971269271E+02 0.91003948943E+01
 0.76464029679E+01 0.65242293663E+01 0.56680987286E+01 0.50243944827E+01 0.45492122093E+01
 0.42088068359E+01 0.39797945966E+01 0.38476230575E+01 0.38044061230E+01 0.38476230575E+01
 0.39797945966E+01 0.42088068359E+01 0.45492122093E+01 0.50243944827E+01 0.56680987286E+01
 0.65242293663E+01 0.76464029679E+01 0.91003948943E+01 0.10971269271E+02 0.13373851889E+02
 0.16462058186E+02 0.20430544713E+02 0.25503571203E+02 0.31912488918E+02 0.39870367068E+02
 0.49550892505E+02 0.61066163279E+02 0.74424565755E+02 0.88995319624E+02 0.10227559594E+03
 0.11154439982E+03 0.11498722765E+03 0.11231392773E+03 0.10499239341E+03 0.95931907898E+02
 0.88597288640E+02 0.10590912952E+03 0.10715848651E+03 0.11022143088E+03 0.11332623801E+03
 0.11433009457E+03 0.11154439982E+03 0.10434420885E+03 0.93377000592E+02 0.80357365432E+02
 0.67489543874E+02 0.55948660468E+02 0.45913600275E+02 0.37404206121E+02 0.30351121165E+02
 0.24623252686E+02 0.20047194978E+02 0.16429429406E+02 0.13581476128E+02 0.11340263139E+02
 0.95770244983E+01 0.81948131456E+01 0.71200399435E+01 0.62940347352E+01 0.56680987286E+01
 0.52023652048E+01 0.48664297911E+01 0.46392834714E+01 0.45077724424E+01 0.44647052050E+01
 0.45077724424E+01 0.46392834714E+01 0.48664297911E+01 0.52023652048E+01 0.56680987286E+01
 0.62940347352E+01 0.71200399435E+01 0.81948131456E+01 0.95770244983E+01 0.11340263139E+02
 0.13581476128E+02 0.16429429406E+02 0.20047194978E+02 0.24623252686E+02 0.30351121165E+02
 0.37404206121E+02 0.45913600275E+02 0.55948660468E+02 0.67489543874E+02 0.80357365432E+02
 0.93377000592E+02 0.10434420885E+03 0.11154439982E+03 0.11433009457E+03 0.11332623801E+03
 0.11022143088E+03 0.10715848651E+03 0.11194631247E+03 0.11211847172E+03 0.11224572698E+03
 0.11133968746E+03 0.10826702013E+03 0.10227559594E+03 0.93377000592E+02 0.82449714722E+02
 0.71024814937E+02 0.60294378091E+02 0.50596774700E+02 0.42081241835E+02 0.34792346645E+02
 0.28696318777E+02 0.23699249492E+02 0.19665144404E+02 0.16438287550E+02 0.13866687117E+02
 0.11819315305E+02 0.10192490193E+02 0.89067744822E+01 0.78997808148E+01 0.71200399435E+01
 0.65242293663E+01 0.60771389949E+01 0.57522810947E+01 0.55314552694E+01 0.54031833198E+01
 0.53611112563E+01 0.54031833198E+01 0.55314552694E+01 0.57522810947E+01 0.60771389949E+01
 0.65242293663E+01 0.71200399435E+01 0.78997808148E+01 0.89067744822E+01 0.10192490193E+02
 0.11819315305E+02 0.13866687117E+02 0.16438287550E+02 0.19665144404E+02 0.23699249492E+02
 0.28696318777E+02 0.34792346645E+02 0.42081241835E+02 0.50596774700E+02 0.60294378091E+02
 0.71024814937E+02 0.82449714722E+02 0.93377000592E+02 0.10227559594E+03 0.10826702013E+03
 0.11133968746E+03 0.11224572698E+03 0.11211847172E+03 0.10591733453E+03 0.10547598909E+03
 0.10396879649E+03 0.10095346798E+03 0.95999272207E+02 0.88995319624E+02 0.80357365432E+02
 0.71024814937E+02 0.61837533006E+02 0.53164694836E+02 0.45244804220E+02 0.38219359451E+02
 0.32148340782E+02 0.27023316189E+02 0.22780414416E+02 0.19317268125E+02 0.16514039523E+02
 0.14253695852E+02 0.12435458912E+02 0.10978748860E+02 0.98199224372E+01 0.89067744822E+01
 0.81948131456E+01 0.76464029679E+01 0.72314657668E+01 0.69278447771E+01 0.67204412910E+01
 0.65996244010E+01 0.65599480689E+01 0.65996244010E+01 0.67204412910E+01 0.69278447771E+01
 0.72314657668E+01 0.76464029679E+01 0.81948131456E+01 0.89067744822E+01 0.98199224372E+01
 0.10978748860E+02 0.12435458912E+02 0.14253695852E+02 0.16514039523E+02 0.19317268125E+02
 0.22780414416E+02 0.27023316189E+02 0.32148340782E+02 0.38219359451E+02 0.45244804220E+02
 0.53164694836E+02 0.61837533006E+02 0.71024814937E+02 0.80357365432E+02 0.88995319624E+02
 0.95999272207E+02 0.10095346798E+03 0.10396879649E+03 0.10547598909E+03 0.91953598936E+02
 0.91285934274E+02 0.89230802381E+02 0.85690703984E+02 0.80668739516E+02 0.74424565755E+02
 0.67489543874E+02 0.60294378091E+02 0.53164694836E+02 0.46365472617E+02 0.40092813172E+02
 0.34474884759E+02 0.29576073156E+02 0.25403078766E+02 0.21914974462E+02 0.19038438027E+02
 0.16685902665E+02 0.14771639228E+02 0.13221289902E+02 0.11973835518E+02 0.10978748860E+02
 0.10192490193E+02 0.95770244983E+01 0.91003948943E+01 0.87377181271E+01 0.84711362733E+01
 0.82885574402E+01 0.81820947636E+01 0.81471254784E+01 0.81820947636E+01 0.82885574402E+01
 0.84711362733E+01 0.87377181271E+01 0.91003948943E+01 0.95770244983E+01 0.10192490193E+02
 0.10978748860E+02 0.11973835518E+02 0.13221289902E+02 0.14771639228E+02 0.16685902665E+02
 0.19038438027E+02 0.21914974462E+02 0.25403078766E+02 0.29576073156E+02 0.34474884759E+02
 0.40092813172E+02 0.46365472617E+02 0.53164694836E+02 0.60294378091E+02 0.67489543874E+02
 0.74424565755E+02 0.80668739516E+02 0.85690703984E+02 0.89230802381E+02 0.91285934274E+02
 0.74981143353E+02 0.74366413453E+02 0.72542150289E+02 0.69594762728E+02 0.65697103371E+02
 0.61066163279E+02 0.55948660468E+02 0.50596774700E+02 0.45244804220E+02 0.40092813172E+02
 0.35297418975E+02 0.30967407382E+02 0.27162700232E+02 0.23897264606E+02 0.21147146583E+02
 0.18863122820E+02 0.16984920658E+02 0.15452787460E+02 0.14213544475E+02 0.13221289902E+02
 0.12435458912E+02 0.11819315305E+02 0.11340263139E+02 0.10971269271E+02 0.10691806562E+02
 0.10487401436E+02 0.10348162314E+02 0.10267376024E+02 0.10240921931E+02 0.10267376024E+02
 0.10348162314E+02 0.10487401436E+02 0.10691806562E+02 0.10971269271E+02 0.11340263139E+02
 0.11819315305E+02 0.12435458912E+02 0.13221289902E+02 0.14213544475E+02 0.15452787460E+02
 0.16984920658E+02 0.18863122820E+02 0.21147146583E+02 0.23897264606E+02 0.27162700232E+02
 0.30967407382E+02 0.35297418975E+02 0.40092813172E+02 0.45244804220E+02 0.50596774700E+02
 0.55948660468E+02 0.61066163279E+02 0.65697103371E+02 0.69594762728E+02 0.72542150289E+02
 0.74366413453E+02 0.59340818767E+02 0.58905831554E+02 0.57623116228E+02 0.55558919188E+02
 0.52820843249E+02 0.49550892505E+02 0.45913600275E+02 0.42081241835E+02 0.38219359451E+02
 0.34474884759E+02 0.30967407382E+02 0.27783368379E+02 0.24973469881E+02 0.22554223158E+02
 0.20514069590E+02 0.18822857195E+02 0.17441827835E+02 0.16331049222E+02 0.15452787460E+02
 0.14771639228E+02 0.14253695852E+02 0.13866687117E+02 0.13581476128E+02 0.13373851889E+02
 0.13225334898E+02 0.13122588136E+02 0.13056084869E+02 0.13019049696E+02 0.13007202763E+02
 0.13019049696E+02 0.13056084869E+02 0.13122588136E+02 0.13225334898E+02 0.13373851889E+02
 0.13581476128E+02 0.13866687117E+02 0.14253695852E+02 0.14771639228E+02 0.15452787460E+02
 0.16331049222E+02 0.17441827835E+02 0.18822857195E+02 0.20514069590E+02 0.22554223158E+02
 0.24973469881E+02 0.27783368379E+02 0.30967407382E+02 0.34474884759E+02 0.38219359451E+02
 0.42081241835E+02 0.45913600275E+02 0.49550892505E+02 0.52820843249E+02 0.55558919188E+02
 0.57623116228E+02 0.58905831554E+02 0.46441424632E+02 0.46151501339E+02 0.45295493172E+02
 0.43914544384E+02 0.42076075488E+02 0.39870367068E+02 0.37404206121E+02 0.34792346645E+02
 0.32148340782E+02 0.29576073156E+02 0.27162700232E+02 0.24973469881E+02 0.23049139390E+02
 0.21406752838E+02 0.20043799313E+02 0.18944472619E+02 0.18085819451E+02 0.17441827835E+02
 0.16984920658E+02 0.16685902665E+02 0.16514039523E+02 0.16438287550E+02 0.16429429406E+02
 0.16462058186E+02 0.16515513803E+02 0.16573683867E+02 0.16624289936E+02 0.16658389641E+02
 0.16670396169E+02 0.16658389641E+02 0.16624289936E+02 0.16573683867E+02 0.16515513803E+02
 0.16462058186E+02 0.16429429406E+02 0.16438287550E+02 0.16514039523E+02 0.16685902665E+02
 0.16984920658E+02 0.17441827835E+02 0.18085819451E+02 0.18944472619E+02 0.20043799313E+02
 0.21406752838E+02 0.23049139390E+02 0.24973469881E+02 0.27162700232E+02 0.29576073156E+02
 0.32148340782E+02 0.34792346645E+02 0.37404206121E+02 0.39870367068E+02 0.42076075488E+02
 0.43914544384E+02 0.45295493172E+02 0.46151501339E+02 0.36054895906E+02 0.35872851546E+02
 0.35334929870E+02 0.34465824642E+02 0.33306454208E+02 0.31912488918E+02 0.30351121165E+02
 0.28696318777E+02 0.27023316189E+02 0.25403078766E+02 0.23897264606E+02 0.22554223158E+02
 0.21406752838E+02 0.20472219283E+02 0.19754918483E+02 0.19249587310E+02 0.18944472619E+02
 0.18822857195E+02 0.18863122820E+02 0.19038438027E+02 0.19317268125E+02 0.19665144404E+02
 0.20047194978E+02 0.20430544713E+02 0.20785983648E+02 0.21088869620E+02 0.21319580763E+02
 0.21463819010E+02 0.21512874208E+02 0.21463819010E+02 0.21319580763E+02 0.21088869620E+02
 0.20785983648E+02 0.20430544713E+02 0.20047194978E+02 0.19665144404E+02 0.19317268125E+02
 0.19038438027E+02 0.18863122820E+02 0.18822857195E+02 0.18944472619E+02 0.19249587310E+02
 0.19754918483E+02 0.20472219283E+02 0.21406752838E+02 0.22554223158E+02 0.23897264606E+02
 0.25403078766E+02 0.27023316189E+02 0.28696318777E+02 0.30351121165E+02 0.31912488918E+02
 0.33306454208E+02 0.34465824642E+02 0.35334929870E+02 0.35872851546E+02 0.27859652070E+02
 0.27755722728E+02 0.27448785506E+02 0.26953435118E+02 0.26293930773E+02 0.25503571203E+02
 0.24623252686E+02 0.23699249492E+02 0.22780414416E+02 0.21914974462E+02 0.21147146583E+02
 0.20514069590E+02 0.20043799313E+02 0.19754918483E+02 0.19657571526E+02 0.19754918483E+02
 0.20043799313E+02 0.20514069590E+02 0.21147146583E+02 0.21914974462E+02 0.22780414416E+02
 0.23699249492E+02 0.24623252686E+02 0.25503571203E+02 0.26293930773E+02 0.26953435118E+02
 0.27448785506E+02 0.27755722728E+02 0.27859652070E+02 0.27755722728E+02 0.27448785506E+02
 0.26953435118E+02 0.26293930773E+02 0.25503571203E+02 0.24623252686E+02 0.23699249492E+02
 0.22780414416E+02 0.21914974462E+02 0.21147146583E+02 0.20514069590E+02 0.20043799313E+02
 0.19754918483E+02 0.19657571526E+02 0.19754918483E+02 0.20043799313E+02 0.20514069590E+02
 0.21147146583E+02 0.21914974462E+02 0.22780414416E+02 0.23699249492E+02 0.24623252686E+02
 0.25503571203E+02 0.26293930773E+02 0.26953435118E+02 0.27448785506E+02 0.27755722728E+02
 0.21512874208E+02 0.21463819010E+02 0.21319580763E+02 0.21088869620E+02 0.20785983648E+02
 0.20430544713E+02 0.20047194978E+02 0.19665144404E+02 0.19317268125E+02 0.19038438027E+02
 0.18863122820E+02 0.18822857195E+02 0.18944472619E+02 0.19249587310E+02 0.19754918483E+02
 0.20472219283E+02 0.21406752838E+02 0.22554223158E+02 0.23897264606E+02 0.25403078766E+02
 0.27023316189E+02 0.28696318777E+02 0.30351121165E+02 0.31912488918E+02 0.33306454208E+02
 0.34465824642E+02 0.35334929870E+02 0.35872851546E+02 0.36054895906E+02 0.35872851546E+02
 0.35334929870E+02 0.34465824642E+02 0.33306454208E+02 0.31912488918E+02 0.30351121165E+02
 0.28696318777E+02 0.27023316189E+02 0.25403078766E+02 0.23897264606E+02 0.22554223158E+02
 0.21406752838E+02 0.20472219283E+02 0.19754918483E+02 0.19249587310E+02 0.18944472619E+02
 0.18822857195E+02 0.18863122820E+02 0.19038438027E+02 0.19317268125E+02 0.19665144404E+02
 0.20047194978E+02 0.20430544713E+02 0.20785983648E+02 0.21088869620E+02 0.21319580763E+02
 0.21463819010E+02 0.16670396169E+02 0.16658389641E+02 0.16624289936E+02 0.16573683867E+02
 0.16515513803E+02 0.16462058186E+02 0.16429429406E+02 0.16438287550E+02 0.16514039523E+02
 0.16685902665E+02 0.16984920658E+02 0.17441827835E+02 0.18085819451E+02 0.18944472619E+02
 0.20043799313E+02 0.21406752838E+02 0.23049139390E+02 0.24973469881E+02 0.27162700232E+02
 0.29576073156E+02 0.32148340782E+02 0.34792346645E+02 0.37404206121E+02 0.39870367068E+02
 0.42076075488E+02 0.43914544384E+02 0.45295493172E+02 0.46151501339E+02 0.46441424632E+02
 0.46151501339E+02 0.45295493172E+02 0.43914544384E+02 0.42076075488E+02 0.39870367068E+02
 0.37404206121E+02 0.34792346645E+02 0.32148340782E+02 0.29576073156E+02 0.27162700232E+02
 0.24973469881E+02 0.23049139390E+02 0.21406752838E+02 0.20043799313E+02 0.18944472619E+02
 0.18085819451E+02 0.17441827835E+02 0.16984920658E+02 0.16685902665E+02 0.16514039523E+02
 0.16438287550E+02 0.16429429406E+02 0.16462058186E+02 0.16515513803E+02 0.16573683867E+02
 0.16624289936E+02 0.16658389641E+02 0.13007202763E+02 0.13019049696E+02 0.13056084869E+02
 0.13122588136E+02 0.13225334898E+02 0.13373851889E+02 0.13581476128E+02 0.13866687117E+02
 0.14253695852E+02 0.14771639228E+02 0.15452787460E+02 0.16331049222E+02 0.17441827835E+02
 0.18822857195E+02 0.20514069590E+02 0.22554223158E+02 0.24973469881E+02 0.27783368379E+02
 0.30967407382E+02 0.34474884759E+02 0.38219359451E+02 0.42081241835E+02 0.45913600275E+02
 0.49550892505E+02 0.52820843249E+02 0.55558919188E+02 0.57623116228E+02 0.58905831554E+02
 0.59340818767E+02 0.58905831554E+02 0.57623116228E+02 0.55558919188E+02 0.52820843249E+02
 0.49550892505E+02 0.45913600275E+02 0.42081241835E+02 0.38219359451E+02 0.34474884759E+02
 0.30967407382E+02 0.27783368379E+02 0.24973469881E+02 0.22554223158E+02 0.20514069590E+02
 0.18822857195E+02 0.17441827835E+02 0.16331049222E+02 0.15452787460E+02 0.14771639228E+02
 0.14253695852E+02 0.13866687117E+02 0.13581476128E+02 0.13373851889E+02 0.13225334898E+02
 0.13122588136E+02 0.13056084869E+02 0.13019049696E+02 0.10240921931E+02 0.10267376024E+02
 0.10348162314E+02 0.10487401436E+02 0.10691806562E+02 0.10971269271E+02 0.11340263139E+02
 0.11819315305E+02 0.12435458912E+02 0.13221289902E+02 0.14213544475E+02 0.15452787460E+02
 0.16984920658E+02 0.18863122820E+02 0.21147146583E+02 0.23897264606E+02 0.27162700232E+02
 0.30967407382E+02 0.35297418975E+02 0.40092813172E+02 0.45244804220E+02 0.50596774700E+02
 0.55948660468E+02 0.61066163279E+02 0.65697103371E+02 0.69594762728E+02 0.72542150289E+02
 0.74366413453E+02 0.74981143353E+02 0.74366413453E+02 0.72542150289E+02 0.69594762728E+02
 0.65697103371E+02 0.61066163279E+02 0.55948660468E+02 0.50596774700E+02 0.45244804220E+02
 0.40092813172E+02 0.35297418975E+02 0.30967407382E+02 0.27162700232E+02 0.23897264606E+02
 0.21147146583E+02 0.18863122820E+02 0.16984920658E+02 0.15452787460E+02 0.14213544475E+02
 0.13221289902E+02 0.12435458912E+02 0.11819315305E+02 0.11340263139E+02 0.10971269271E+02
 0.10691806562E+02 0.10487401436E+02 0.10348162314E+02 0.10267376024E+02 0.81471254784E+01
 0.81820947636E+01 0.82885574402E+01 0.84711362733E+01 0.87377181271E+01 0.91003948943E+01
 0.95770244983E+01 0.10192490193E+02 0.10978748860E+02 0.11973835518E+02 0.13221289902E+02
 0.14771639228E+02 0.16685902665E+02 0.19038438027E+02 0.21914974462E+02 0.25403078766E+02
 0.29576073156E+02 0.34474884759E+02 0.40092813172E+02 0.46365472617E+02 0.53164694836E+02
 0.60294378091E+02 0.67489543874E+02 0.74424565755E+02 0.80668739516E+02 0.85690703984E+02
 0.89230802381E+02 0.91285934274E+02 0.91953598936E+02 0.91285934274E+02 0.89230802381E+02
 0.85690703984E+02 0.80668739516E+02 0.74424565755E+02 0.67489543874E+02 0.60294378091E+02
 0.53164694836E+02 0.46365472617E+02 0.40092813172E+02 0.34474884759E+02 0.29576073156E+02
 0.25403078766E+02 0.21914974462E+02 0.19038438027E+02 0.16685902665E+02 0.14771639228E+02
 0.13221289902E+02 0.11973835518E+02 0.10978748860E+02 0.10192490193E+02 0.95770244983E+01
 0.91003948943E+01 0.87377181271E+01 0.84711362733E+01 0.82885574402E+01 0.81820947636E+01
 0.65599480689E+01 0.65996244010E+01 0.67204412910E+01 0.69278447771E+01 0.72314657668E+01
 0.76464029679E+01 0.81948131456E+01 0.89067744822E+01 0.98199224372E+01 0.10978748860E+02
 0.12435458912E+02 0.14253695852E+02 0.16514039523E+02 0.19317268125E+02 0.22780414416E+02
 0.27023316189E+02 0.32148340782E+02 0.38219359451E+02 0.45244804220E+02 0.53164694836E+02
 0.61837533006E+02 0.71024814937E+02 0.80357365432E+02 0.88995319624E+02 0.95999272207E+02
 0.10095346798E+03 0.10396879649E+03 0.10547598909E+03 0.10591733453E+03 0.10547598909E+03
 0.10396879649E+03 0.10095346798E+03 0.95999272207E+02 0.88995319624E+02 0.80357365432E+02
 0.71024814937E+02 0.61837533006E+02 0.53164694836E+02 0.45244804220E+02 0.38219359451E+02
 0.32148340782E+02 0.27023316189E+02 0.22780414416E+02 0.19317268125E+02 0.16514039523E+02
 0.14253695852E+02 0.12435458912E+02 0.10978748860E+02 0.98199224372E+01 0.89067744822E+01
 0.81948131456E+01 0.76464029679E+01 0.72314657668E+01 0.69278447771E+01 0.67204412910E+01
 0.65996244010E+01 0.53611112563E+01 0.54031833198E+01 0.55314552694E+01 0.57522810947E+01
 0.60771389949E+01 0.65242293663E+01 0.71200399435E+01 0.78997808148E+01 0.89067744822E+01
 0.10192490193E+02 0.11819315305E+02 0.13866687117E+02 0.16438287550E+02 0.19665144404E+02
 0.23699249492E+02 0.28696318777E+02 0.34792346645E+02 0.42081241835E+02 0.50596774700E+02
 0.60294378091E+02 0.71024814937E+02 0.82449714722E+02 0.93377000592E+02 0.10227559594E+03
 0.10826702013E+03 0.11133968746E+03 0.11224572698E+03 0.11211847172E+03 0.11194631247E+03
 0.11211847172E+03 0.11224572698E+03 0.11133968746E+03 0.10826702013E+03 0.10227559594E+03
 0.93377000592E+02 0.82449714722E+02 0.71024814937E+02 0.60294378091E+02 0.50596774700E+02
 0.42081241835E+02 0.34792346645E+02 0.28696318777E+02 0.23699249492E+02 0.19665144404E+02
 0.16438287550E+02 0.13866687117E+02 0.11819315305E+02 0.10192490193E+02 0.89067744822E+01
 0.78997808148E+01 0.71200399435E+01 0.65242293663E+01 0.60771389949E+01 0.57522810947E+01
 0.55314552694E+01 0.54031833198E+01 0.44647052050E+01 0.45077724424E+01 0.46392834714E+01
 0.48664297911E+01 0.52023652048E+01 0.56680987286E+01 0.62940347352E+01 0.71200399435E+01
 0.81948131456E+01 0.95770244983E+01 0.11340263139E+02 0.13581476128E+02 0.16429429406E+02
 0.20047194978E+02 0.24623252686E+02 0.30351121165E+02 0.37404206121E+02 0.45913600275E+02
 0.55948660468E+02 0.67489543874E+02 0.80357365432E+02 0.93377000592E+02 0.10434420885E+03
 0.11154439982E+03 0.11433009457E+03 0.11332623801E+03 0.11022143088E+03 0.10715848651E+03
 0.10590912952E+03 0.10715848651E+03 0.11022143088E+03 0.11332623801E+03 0.11433009457E+03
 0.11154439982E+03 0.10434420885E+03 0.93377000592E+02 0.80357365432E+02 0.67489543874E+02
 0.55948660468E+02 0.45913600275E+02 0.37404206121E+02 0.30351121165E+02 0.24623252686E+02
 0.20047194978E+02 0.16429429406E+02 0.13581476128E+02 0.11340263139E+02 0.95770244983E+01
 0.81948131456E+01 0.71200399435E+01 0.62940347352E+01 0.56680987286E+01 0.52023652048E+01
 0.48664297911E+01 0.46392834714E+01 0.45077724424E+01 0.38044061230E+01 0.38476230575E+01
 0.39797945966E+01 0.42088068359E+01 0.45492122093E+01 0.50243944827E+01 0.56680987286E+01
 0.65242293663E+01 0.76464029679E+01 0.91003948943E+01 0.10971269271E+02 0.13373851889E+02
 0.16462058186E+02 0.20430544713E+02 0.25503571203E+02 0.31912488918E+02 0.39870367068E+02
 0.49550892505E+02 0.61066163279E+02 0.74424565755E+02 0.88995319624E+02 0.10227559594E+03
 0.11154439982E+03 0.11498722765E+03 0.11231392773E+03 0.10499239341E+03 0.95931907898E+02
 0.88597288640E+02 0.85793390493E+02 0.88597288640E+02 0.95931907898E+02 0.10499239341E+03
 0.11231392773E+03 0.11498722765E+03 0.11154439982E+03 0.10227559594E+03 0.88995319624E+02
 0.74424565755E+02 0.61066163279E+02 0.49550892505E+02 0.39870367068E+02 0.31912488918E+02
 0.25503571203E+02 0.20430544713E+02 0.16462058186E+02 0.13373851889E+02 0.10971269271E+02
 0.91003948943E+01 0.76464029679E+01 0.65242293663E+01 0.56680987286E+01 0.50243944827E+01
 0.45492122093E+01 0.42088068359E+01 0.39797945966E+01 0.38476230575E+01 0.33269236767E+01
 0.33698271768E+01 0.35012191840E+01 0.37295266745E+01 0.40704213830E+01 0.45492122093E+01
 0.52023652048E+01 0.60771389949E+01 0.72314657668E+01 0.87377181271E+01 0.10691806562E+02
 0.13225334898E+02 0.16515513803E+02 0.20785983648E+02 0.26293930773E+02 0.33306454208E+02
 0.42076075488E+02 0.52820843249E+02 0.65697103371E+02 0.80668739516E+02 0.95999272207E+02
 0.10826702013E+03 0.11433009457E+03 0.11231392773E+03 0.10235921603E+03 0.86916133686E+02
 0.70329591618E+02 0.57639125289E+02 0.52892051329E+02 0.57639125289E+02 0.70329591618E+02
 0.86916133686E+02 0.10235921603E+03 0.11231392773E+03 0.11433009457E+03 0.10826702013E+03
 0.95999272207E+02 0.80668739516E+02 0.65697103371E+02 0.52820843249E+02 0.42076075488E+02
 0.33306454208E+02 0.26293930773E+02 0.20785983648E+02 0.16515513803E+02 0.13225334898E+02
 0.10691806562E+02 0.87377181271E+01 0.72314657668E+01 0.60771389949E+01 0.52023652048E+01
 0.45492122093E+01 0.40704213830E+01 0.37295266745E+01 0.35012191840E+01 0.33698271768E+01
 0.29910328800E+01 0.30334559816E+01 0.31635150431E+01 0.33900287927E+01 0.37295266745E+01
 0.42088068359E+01 0.48664297911E+01 0.57522810947E+01 0.69278447771E+01 0.84711362733E+01
 0.10487401436E+02 0.13122588136E+02 0.16573683867E+02 0.21088869620E+02 0.26953435118E+02
 0.34465824642E+02 0.43914544384E+02 0.55558919188E+02 0.69594762728E+02 0.85690703984E+02
 0.10095346798E+03 0.11133968746E+03 0.11332623801E+03 0.10499239341E+03 0.86916133686E+02
 0.62557792840E+02 0.37765682278E+02 0.19251416852E+02 0.12393231352E+02 0.19251416852E+02
 0.37765682278E+02 0.62557792840E+02 0.86916133686E+02 0.10499239341E+03 0.11332623801E+03
 0.11133968746E+03 0.10095346798E+03 0.85690703984E+02 0.69594762728E+02 0.55558919188E+02
 0.43914544384E+02 0.34465824642E+02 0.26953435118E+02 0.21088869620E+02 0.16573683867E+02
 0.13122588136E+02 0.10487401436E+02 0.84711362733E+01 0.69278447771E+01 0.57522810947E+01
 0.48664297911E+01 0.42088068359E+01 0.37295266745E+01 0.33900287927E+01 0.31635150431E+01
 0.30334559816E+01 0.27680276182E+01 0.28100148640E+01 0.29388229543E+01 0.31635150431E+01
 0.35012191840E+01 0.39797945966E+01 0.46392834714E+01 0.55314552694E+01 0.67204412910E+01
 0.82885574402E+01 0.10348162314E+02 0.13056084869E+02 0.16624289936E+02 0.21319580763E+02
 0.27448785506E+02 0.35334929870E+02 0.45295493172E+02 0.57623116228E+02 0.72542150289E+02
 0.89230802381E+02 0.10396879649E+03 0.11224572698E+03 0.11022143088E+03 0.95931907898E+02
 0.70329591618E+02 0.37765682278E+02 0.54387935795E+01 -.18420241452E+02 -.27215841646E+02
 -.18420241452E+02 0.54387935795E+01 0.37765682278E+02 0.70329591618E+02 0.95931907898E+02
 0.11022143088E+03 0.11224572698E+03 0.10396879649E+03 0.89230802381E+02 0.72542150289E+02
 0.57623116228E+02 0.45295493172E+02 0.35334929870E+02 0.27448785506E+02 0.21319580763E+02
 0.16624289936E+02 0.13056084869E+02 0.10348162314E+02 0.82885574402E+01 0.67204412910E+01
 0.55314552694E+01 0.46392834714E+01 0.39797945966E+01 0.35012191840E+01 0.31635150431E+01
 0.29388229543E+01 0.28100148640E+01 0.26403246396E+01 0.26820311871E+01 0.28100148640E+01
 0.30334559816E+01 0.33698271768E+01 0.38476230575E+01 0.45077724424E+01 0.54031833198E+01
 0.65996244010E+01 0.81820947636E+01 0.10267376024E+02 0.13019049696E+02 0.16658389641E+02
 0.21463819010E+02 0.27755722728E+02 0.35872851546E+02 0.46151501339E+02 0.58905831554E+02
 0.74366413453E+02 0.91285934274E+02 0.10547598909E+03 0.11211847172E+03 0.10715848651E+03
 0.88597288640E+02 0.57639125289E+02 0.19251416852E+02 -.18420241452E+02 -.46071155722E+02
 -.56241545817E+02 -.46071155722E+02 -.18420241452E+02 0.19251416852E+02 0.57639125289E+02
 0.88597288640E+02 0.10715848651E+03 0.11211847172E+03 0.10547598909E+03 0.91285934274E+02
 0.74366413453E+02 0.58905831554E+02 0.46151501339E+02 0.35872851546E+02 0.27755722728E+02
 0.21463819010E+02 0.16658389641E+02 0.13019049696E+02 0.10267376024E+02 0.81820947636E+01
 0.65996244010E+01 0.54031833198E+01 0.45077724424E+01 0.38476230575E+01 0.33698271768E+01
 0.30334559816E+01 0.28100148640E+01 0.26820311871E+01 0.25987122603E+01 0.26403246396E+01
 0.27680276182E+01 0.29910328800E+01 0.33269236767E+01 0.38044061230E+01 0.44647052050E+01
 0.53611112563E+01 0.65599480689E+01 0.81471254784E+01 0.10240921931E+02 0.13007202763E+02
 0.16670396169E+02 0.21512874208E+02 0.27859652070E+02 0.36054895906E+02 0.46441424632E+02
 0.59340818767E+02 0.74981143353E+02 0.91953598936E+02 0.10591733453E+03 0.11194631247E+03
 0.10590912952E+03 0.85793390493E+02 0.52892051329E+02 0.12393231352E+02 -.27215841646E+02
 -.56241545817E+02 -.66910460340E+02 -.56241545817E+02 -.27215841646E+02 0.12393231352E+02
 0.52892051329E+02 0.85793390493E+02 0.10590912952E+03 0.11194631247E+03 0.10591733453E+03
 0.91953598936E+02 0.74981143353E+02 0.59340818767E+02 0.46441424632E+02 0.36054895906E+02
 0.27859652070E+02 0.21512874208E+02 0.16670396169E+02 0.13007202763E+02 0.10240921931E+02
 0.81471254784E+01 0.65599480689E+01 0.53611112563E+01 0.44647052050E+01 0.38044061230E+01