   8   8   0   0
  0.2082684E+02  0.5502640E-09  0.5502640E-09  0.5502640E-09  0.1000000E-15
  1.000000000000000E-004
  CAR 
 GaAs                                    
      8.42960061    -11.01587981  301      2.34073455      1.00000000
    -11.016  0.0000E+00  0.0000E+00
    -10.951  0.0000E+00  0.0000E+00
    -10.886  0.0000E+00  0.0000E+00
    -10.821  0.0000E+00  0.0000E+00
    -10.757  0.0000E+00  0.0000E+00
    -10.692  0.0000E+00  0.0000E+00
    -10.627  0.0000E+00  0.0000E+00
    -10.562  0.0000E+00  0.0000E+00
    -10.497  0.0000E+00  0.0000E+00
    -10.433  0.0000E+00  0.0000E+00
    -10.368  0.0000E+00  0.0000E+00
    -10.303  0.0000E+00  0.0000E+00
    -10.238  0.0000E+00  0.0000E+00
    -10.173  0.0000E+00  0.0000E+00
    -10.108  0.0000E+00  0.0000E+00
    -10.044  0.0000E+00  0.0000E+00
     -9.979  0.3699E-03  0.4573E-05
     -9.914  0.2792E-02  0.9485E-04
     -9.849  0.7012E-02  0.4110E-03
     -9.784  0.9598E-02  0.9618E-03
     -9.720  0.1016E-01  0.1608E-02
     -9.655  0.1114E-01  0.2293E-02
     -9.590  0.1296E-01  0.3071E-02
     -9.525  0.1501E-01  0.3977E-02
     -9.460  0.2103E-01  0.5078E-02
     -9.395  0.2944E-01  0.6730E-02
     -9.331  0.2852E-01  0.8704E-02
     -9.266  0.2365E-01  0.1039E-01
     -9.201  0.2335E-01  0.1191E-01
     -9.136  0.2291E-01  0.1341E-01
     -9.071  0.2209E-01  0.1487E-01
     -9.007  0.2818E-01  0.1655E-01
     -8.942  0.1400E-01  0.1800E-01
     -8.877  0.1343E-01  0.1881E-01
     -8.812  0.2818E-01  0.2014E-01
     -8.747  0.3716E-01  0.2238E-01
     -8.682  0.4088E-01  0.2487E-01
     -8.618  0.4443E-01  0.2756E-01
     -8.553  0.4905E-01  0.3060E-01
     -8.488  0.1193E+00  0.3741E-01
     -8.423  0.5073E-01  0.4125E-01
     -8.358  0.4729E-01  0.4418E-01
     -8.294  0.5213E-01  0.4740E-01
     -8.229  0.8231E-01  0.5191E-01
     -8.164  0.8905E-01  0.5726E-01
     -8.099  0.9941E-01  0.6345E-01
     -8.034  0.6986E-01  0.6894E-01
     -7.969  0.6266E-01  0.7324E-01
     -7.905  0.5392E-01  0.7710E-01
     -7.840  0.1194E-01  0.7999E-01
     -7.775  0.0000E+00  0.8000E-01
     -7.710  0.0000E+00  0.8000E-01
     -7.645  0.0000E+00  0.8000E-01
     -7.581  0.0000E+00  0.8000E-01
     -7.516  0.0000E+00  0.8000E-01
     -7.451  0.0000E+00  0.8000E-01
     -7.386  0.0000E+00  0.8000E-01
     -7.321  0.0000E+00  0.8000E-01
     -7.256  0.0000E+00  0.8000E-01
     -7.192  0.0000E+00  0.8000E-01
     -7.127  0.0000E+00  0.8000E-01
     -7.062  0.0000E+00  0.8000E-01
     -6.997  0.0000E+00  0.8000E-01
     -6.932  0.0000E+00  0.8000E-01
     -6.868  0.0000E+00  0.8000E-01
     -6.803  0.0000E+00  0.8000E-01
     -6.738  0.0000E+00  0.8000E-01
     -6.673  0.0000E+00  0.8000E-01
     -6.608  0.0000E+00  0.8000E-01
     -6.543  0.0000E+00  0.8000E-01
     -6.479  0.0000E+00  0.8000E-01
     -6.414  0.0000E+00  0.8000E-01
     -6.349  0.0000E+00  0.8000E-01
     -6.284  0.0000E+00  0.8000E-01
     -6.219  0.0000E+00  0.8000E-01
     -6.155  0.0000E+00  0.8000E-01
     -6.090  0.0000E+00  0.8000E-01
     -6.025  0.0000E+00  0.8000E-01
     -5.960  0.0000E+00  0.8000E-01
     -5.895  0.0000E+00  0.8000E-01
     -5.830  0.0000E+00  0.8000E-01
     -5.766  0.0000E+00  0.8000E-01
     -5.701  0.0000E+00  0.8000E-01
     -5.636  0.0000E+00  0.8000E-01
     -5.571  0.0000E+00  0.8000E-01
     -5.506  0.0000E+00  0.8000E-01
     -5.442  0.0000E+00  0.8000E-01
     -5.377  0.0000E+00  0.8000E-01
     -5.312  0.0000E+00  0.8000E-01
     -5.247  0.0000E+00  0.8000E-01
     -5.182  0.0000E+00  0.8000E-01
     -5.117  0.0000E+00  0.8000E-01
     -5.053  0.0000E+00  0.8000E-01
     -4.988  0.0000E+00  0.8000E-01
     -4.923  0.0000E+00  0.8000E-01
     -4.858  0.0000E+00  0.8000E-01
     -4.793  0.0000E+00  0.8000E-01
     -4.729  0.0000E+00  0.8000E-01
     -4.664  0.0000E+00  0.8000E-01
     -4.599  0.0000E+00  0.8000E-01
     -4.534  0.0000E+00  0.8000E-01
     -4.469  0.0000E+00  0.8000E-01
     -4.404  0.0000E+00  0.8000E-01
     -4.340  0.0000E+00  0.8000E-01
     -4.275  0.0000E+00  0.8000E-01
     -4.210  0.1538E-02  0.8001E-01
     -4.145  0.1832E-01  0.8067E-01
     -4.080  0.2639E-01  0.8204E-01
     -4.016  0.5277E-01  0.8458E-01
     -3.951  0.7105E-01  0.8871E-01
     -3.886  0.1665E+00  0.9591E-01
     -3.821  0.1301E+00  0.1059E+00
     -3.756  0.7515E-01  0.1118E+00
     -3.691  0.5200E-01  0.1162E+00
     -3.627  0.3802E-01  0.1188E+00
     -3.562  0.3994E-01  0.1213E+00
     -3.497  0.3160E-01  0.1235E+00
     -3.432  0.3087E-01  0.1256E+00
     -3.367  0.3020E-01  0.1276E+00
     -3.303  0.2960E-01  0.1295E+00
     -3.238  0.2907E-01  0.1314E+00
     -3.173  0.2263E-01  0.1330E+00
     -3.108  0.2208E-01  0.1345E+00
     -3.043  0.2143E-01  0.1359E+00
     -2.978  0.2053E-01  0.1373E+00
     -2.914  0.1932E-01  0.1386E+00
     -2.849  0.1829E-01  0.1398E+00
     -2.784  0.1687E-01  0.1409E+00
     -2.719  0.1531E-01  0.1420E+00
     -2.654  0.1398E-01  0.1429E+00
     -2.590  0.1188E-01  0.1438E+00
     -2.525  0.1007E-01  0.1445E+00
     -2.460  0.8900E-02  0.1451E+00
     -2.395  0.9593E-02  0.1457E+00
     -2.330  0.7922E-02  0.1462E+00
     -2.265  0.8014E-02  0.1467E+00
     -2.201  0.8087E-02  0.1473E+00
     -2.136  0.8140E-02  0.1478E+00
     -2.071  0.8174E-02  0.1483E+00
     -2.006  0.8218E-02  0.1488E+00
     -1.941  0.8339E-02  0.1494E+00
     -1.877  0.8490E-02  0.1499E+00
     -1.812  0.8672E-02  0.1505E+00
     -1.747  0.8884E-02  0.1511E+00
     -1.682  0.9127E-02  0.1516E+00
     -1.617  0.9400E-02  0.1522E+00
     -1.552  0.9703E-02  0.1529E+00
     -1.488  0.1004E-01  0.1535E+00
     -1.423  0.9930E-02  0.1541E+00
     -1.358  0.9646E-02  0.1548E+00
     -1.293  0.1759E-01  0.1555E+00
     -1.228  0.3011E-01  0.1571E+00
     -1.164  0.3186E-01  0.1591E+00
     -1.099  0.3380E-01  0.1613E+00
     -1.034  0.3543E-01  0.1635E+00
     -0.969  0.8462E-01  0.1677E+00
     -0.904  0.6083E-01  0.1725E+00
     -0.839  0.5596E-01  0.1763E+00
     -0.775  0.5063E-01  0.1798E+00
     -0.710  0.5115E-01  0.1831E+00
     -0.645  0.4702E-01  0.1863E+00
     -0.580  0.4740E-01  0.1893E+00
     -0.515  0.4808E-01  0.1924E+00
     -0.451  0.5630E-01  0.1957E+00
     -0.386  0.5383E-01  0.1994E+00
     -0.321  0.5071E-01  0.2026E+00
     -0.256  0.5087E-01  0.2059E+00
     -0.191  0.5477E-01  0.2094E+00
     -0.126  0.6455E-01  0.2132E+00
     -0.062  0.9602E-01  0.2184E+00
      0.003  0.7661E-01  0.2241E+00
      0.068  0.7261E-01  0.2288E+00
      0.133  0.6855E-01  0.2333E+00
      0.198  0.6625E-01  0.2377E+00
      0.262  0.6118E-01  0.2419E+00
      0.327  0.5564E-01  0.2457E+00
      0.392  0.5125E-01  0.2491E+00
      0.457  0.5168E-01  0.2524E+00
      0.522  0.6209E-01  0.2564E+00
      0.587  0.6370E-01  0.2602E+00
      0.651  0.4907E-01  0.2637E+00
      0.716  0.5823E-01  0.2673E+00
      0.781  0.7443E-01  0.2715E+00
      0.846  0.9922E-01  0.2769E+00
      0.911  0.6328E-01  0.2821E+00
      0.975  0.5461E-01  0.2859E+00
      1.040  0.4558E-01  0.2892E+00
      1.105  0.3544E-01  0.2919E+00
      1.170  0.2259E-01  0.2935E+00
      1.235  0.2561E-01  0.2951E+00
      1.300  0.3751E-01  0.2971E+00
      1.364  0.5610E-01  0.3003E+00
      1.429  0.5909E-01  0.3039E+00
      1.494  0.5942E-01  0.3079E+00
      1.559  0.4896E-01  0.3116E+00
      1.624  0.1961E-01  0.3137E+00
      1.689  0.1711E-01  0.3149E+00
      1.753  0.1464E-01  0.3159E+00
      1.818  0.1220E-01  0.3168E+00
      1.883  0.1011E-01  0.3175E+00
      1.948  0.1118E-01  0.3182E+00
      2.013  0.1071E-01  0.3189E+00
      2.077  0.7986E-02  0.3195E+00
      2.142  0.3003E-02  0.3199E+00
      2.207  0.8595E-03  0.3200E+00
      2.272  0.1214E-03  0.3200E+00
      2.337  0.0000E+00  0.3200E+00
      2.402  0.0000E+00  0.3200E+00
      2.466  0.0000E+00  0.3200E+00
      2.531  0.1677E-05  0.3200E+00
      2.596  0.8775E-05  0.3200E+00
      2.661  0.2143E-04  0.3200E+00
      2.726  0.3965E-04  0.3200E+00
      2.790  0.6343E-04  0.3200E+00
      2.855  0.9277E-04  0.3200E+00
      2.920  0.1277E-03  0.3200E+00
      2.985  0.1681E-03  0.3200E+00
      3.050  0.2142E-03  0.3200E+00
      3.115  0.2657E-03  0.3201E+00
      3.179  0.3229E-03  0.3201E+00
      3.244  0.3856E-03  0.3201E+00
      3.309  0.4142E-02  0.3203E+00
      3.374  0.1992E-02  0.3204E+00
      3.439  0.2344E-02  0.3206E+00
      3.503  0.2731E-02  0.3207E+00
      3.568  0.3151E-02  0.3209E+00
      3.633  0.3606E-02  0.3212E+00
      3.698  0.4095E-02  0.3214E+00
      3.763  0.4787E-02  0.3217E+00
      3.828  0.6976E-02  0.3221E+00
      3.892  0.1023E-01  0.3226E+00
      3.957  0.1367E-01  0.3234E+00
      4.022  0.2910E-01  0.3250E+00
      4.087  0.2792E-01  0.3266E+00
      4.152  0.3710E-01  0.3286E+00
      4.216  0.4102E-01  0.3311E+00
      4.281  0.4422E-01  0.3339E+00
      4.346  0.4671E-01  0.3369E+00
      4.411  0.5155E-01  0.3400E+00
      4.476  0.6168E-01  0.3436E+00
      4.541  0.6896E-01  0.3479E+00
      4.605  0.7125E-01  0.3526E+00
      4.670  0.1108E+00  0.3572E+00
      4.735  0.8906E-01  0.3637E+00
      4.800  0.8125E-01  0.3692E+00
      4.865  0.7753E-01  0.3742E+00
      4.929  0.6471E-01  0.3788E+00
      4.994  0.5429E-01  0.3825E+00
      5.059  0.5771E-01  0.3861E+00
      5.124  0.7198E-01  0.3908E+00
      5.189  0.4456E-01  0.3946E+00
      5.254  0.3926E-01  0.3973E+00
      5.318  0.3681E-01  0.3997E+00
      5.383  0.3475E-01  0.4020E+00
      5.448  0.2963E-01  0.4042E+00
      5.513  0.2547E-01  0.4060E+00
      5.578  0.1261E-01  0.4074E+00
      5.642  0.1755E-01  0.4083E+00
      5.707  0.1931E-01  0.4095E+00
      5.772  0.2105E-01  0.4108E+00
      5.837  0.2276E-01  0.4122E+00
      5.902  0.2445E-01  0.4137E+00
      5.967  0.2611E-01  0.4154E+00
      6.031  0.2806E-01  0.4171E+00
      6.096  0.4319E-01  0.4193E+00
      6.161  0.5185E-01  0.4223E+00
      6.226  0.5406E-01  0.4258E+00
      6.291  0.4872E-01  0.4291E+00
      6.355  0.5539E-01  0.4325E+00
      6.420  0.6025E-01  0.4363E+00
      6.485  0.5949E-01  0.4401E+00
      6.550  0.8140E-01  0.4444E+00
      6.615  0.6323E-01  0.4491E+00
      6.680  0.4792E-01  0.4527E+00
      6.744  0.3374E-01  0.4552E+00
      6.809  0.3030E-01  0.4570E+00
      6.874  0.3512E-01  0.4591E+00
      6.939  0.4079E-01  0.4616E+00
      7.004  0.1326E+00  0.4660E+00
      7.068  0.5102E-01  0.4721E+00
      7.133  0.3915E-01  0.4750E+00
      7.198  0.2707E-01  0.4770E+00
      7.263  0.1683E-01  0.4784E+00
      7.328  0.1138E-01  0.4793E+00
      7.393  0.6009E-02  0.4798E+00
      7.457  0.0000E+00  0.4800E+00
      7.522  0.0000E+00  0.4800E+00
      7.587  0.0000E+00  0.4800E+00
      7.652  0.0000E+00  0.4800E+00
      7.717  0.0000E+00  0.4800E+00
      7.781  0.0000E+00  0.4800E+00
      7.846  0.0000E+00  0.4800E+00
      7.911  0.0000E+00  0.4800E+00
      7.976  0.0000E+00  0.4800E+00
      8.041  0.0000E+00  0.4800E+00
      8.106  0.0000E+00  0.4800E+00
      8.170  0.0000E+00  0.4800E+00
      8.235  0.0000E+00  0.4800E+00
      8.300  0.0000E+00  0.4800E+00
      8.365  0.0000E+00  0.4800E+00
      8.430  0.0000E+00  0.4800E+00
