       N       E                     dE             d eps       ncg     rms          rms(c)
DAV:   1    -0.323434142773E+02   -0.32343E+02   -0.26077E-01   544   0.224E+00    0.825E-01
DAV:   2    -0.323374574206E+02    0.59569E-02   -0.14003E-02   504   0.524E-01    0.492E-01
DAV:   3    -0.323355068144E+02    0.19506E-02   -0.94626E-03   512   0.355E-01    0.556E-02
DAV:   4    -0.323353783172E+02    0.12850E-03   -0.56449E-04   504   0.109E-01    0.315E-02
DAV:   5    -0.323353632584E+02    0.15059E-04   -0.70178E-05   240   0.338E-02
   1 F= -.32335363E+02 E0= -.32335363E+02  d E =-.323354E+02
       N       E                     dE             d eps       ncg     rms          rms(c)
DAV:   1    -0.328733537581E+02   -0.53798E+00   -0.19003E+00   544   0.587E+00    0.147E+00
DAV:   2    -0.328079935703E+02    0.65360E-01   -0.11151E-01   504   0.150E+00    0.761E-01
DAV:   3    -0.327858539249E+02    0.22140E-01   -0.78742E-02   528   0.102E+00    0.220E-01
DAV:   4    -0.327849847599E+02    0.86916E-03   -0.32466E-03   512   0.271E-01    0.163E-01
DAV:   5    -0.327844402392E+02    0.54452E-03   -0.98169E-04   560   0.130E-01    0.766E-02
DAV:   6    -0.327844421288E+02   -0.18896E-05   -0.79095E-05   240   0.353E-02
   2 F= -.32784442E+02 E0= -.32784442E+02  d E =-.449079E+00
       N       E                     dE             d eps       ncg     rms          rms(c)
DAV:   1    -0.333973542489E+02   -0.61291E+00   -0.57806E+00   520   0.999E+00    0.248E+00
DAV:   2    -0.331979737171E+02    0.19938E+00   -0.33960E-01   512   0.261E+00    0.126E+00
DAV:   3    -0.331327584141E+02    0.65215E-01   -0.23689E-01   520   0.174E+00    0.350E-01
DAV:   4    -0.331295576687E+02    0.32007E-02   -0.10878E-02   512   0.489E-01    0.234E-01
DAV:   5    -0.331281227810E+02    0.14349E-02   -0.27611E-03   552   0.218E-01    0.129E-01
DAV:   6    -0.331281419953E+02   -0.19214E-04   -0.21189E-04   368   0.539E-02
   3 F= -.33128142E+02 E0= -.33128142E+02  d E =-.792779E+00
       N       E                     dE             d eps       ncg     rms          rms(c)
DAV:   1    -0.331479928979E+02   -0.19870E-01   -0.21305E-01   512   0.193E+00    0.467E-01
DAV:   2    -0.331409052754E+02    0.70876E-02   -0.12571E-02   520   0.495E-01    0.239E-01
DAV:   3    -0.331385695484E+02    0.23357E-02   -0.84685E-03   520   0.328E-01    0.718E-02
DAV:   4    -0.331384559155E+02    0.11363E-03   -0.36840E-04   496   0.898E-02    0.489E-02
DAV:   5    -0.331383947674E+02    0.61148E-04   -0.96811E-05   240   0.428E-02
   4 F= -.33138395E+02 E0= -.33138395E+02  d E =-.803032E+00
