GaAs                                    
   4.50000000000000     
     1.190800    0.000000    0.000000
     0.000000    1.190800    0.000000
     0.000000    0.000000    1.190800
   As   Ga
     4     4
Direct
  0.000000  0.000000  0.000000
  0.500000  0.500000  0.000000
  0.500000  0.000000  0.500000
  0.000000  0.500000  0.500000
  0.250000  0.250000  0.250000
  0.750000  0.250000  0.750000
  0.750000  0.750000  0.250000
  0.250000  0.750000  0.750000
 
   60   60   60
 -61.173     -54.197     -34.720     -6.7005      24.478      53.396      75.844      89.537      94.174      91.026    
  82.329      70.713      58.732      48.109      39.048      31.474      25.274      20.295      16.347      13.238    
  10.792      8.8737      7.3764      6.2186      5.3339      4.6673      4.1736      3.8192      3.5811      3.4442    
  3.3997      3.4442      3.5811      3.8192      4.1736      4.6673      5.3339      6.2186      7.3764      8.8737    
  10.792      13.238      16.347      20.295      25.274      31.474      39.048      48.109      58.732      70.713    
  82.329      91.026      94.174      89.537      75.844      53.396      24.478     -6.7005     -34.720     -54.197    
 -54.197     -47.461     -28.664     -1.6513      28.351      56.087      77.485      90.341      94.382      90.866    
  81.992      70.346      58.433      47.895      38.902      31.381      25.224      20.276      16.350      13.256    
  10.820      8.9083      7.4153      6.2602      5.3773      4.7114      4.2181      3.8638      3.6257      3.4888    
  3.4442      3.4888      3.6257      3.8638      4.2181      4.7114      5.3773      6.2602      7.4153      8.9083    
  10.820      13.256      16.350      20.276      25.224      31.381      38.902      47.895      58.433      70.346    
  81.992      90.866      94.382      90.341      77.485      56.087      28.351     -1.6513     -28.664     -47.461    
 -34.720     -28.664     -11.791      12.376      39.058      63.467      81.912      92.421      94.802      90.272    
  80.932      69.234      57.544      47.257      38.466      31.107      25.074      20.219      16.360      13.311    
  10.906      9.0138      7.5341      6.3876      5.5098      4.8467      4.3546      4.0006      3.7626      3.6257    
  3.5811      3.6257      3.7626      4.0006      4.3546      4.8467      5.5098      6.3876      7.5341      9.0138    
  10.906      13.311      16.360      20.219      25.074      31.107      38.466      47.257      57.544      69.234    
  80.932      90.272      94.802      92.421      81.912      63.467      39.058      12.376     -11.791     -28.664    
 -6.7005     -1.6513      12.376      32.340      54.133      73.658      87.787      94.891      94.892      88.955    
  79.024      67.358      56.087      46.209      37.750      30.655      24.829      20.128      16.379      13.406    
  11.053      9.1955      7.7391      6.6078      5.7392      5.0812      4.5914      4.2384      4.0006      3.8638    
  3.8192      3.8638      4.0006      4.2384      4.5914      5.0812      5.7392      6.6078      7.7391      9.1955    
  11.053      13.406      16.379      20.128      24.829      30.655      37.750      46.209      56.087      67.358    
  79.024      88.955      94.892      94.891      87.787      73.658      54.133      32.340      12.376     -1.6513    
  24.478      28.351      39.058      54.133      70.258      84.151      93.338      96.589      93.963      86.563    
  76.149      64.738      54.102      44.778      36.770      30.038      24.495      20.008      16.413      13.547    
  11.268      9.4618      8.0400      6.9318      6.0776      5.4278      4.9423      4.5914      4.3546      4.2181    
  4.1736      4.2181      4.3546      4.5914      4.9423      5.4278      6.0776      6.9318      8.0400      9.4618    
  11.268      13.547      16.413      20.008      24.495      30.038      36.770      44.778      54.102      64.738    
  76.149      86.563      93.963      96.589      93.338      84.151      70.258      54.133      39.058      28.351    
  53.396      56.087      63.467      73.658      84.151      92.486      96.854      96.428      91.410      82.836    
  72.274      61.471      51.651      43.006      35.557      29.276      24.088      19.869      16.469      13.743    
  11.562      9.8244      8.4509      7.3755      6.5426      5.9058      5.4278      5.0812      4.8467      4.7114    
  4.6673      4.7114      4.8467      5.0812      5.4278      5.9058      6.5426      7.3755      8.4509      9.8244    
  11.562      13.743      16.469      19.869      24.088      29.276      35.557      43.006      51.651      61.471    
  72.274      82.836      91.410      96.428      96.854      92.486      84.151      73.658      63.467      56.087    
  75.844      77.485      81.912      87.787      93.338      96.854      97.128      93.706      86.917      77.737    
  67.535      57.707      48.816      40.952      34.151      28.398      23.627      19.725      16.561      14.005    
  11.947      10.300      8.9906      7.9609      7.1591      6.5426      6.0776      5.7392      5.5098      5.3773    
  5.3339      5.3773      5.5098      5.7392      6.0776      6.5426      7.1591      7.9609      8.9906      10.300    
  11.947      14.005      16.561      19.725      23.627      28.398      34.151      40.952      48.816      57.707    
  67.535      77.737      86.917      93.706      97.128      96.854      93.338      87.787      81.912      77.485    
  89.537      90.341      92.421      94.891      96.589      96.428      93.706      88.276      80.578      71.516    
  62.252      53.584      45.697      38.690      32.607      27.442      23.138      19.596      16.703      14.349    
  12.443      10.909      9.6854      8.7180      7.9609      7.3755      6.9318      6.6078      6.3876      6.2602    
  6.2186      6.2602      6.3876      6.6078      6.9318      7.3755      7.9609      8.7180      9.6854      10.909    
  12.443      14.349      16.703      19.596      23.138      27.442      32.607      38.690      45.697      53.584    
  62.252      71.516      80.578      88.276      93.706      96.428      96.589      94.891      92.421      90.341    
  94.174      94.382      94.802      94.892      93.963      91.410      86.917      80.578      72.897      64.697    
  56.729      49.251      42.409      36.304      30.985      26.451      22.652      19.506      16.918      14.799    
  13.075      11.683      10.569      9.6854      8.9906      8.4509      8.0400      7.7391      7.5341      7.4153    
  7.3764      7.4153      7.5341      7.7391      8.0400      8.4509      8.9906      9.6854      10.569      11.683    
  13.075      14.799      16.918      19.506      22.652      26.451      30.985      36.304      42.409      49.251    
  56.729      64.697      72.897      80.578      86.917      91.410      93.963      94.892      94.802      94.382    
  91.026      90.866      90.272      88.955      86.563      82.836      77.737      71.516      64.697      57.829    
  51.158      44.859      39.069      33.883      29.351      25.473      22.205      19.483      17.232      15.383    
  13.875      12.658      11.683      10.909      10.300      9.8244      9.4618      9.1955      9.0138      8.9083    
  8.8737      8.9083      9.0138      9.1955      9.4618      9.8244      10.300      10.909      11.683      12.658    
  13.875      15.383      17.232      19.483      22.205      25.473      29.351      33.883      39.069      44.859    
  51.158      57.829      64.697      71.516      77.737      82.836      86.563      88.955      90.272      90.866    
  82.329      81.992      80.932      79.024      76.149      72.274      67.535      62.252      56.729      51.158    
  45.715      40.551      35.790      31.515      27.769      24.552      21.832      19.559      17.677      16.133    
  14.881      13.875      13.075      12.443      11.947      11.562      11.268      11.053      10.906      10.820    
  10.792      10.820      10.906      11.053      11.268      11.562      11.947      12.443      13.075      13.875    
  14.881      16.133      17.677      19.559      21.832      24.552      27.769      31.515      35.790      40.551    
  45.715      51.158      56.729      62.252      67.535      72.274      76.149      79.024      80.932      81.992    
  70.713      70.346      69.234      67.358      64.738      61.471      57.707      53.584      49.251      44.859    
  40.551      36.455      32.674      29.276      26.296      23.735      21.571      19.768      18.287      17.089    
  16.133      15.383      14.799      14.349      14.005      13.743      13.547      13.406      13.311      13.256    
  13.238      13.256      13.311      13.406      13.547      13.743      14.005      14.349      14.799      15.383    
  16.133      17.089      18.287      19.768      21.571      23.735      26.296      29.276      32.674      36.455    
  40.551      44.859      49.251      53.584      57.707      61.471      64.738      67.358      69.234      70.346    
  58.732      58.433      57.544      56.087      54.102      51.651      48.816      45.697      42.409      39.069    
  35.790      32.674      29.801      27.227      24.978      23.058      21.454      20.144      19.099      18.287    
  17.677      17.232      16.918      16.703      16.561      16.469      16.413      16.379      16.360      16.350    
  16.347      16.350      16.360      16.379      16.413      16.469      16.561      16.703      16.918      17.232    
  17.677      18.287      19.099      20.144      21.454      23.058      24.978      27.227      29.801      32.674    
  35.790      39.069      42.409      45.697      48.816      51.651      54.102      56.087      57.544      58.433    
  48.109      47.895      47.257      46.209      44.778      43.006      40.952      38.690      36.304      33.883    
  31.515      29.276      27.227      25.410      23.850      22.552      21.512      20.716      20.144      19.768    
  19.559      19.483      19.506      19.596      19.725      19.869      20.008      20.128      20.219      20.276    
  20.295      20.276      20.219      20.128      20.008      19.869      19.725      19.596      19.506      19.483    
  19.559      19.768      20.144      20.716      21.512      22.552      23.850      25.410      27.227      29.276    
  31.515      33.883      36.304      38.690      40.952      43.006      44.778      46.209      47.257      47.895    
  39.048      38.902      38.466      37.750      36.770      35.557      34.151      32.607      30.985      29.351    
  27.769      26.296      24.978      23.850      22.933      22.240      21.769      21.512      21.454      21.571    
  21.832      22.205      22.652      23.138      23.627      24.088      24.495      24.829      25.074      25.224    
  25.274      25.224      25.074      24.829      24.495      24.088      23.627      23.138      22.652      22.205    
  21.832      21.571      21.454      21.512      21.769      22.240      22.933      23.850      24.978      26.296    
  27.769      29.351      30.985      32.607      34.151      35.557      36.770      37.750      38.466      38.902    
  31.474      31.381      31.107      30.655      30.038      29.276      28.398      27.442      26.451      25.473    
  24.552      23.735      23.058      22.552      22.240      22.134      22.240      22.552      23.058      23.735    
  24.552      25.473      26.451      27.442      28.398      29.276      30.038      30.655      31.107      31.381    
  31.474      31.381      31.107      30.655      30.038      29.276      28.398      27.442      26.451      25.473    
  24.552      23.735      23.058      22.552      22.240      22.134      22.240      22.552      23.058      23.735    
  24.552      25.473      26.451      27.442      28.398      29.276      30.038      30.655      31.107      31.381    
  25.274      25.224      25.074      24.829      24.495      24.088      23.627      23.138      22.652      22.205    
  21.832      21.571      21.454      21.512      21.769      22.240      22.933      23.850      24.978      26.296    
  27.769      29.351      30.985      32.607      34.151      35.557      36.770      37.750      38.466      38.902    
  39.048      38.902      38.466      37.750      36.770      35.557      34.151      32.607      30.985      29.351    
  27.769      26.296      24.978      23.850      22.933      22.240      21.769      21.512      21.454      21.571    
  21.832      22.205      22.652      23.138      23.627      24.088      24.495      24.829      25.074      25.224    
  20.295      20.276      20.219      20.128      20.008      19.869      19.725      19.596      19.506      19.483    
  19.559      19.768      20.144      20.716      21.512      22.552      23.850      25.410      27.227      29.276    
  31.515      33.883      36.304      38.690      40.952      43.006      44.778      46.209      47.257      47.895    
  48.109      47.895      47.257      46.209      44.778      43.006      40.952      38.690      36.304      33.883    
  31.515      29.276      27.227      25.410      23.850      22.552      21.512      20.716      20.144      19.768    
  19.559      19.483      19.506      19.596      19.725      19.869      20.008      20.128      20.219      20.276    
  16.347      16.350      16.360      16.379      16.413      16.469      16.561      16.703      16.918      17.232    
  17.677      18.287      19.099      20.144      21.454      23.058      24.978      27.227      29.801      32.674    
  35.790      39.069      42.409      45.697      48.816      51.651      54.102      56.087      57.544      58.433    
  58.732      58.433      57.544      56.087      54.102      51.651      48.816      45.697      42.409      39.069    
  35.790      32.674      29.801      27.227      24.978      23.058      21.454      20.144      19.099      18.287    
  17.677      17.232      16.918      16.703      16.561      16.469      16.413      16.379      16.360      16.350    
  13.238      13.256      13.311      13.406      13.547      13.743      14.005      14.349      14.799      15.383    
  16.133      17.089      18.287      19.768      21.571      23.735      26.296      29.276      32.674      36.455    
  40.551      44.859      49.251      53.584      57.707      61.471      64.738      67.358      69.234      70.346    
  70.713      70.346      69.234      67.358      64.738      61.471      57.707      53.584      49.251      44.859    
  40.551      36.455      32.674      29.276      26.296      23.735      21.571      19.768      18.287      17.089    
  16.133      15.383      14.799      14.349      14.005      13.743      13.547      13.406      13.311      13.256    
  10.792      10.820      10.906      11.053      11.268      11.562      11.947      12.443      13.075      13.875    
  14.881      16.133      17.677      19.559      21.832      24.552      27.769      31.515      35.790      40.551    
  45.715      51.158      56.729      62.252      67.535      72.274      76.149      79.024      80.932      81.992    
  82.329      81.992      80.932      79.024      76.149      72.274      67.535      62.252      56.729      51.158    
  45.715      40.551      35.790      31.515      27.769      24.552      21.832      19.559      17.677      16.133    
  14.881      13.875      13.075      12.443      11.947      11.562      11.268      11.053      10.906      10.820    
  8.8737      8.9083      9.0138      9.1955      9.4618      9.8244      10.300      10.909      11.683      12.658    
  13.875      15.383      17.232      19.483      22.205      25.473      29.351      33.883      39.069      44.859    
  51.158      57.829      64.697      71.516      77.737      82.836      86.563      88.955      90.272      90.866    
  91.026      90.866      90.272      88.955      86.563      82.836      77.737      71.516      64.697      57.829    
  51.158      44.859      39.069      33.883      29.351      25.473      22.205      19.483      17.232      15.383    
  13.875      12.658      11.683      10.909      10.300      9.8244      9.4618      9.1955      9.0138      8.9083    
  7.3764      7.4153      7.5341      7.7391      8.0400      8.4509      8.9906      9.6854      10.569      11.683    
  13.075      14.799      16.918      19.506      22.652      26.451      30.985      36.304      42.409      49.251    
  56.729      64.697      72.897      80.578      86.917      91.410      93.963      94.892      94.802      94.382    
  94.174      94.382      94.802      94.892      93.963      91.410      86.917      80.578      72.897      64.697    
  56.729      49.251      42.409      36.304      30.985      26.451      22.652      19.506      16.918      14.799    
  13.075      11.683      10.569      9.6854      8.9906      8.4509      8.0400      7.7391      7.5341      7.4153    
  6.2186      6.2602      6.3876      6.6078      6.9318      7.3755      7.9609      8.7180      9.6854      10.909    
  12.443      14.349      16.703      19.596      23.138      27.442      32.607      38.690      45.697      53.584    
  62.252      71.516      80.578      88.276      93.706      96.428      96.589      94.891      92.421      90.341    
  89.537      90.341      92.421      94.891      96.589      96.428      93.706      88.276      80.578      71.516    
  62.252      53.584      45.697      38.690      32.607      27.442      23.138      19.596      16.703      14.349    
  12.443      10.909      9.6854      8.7180      7.9609      7.3755      6.9318      6.6078      6.3876      6.2602    
  5.3339      5.3773      5.5098      5.7392      6.0776      6.5426      7.1591      7.9609      8.9906      10.300    
  11.947      14.005      16.561      19.725      23.627      28.398      34.151      40.952      48.816      57.707    
  67.535      77.737      86.917      93.706      97.128      96.854      93.338      87.787      81.912      77.485    
  75.844      77.485      81.912      87.787      93.338      96.854      97.128      93.706      86.917      77.737    
  67.535      57.707      48.816      40.952      34.151      28.398      23.627      19.725      16.561      14.005    
  11.947      10.300      8.9906      7.9609      7.1591      6.5426      6.0776      5.7392      5.5098      5.3773    
  4.6673      4.7114      4.8467      5.0812      5.4278      5.9058      6.5426      7.3755      8.4509      9.8244    
  11.562      13.743      16.469      19.869      24.088      29.276      35.557      43.006      51.651      61.471    
  72.274      82.836      91.410      96.428      96.854      92.486      84.151      73.658      63.467      56.087    
  53.396      56.087      63.467      73.658      84.151      92.486      96.854      96.428      91.410      82.836    
  72.274      61.471      51.651      43.006      35.557      29.276      24.088      19.869      16.469      13.743    
  11.562      9.8244      8.4509      7.3755      6.5426      5.9058      5.4278      5.0812      4.8467      4.7114    
  4.1736      4.2181      4.3546      4.5914      4.9423      5.4278      6.0776      6.9318      8.0400      9.4618    
  11.268      13.547      16.413      20.008      24.495      30.038      36.770      44.778      54.102      64.738    
  76.149      86.563      93.963      96.589      93.338      84.151      70.258      54.133      39.058      28.351    
  24.478      28.351      39.058      54.133      70.258      84.151      93.338      96.589      93.963      86.563    
  76.149      64.738      54.102      44.778      36.770      30.038      24.495      20.008      16.413      13.547    
  11.268      9.4618      8.0400      6.9318      6.0776      5.4278      4.9423      4.5914      4.3546      4.2181    
  3.8192      3.8638      4.0006      4.2384      4.5914      5.0812      5.7392      6.6078      7.7391      9.1955    
  11.053      13.406      16.379      20.128      24.829      30.655      37.750      46.209      56.087      67.358    
  79.024      88.955      94.892      94.891      87.787      73.658      54.133      32.340      12.376     -1.6513    
 -6.7005     -1.6513      12.376      32.340      54.133      73.658      87.787      94.891      94.892      88.955    
  79.024      67.358      56.087      46.209      37.750      30.655      24.829      20.128      16.379      13.406    
  11.053      9.1955      7.7391      6.6078      5.7392      5.0812      4.5914      4.2384      4.0006      3.8638    
  3.5811      3.6257      3.7626      4.0006      4.3546      4.8467      5.5098      6.3876      7.5341      9.0138    
  10.906      13.311      16.360      20.219      25.074      31.107      38.466      47.257      57.544      69.234    
  80.932      90.272      94.802      92.421      81.912      63.467      39.058      12.376     -11.791     -28.664    
 -34.720     -28.664     -11.791      12.376      39.058      63.467      81.912      92.421      94.802      90.272    
  80.932      69.234      57.544      47.257      38.466      31.107      25.074      20.219      16.360      13.311    
  10.906      9.0138      7.5341      6.3876      5.5098      4.8467      4.3546      4.0006      3.7626      3.6257    
  3.4442      3.4888      3.6257      3.8638      4.2181      4.7114      5.3773      6.2602      7.4153      8.9083    
  10.820      13.256      16.350      20.276      25.224      31.381      38.902      47.895      58.433      70.346    
  81.992      90.866      94.382      90.341      77.485      56.087      28.351     -1.6513     -28.664     -47.461    
 -54.197     -47.461     -28.664     -1.6513      28.351      56.087      77.485      90.341      94.382      90.866    
  81.992      70.346      58.433      47.895      38.902      31.381      25.224      20.276      16.350      13.256    
  10.820      8.9083      7.4153      6.2602      5.3773      4.7114      4.2181      3.8638      3.6257      3.4888    
  3.3997      3.4442      3.5811      3.8192      4.1736      4.6673      5.3339      6.2186      7.3764      8.8737    
  10.792      13.238      16.347      20.295      25.274      31.474      39.048      48.109      58.732      70.713    
  82.329      91.026      94.174      89.537      75.844      53.396      24.478     -6.7005     -34.720     -54.197    
 -61.173     -54.197     -34.720     -6.7005      24.478      53.396      75.844      89.537      94.174      91.026    
  82.329      70.713      58.732      48.109      39.048      31.474      25.274      20.295      16.347      13.238    
  10.792      8.8737      7.3764      6.2186      5.3339      4.6673      4.1736      3.8192      3.5811      3.4442    
  3.4442      3.4888      3.6257      3.8638      4.2181      4.7114      5.3773      6.2602      7.4153      8.9083    
  10.820      13.256      16.350      20.276      25.224      31.381      38.902      47.895      58.433      70.346    
  81.992      90.866      94.382      90.341      77.485      56.087      28.351     -1.6513     -28.664     -47.461    
 -54.197     -47.461     -28.664     -1.6513      28.351      56.087      77.485      90.341      94.382      90.866    
  81.992      70.346      58.433      47.895      38.902      31.381      25.224      20.276      16.350      13.256    
  10.820      8.9083      7.4153      6.2602      5.3773      4.7114      4.2181      3.8638      3.6257      3.4888    
  3.5811      3.6257      3.7626      4.0006      4.3546      4.8467      5.5098      6.3876      7.5341      9.0138    
  10.906      13.311      16.360      20.219      25.074      31.107      38.466      47.257      57.544      69.234    
  80.932      90.272      94.802      92.421      81.912      63.467      39.058      12.376     -11.791     -28.664    
 -34.720     -28.664     -11.791      12.376      39.058      63.467      81.912      92.421      94.802      90.272    
  80.932      69.234      57.544      47.257      38.466      31.107      25.074      20.219      16.360      13.311    
  10.906      9.0138      7.5341      6.3876      5.5098      4.8467      4.3546      4.0006      3.7626      3.6257    
  3.8192      3.8638      4.0006      4.2384      4.5914      5.0812      5.7392      6.6078      7.7391      9.1955    
  11.053      13.406      16.379      20.128      24.829      30.655      37.750      46.209      56.087      67.358    
  79.024      88.955      94.892      94.891      87.787      73.658      54.133      32.340      12.376     -1.6513    
 -6.7005     -1.6513      12.376      32.340      54.133      73.658      87.787      94.891      94.892      88.955    
  79.024      67.358      56.087      46.209      37.750      30.655      24.829      20.128      16.379      13.406    
  11.053      9.1955      7.7391      6.6078      5.7392      5.0812      4.5914      4.2384      4.0006      3.8638    
  4.1736      4.2181      4.3546      4.5914      4.9423      5.4278      6.0776      6.9318      8.0400      9.4618    
  11.268      13.547      16.413      20.008      24.495      30.038      36.770      44.778      54.102      64.738    
  76.149      86.563      93.963      96.589      93.338      84.151      70.258      54.133      39.058      28.351    
  24.478      28.351      39.058      54.133      70.258      84.151      93.338      96.589      93.963      86.563    
  76.149      64.738      54.102      44.778      36.770      30.038      24.495      20.008      16.413      13.547    
  11.268      9.4618      8.0400      6.9318      6.0776      5.4278      4.9423      4.5914      4.3546      4.2181    
  4.6673      4.7114      4.8467      5.0812      5.4278      5.9058      6.5426      7.3755      8.4509      9.8244    
  11.562      13.743      16.469      19.869      24.088      29.276      35.557      43.006      51.651      61.471    
  72.274      82.836      91.410      96.428      96.854      92.486      84.151      73.658      63.467      56.087    
  53.396      56.087      63.467      73.658      84.151      92.486      96.854      96.428      91.410      82.836    
  72.274      61.471      51.651      43.006      35.557      29.276      24.088      19.869      16.469      13.743    
  11.562      9.8244      8.4509      7.3755      6.5426      5.9058      5.4278      5.0812      4.8467      4.7114    
  5.3339      5.3773      5.5098      5.7392      6.0776      6.5426      7.1591      7.9609      8.9906      10.300    
  11.947      14.005      16.561      19.725      23.627      28.398      34.151      40.952      48.816      57.707    
  67.535      77.737      86.917      93.706      97.128      96.854      93.338      87.787      81.912      77.485    
  75.844      77.485      81.912      87.787      93.338      96.854      97.128      93.706      86.917      77.737    
  67.535      57.707      48.816      40.952      34.151      28.398      23.627      19.725      16.561      14.005    
  11.947      10.300      8.9906      7.9609      7.1591      6.5426      6.0776      5.7392      5.5098      5.3773    
  6.2186      6.2602      6.3876      6.6078      6.9318      7.3755      7.9609      8.7180      9.6854      10.909    
  12.443      14.349      16.703      19.596      23.138      27.442      32.607      38.690      45.697      53.584    
  62.252      71.516      80.578      88.276      93.706      96.428      96.589      94.891      92.421      90.341    
  89.537      90.341      92.421      94.891      96.589      96.428      93.706      88.276      80.578      71.516    
  62.252      53.584      45.697      38.690      32.607      27.442      23.138      19.596      16.703      14.349    
  12.443      10.909      9.6854      8.7180      7.9609      7.3755      6.9318      6.6078      6.3876      6.2602    
  7.3764      7.4153      7.5341      7.7391      8.0400      8.4509      8.9906      9.6854      10.569      11.683    
  13.075      14.799      16.918      19.506      22.652      26.451      30.985      36.304      42.409      49.251    
  56.729      64.697      72.897      80.578      86.917      91.410      93.963      94.892      94.802      94.382    
  94.174      94.382      94.802      94.892      93.963      91.410      86.917      80.578      72.897      64.697    
  56.729      49.251      42.409      36.304      30.985      26.451      22.652      19.506      16.918      14.799    
  13.075      11.683      10.569      9.6854      8.9906      8.4509      8.0400      7.7391      7.5341      7.4153    
  8.8737      8.9083      9.0138      9.1955      9.4618      9.8244      10.300      10.909      11.683      12.658    
  13.875      15.383      17.232      19.483      22.205      25.473      29.351      33.883      39.069      44.859    
  51.158      57.829      64.697      71.516      77.737      82.836      86.563      88.955      90.272      90.866    
  91.026      90.866      90.272      88.955      86.563      82.836      77.737      71.516      64.697      57.829    
  51.158      44.859      39.069      33.883      29.351      25.473      22.205      19.483      17.232      15.383    
  13.875      12.658      11.683      10.909      10.300      9.8244      9.4618      9.1955      9.0138      8.9083    
  10.792      10.820      10.906      11.053      11.268      11.562      11.947      12.443      13.075      13.875    
  14.881      16.133      17.677      19.559      21.832      24.552      27.769      31.515      35.790      40.551    
  45.715      51.158      56.729      62.252      67.535      72.274      76.149      79.024      80.932      81.992    