GaAs                                    
   4.50000000000000     
     1.190800    0.000000    0.000000
     0.000000    1.190800    0.000000
     0.000000    0.000000    1.190800
   As   Ga
     4     4
Direct
  0.000000  0.000000  0.000000
  0.500000  0.500000  0.000000
  0.500000  0.000000  0.500000
  0.000000  0.500000  0.500000
  0.250000  0.250000  0.250000
  0.750000  0.250000  0.750000
  0.750000  0.750000  0.250000
  0.250000  0.750000  0.750000
 
   60   60   60
 -.61173135419E+02 -.54196828062E+02 -.34720440605E+02 -.67004623222E+01 0.24478007721E+02
 0.53395834748E+02 0.75844390032E+02 0.89537315548E+02 0.94174359072E+02 0.91025970945E+02
 0.82329095157E+02 0.70713270441E+02 0.58731664575E+02 0.48108857437E+02 0.39047993514E+02
 0.31473538742E+02 0.25273977414E+02 0.20294739400E+02 0.16347489307E+02 0.13237646810E+02
 0.10792380064E+02 0.88737429408E+01 0.73763833103E+01 0.62185529918E+01 0.53339385088E+01
 0.46672565417E+01 0.41735792804E+01 0.38192034475E+01 0.35810785507E+01 0.34442370617E+01
 0.33996720383E+01 0.34442370617E+01 0.35810785507E+01 0.38192034475E+01 0.41735792804E+01
 0.46672565417E+01 0.53339385088E+01 0.62185529918E+01 0.73763833103E+01 0.88737429408E+01
 0.10792380064E+02 0.13237646810E+02 0.16347489307E+02 0.20294739400E+02 0.25273977414E+02
 0.31473538742E+02 0.39047993514E+02 0.48108857437E+02 0.58731664575E+02 0.70713270441E+02
 0.82329095157E+02 0.91025970945E+02 0.94174359072E+02 0.89537315548E+02 0.75844390032E+02
 0.53395834748E+02 0.24478007721E+02 -.67004623222E+01 -.34720440605E+02 -.54196828062E+02
 -.54196828062E+02 -.47460712716E+02 -.28664227686E+02 -.16513005189E+01 0.28350638114E+02
 0.56087350542E+02 0.77485386881E+02 0.90341094610E+02 0.94382147598E+02 0.90865660032E+02
 0.81992259603E+02 0.70346192594E+02 0.58433030441E+02 0.47894757628E+02 0.38901918928E+02
 0.31381490138E+02 0.25223774752E+02 0.20275654060E+02 0.16350463044E+02 0.13255630536E+02
 0.10820341408E+02 0.89082957774E+01 0.74152718314E+01 0.62602164789E+01 0.53772503941E+01
 0.47114186413E+01 0.42180879042E+01 0.38638019323E+01 0.36256727440E+01 0.34888109213E+01
 0.34442370617E+01 0.34888109213E+01 0.36256727440E+01 0.38638019323E+01 0.42180879042E+01
 0.47114186413E+01 0.53772503941E+01 0.62602164789E+01 0.74152718314E+01 0.89082957774E+01
 0.10820341408E+02 0.13255630536E+02 0.16350463044E+02 0.20275654060E+02 0.25223774752E+02
 0.31381490138E+02 0.38901918928E+02 0.47894757628E+02 0.58433030441E+02 0.70346192594E+02
 0.81992259603E+02 0.90865660032E+02 0.94382147598E+02 0.90341094610E+02 0.77485386881E+02
 0.56087350542E+02 0.28350638114E+02 -.16513005189E+01 -.28664227686E+02 -.47460712716E+02
 -.34720440605E+02 -.28664227686E+02 -.11791200932E+02 0.12375816696E+02 0.39057642613E+02
 0.63466987648E+02 0.81911812570E+02 0.92421246165E+02 0.94801572354E+02 0.90272406697E+02
 0.80931526761E+02 0.69233762708E+02 0.57544042746E+02 0.47256744832E+02 0.38466267089E+02
 0.31106891056E+02 0.25074141941E+02 0.20219142608E+02 0.16360187449E+02 0.13310656006E+02
 0.10905672854E+02 0.90137796995E+01 0.75340933290E+01 0.63876315003E+01 0.55098226803E+01
 0.48467107922E+01 0.43545570436E+01 0.40006452584E+01 0.37625678259E+01 0.36256727440E+01
 0.35810785507E+01 0.36256727440E+01 0.37625678259E+01 0.40006452584E+01 0.43545570436E+01
 0.48467107922E+01 0.55098226803E+01 0.63876315003E+01 0.75340933290E+01 0.90137796995E+01
 0.10905672854E+02 0.13310656006E+02 0.16360187449E+02 0.20219142608E+02 0.25074141941E+02
 0.31106891056E+02 0.38466267089E+02 0.47256744832E+02 0.57544042746E+02 0.69233762708E+02
 0.80931526761E+02 0.90272406697E+02 0.94801572354E+02 0.92421246165E+02 0.81911812570E+02
 0.63466987648E+02 0.39057642613E+02 0.12375816696E+02 -.11791200932E+02 -.28664227686E+02
 -.67004623222E+01 -.16513005189E+01 0.12375816696E+02 0.32340447188E+02 0.54132823834E+02
 0.73658302658E+02 0.87787292077E+02 0.94891117522E+02 0.94892035169E+02 0.88954888065E+02
 0.79024250873E+02 0.67358480428E+02 0.56086821806E+02 0.46208876776E+02 0.37749836404E+02
 0.30655294645E+02 0.24828705034E+02 0.20127913053E+02 0.16379323476E+02 0.13405997619E+02
 0.11052615291E+02 0.91954715323E+01 0.77390568972E+01 0.66077690897E+01 0.57392202629E+01
 0.50811618685E+01 0.45913875121E+01 0.42384225446E+01 0.40006452584E+01 0.38638019323E+01
 0.38192034475E+01 0.38638019323E+01 0.40006452584E+01 0.42384225446E+01 0.45913875121E+01
 0.50811618685E+01 0.57392202629E+01 0.66077690897E+01 0.77390568972E+01 0.91954715323E+01
 0.11052615291E+02 0.13405997619E+02 0.16379323476E+02 0.20127913053E+02 0.24828705034E+02
 0.30655294645E+02 0.37749836404E+02 0.46208876776E+02 0.56086821806E+02 0.67358480428E+02
 0.79024250873E+02 0.88954888065E+02 0.94892035169E+02 0.94891117522E+02 0.87787292077E+02
 0.73658302658E+02 0.54132823834E+02 0.32340447188E+02 0.12375816696E+02 -.16513005189E+01
 0.24478007721E+02 0.28350638114E+02 0.39057642613E+02 0.54132823834E+02 0.70257800308E+02
 0.84150548326E+02 0.93337509795E+02 0.96588743413E+02 0.93963164950E+02 0.86562603889E+02
 0.76148619034E+02 0.64737895417E+02 0.54101834442E+02 0.44777861787E+02 0.36770274124E+02
 0.30038440700E+02 0.24495382923E+02 0.20007737968E+02 0.16412988466E+02 0.13547299209E+02
 0.11268060479E+02 0.94617803831E+01 0.80400409694E+01 0.69317730594E+01 0.60776198761E+01
 0.54277878909E+01 0.49422837674E+01 0.45913875121E+01 0.43545570436E+01 0.42180879042E+01
 0.41735792804E+01 0.42180879042E+01 0.43545570436E+01 0.45913875121E+01 0.49422837674E+01
 0.54277878909E+01 0.60776198761E+01 0.69317730594E+01 0.80400409694E+01 0.94617803831E+01
 0.11268060479E+02 0.13547299209E+02 0.16412988466E+02 0.20007737968E+02 0.24495382923E+02
 0.30038440700E+02 0.36770274124E+02 0.44777861787E+02 0.54101834442E+02 0.64737895417E+02
 0.76148619034E+02 0.86562603889E+02 0.93963164950E+02 0.96588743413E+02 0.93337509795E+02
 0.84150548326E+02 0.70257800308E+02 0.54132823834E+02 0.39057642613E+02 0.28350638114E+02
 0.53395834748E+02 0.56087350542E+02 0.63466987648E+02 0.73658302658E+02 0.84150548326E+02
 0.92485779151E+02 0.96853511538E+02 0.96428179498E+02 0.91409822945E+02 0.82836277249E+02
 0.72274141153E+02 0.61471101626E+02 0.51650541017E+02 0.43005913921E+02 0.35556735589E+02
 0.29276398247E+02 0.24087945110E+02 0.19868507336E+02 0.16469415079E+02 0.13742949286E+02
 0.11561763434E+02 0.98244285645E+01 0.84508735602E+01 0.73754619360E+01 0.65426327235E+01
 0.59057819679E+01 0.54277878909E+01 0.50811618685E+01 0.48467107922E+01 0.47114186413E+01
 0.46672565417E+01 0.47114186413E+01 0.48467107922E+01 0.50811618685E+01 0.54277878909E+01
 0.59057819679E+01 0.65426327235E+01 0.73754619360E+01 0.84508735602E+01 0.98244285645E+01
 0.11561763434E+02 0.13742949286E+02 0.16469415079E+02 0.19868507336E+02 0.24087945110E+02
 0.29276398247E+02 0.35556735589E+02 0.43005913921E+02 0.51650541017E+02 0.61471101626E+02
 0.72274141153E+02 0.82836277249E+02 0.91409822945E+02 0.96428179498E+02 0.96853511538E+02
 0.92485779151E+02 0.84150548326E+02 0.73658302658E+02 0.63466987648E+02 0.56087350542E+02
 0.75844390032E+02 0.77485386881E+02 0.81911812570E+02 0.87787292077E+02 0.93337509795E+02
 0.96853511538E+02 0.97127891476E+02 0.93705518936E+02 0.86917177243E+02 0.77737287779E+02
 0.67535478902E+02 0.57706573512E+02 0.48815530150E+02 0.40951858037E+02 0.34151052576E+02
 0.28398444354E+02 0.23626640895E+02 0.19724778180E+02 0.16560562629E+02 0.14004827869E+02
 0.11947252228E+02 0.10299541545E+02 0.89906346548E+01 0.79608879023E+01 0.71591486193E+01
 0.65426327235E+01 0.60776198761E+01 0.57392202629E+01 0.55098226803E+01 0.53772503941E+01
 0.53339385088E+01 0.53772503941E+01 0.55098226803E+01 0.57392202629E+01 0.60776198761E+01
 0.65426327235E+01 0.71591486193E+01 0.79608879023E+01 0.89906346548E+01 0.10299541545E+02
 0.11947252228E+02 0.14004827869E+02 0.16560562629E+02 0.19724778180E+02 0.23626640895E+02
 0.28398444354E+02 0.34151052576E+02 0.40951858037E+02 0.48815530150E+02 0.57706573512E+02
 0.67535478902E+02 0.77737287779E+02 0.86917177243E+02 0.93705518936E+02 0.97127891476E+02
 0.96853511538E+02 0.93337509795E+02 0.87787292077E+02 0.81911812570E+02 0.77485386881E+02
 0.89537315548E+02 0.90341094610E+02 0.92421246165E+02 0.94891117522E+02 0.96588743413E+02
 0.96428179498E+02 0.93705518936E+02 0.88276348385E+02 0.80577724643E+02 0.71515665900E+02
 0.62252371090E+02 0.53583633701E+02 0.45697442120E+02 0.38689546258E+02 0.32606603956E+02
 0.27442194735E+02 0.23137736781E+02 0.19595864105E+02 0.16702782971E+02 0.14349459398E+02
 0.12443316159E+02 0.10909317124E+02 0.96853844289E+01 0.87180248207E+01 0.79608879023E+01
 0.73754619360E+01 0.69317730594E+01 0.66077690897E+01 0.63876315003E+01 0.62602164789E+01
 0.62185529918E+01 0.62602164789E+01 0.63876315003E+01 0.66077690897E+01 0.69317730594E+01
 0.73754619360E+01 0.79608879023E+01 0.87180248207E+01 0.96853844289E+01 0.10909317124E+02
 0.12443316159E+02 0.14349459398E+02 0.16702782971E+02 0.19595864105E+02 0.23137736781E+02
 0.27442194735E+02 0.32606603956E+02 0.38689546258E+02 0.45697442120E+02 0.53583633701E+02
 0.62252371090E+02 0.71515665900E+02 0.80577724643E+02 0.88276348385E+02 0.93705518936E+02
 0.96428179498E+02 0.96588743413E+02 0.94891117522E+02 0.92421246165E+02 0.90341094610E+02
 0.94174359072E+02 0.94382147598E+02 0.94801572354E+02 0.94892035169E+02 0.93963164950E+02
 0.91409822945E+02 0.86917177243E+02 0.80577724643E+02 0.72897157806E+02 0.64696893175E+02
 0.56728596959E+02 0.49250897692E+02 0.42409220576E+02 0.36303618773E+02 0.30985014013E+02
 0.26451315493E+02 0.22652360973E+02 0.19505737281E+02 0.16917524900E+02 0.14799182433E+02
 0.13075316272E+02 0.11683231554E+02 0.10569115961E+02 0.96853844289E+01 0.89906346548E+01
 0.84508735602E+01 0.80400409694E+01 0.77390568972E+01 0.75340933290E+01 0.74152718314E+01
 0.73763833103E+01 0.74152718314E+01 0.75340933290E+01 0.77390568972E+01 0.80400409694E+01
 0.84508735602E+01 0.89906346548E+01 0.96853844289E+01 0.10569115961E+02 0.11683231554E+02
 0.13075316272E+02 0.14799182433E+02 0.16917524900E+02 0.19505737281E+02 0.22652360973E+02
 0.26451315493E+02 0.30985014013E+02 0.36303618773E+02 0.42409220576E+02 0.49250897692E+02
 0.56728596959E+02 0.64696893175E+02 0.72897157806E+02 0.80577724643E+02 0.86917177243E+02
 0.91409822945E+02 0.93963164950E+02 0.94892035169E+02 0.94801572354E+02 0.94382147598E+02
 0.91025970945E+02 0.90865660032E+02 0.90272406697E+02 0.88954888065E+02 0.86562603889E+02
 0.82836277249E+02 0.77737287779E+02 0.71515665900E+02 0.64696893175E+02 0.57828520565E+02
 0.51157975437E+02 0.44858896523E+02 0.39068617839E+02 0.33883291109E+02 0.29351436180E+02
 0.25472523737E+02 0.22205091836E+02 0.19482764523E+02 0.17231657392E+02 0.15382559158E+02
 0.13875351412E+02 0.12657837644E+02 0.11683231554E+02 0.10909317124E+02 0.10299541545E+02
 0.98244285645E+01 0.94617803831E+01 0.91954715323E+01 0.90137796995E+01 0.89082957774E+01
 0.88737429408E+01 0.89082957774E+01 0.90137796995E+01 0.91954715323E+01 0.94617803831E+01
 0.98244285645E+01 0.10299541545E+02 0.10909317124E+02 0.11683231554E+02 0.12657837644E+02
 0.13875351412E+02 0.15382559158E+02 0.17231657392E+02 0.19482764523E+02 0.22205091836E+02
 0.25472523737E+02 0.29351436180E+02 0.33883291109E+02 0.39068617839E+02 0.44858896523E+02
 0.51157975437E+02 0.57828520565E+02 0.64696893175E+02 0.71515665900E+02 0.77737287779E+02
 0.82836277249E+02 0.86562603889E+02 0.88954888065E+02 0.90272406697E+02 0.90865660032E+02
 0.82329095157E+02 0.81992259603E+02 0.80931526761E+02 0.79024250873E+02 0.76148619034E+02
 0.72274141153E+02 0.67535478902E+02 0.62252371090E+02 0.56728596959E+02 0.51157975437E+02
 0.45714807350E+02 0.40551174919E+02 0.35789649570E+02 0.31515126379E+02 0.27769364709E+02
 0.24552472639E+02 0.21832382478E+02 0.19558915325E+02 0.17676795981E+02 0.16133432199E+02
 0.14880982951E+02 0.13875351412E+02 0.13075316272E+02 0.12443316159E+02 0.11947252228E+02
 0.11561763434E+02 0.11268060479E+02 0.11052615291E+02 0.10905672854E+02 0.10820341408E+02
 0.10792380064E+02 0.10820341408E+02 0.10905672854E+02 0.11052615291E+02 0.11268060479E+02
 0.11561763434E+02 0.11947252228E+02 0.12443316159E+02 0.13075316272E+02 0.13875351412E+02
 0.14880982951E+02 0.16133432199E+02 0.17676795981E+02 0.19558915325E+02 0.21832382478E+02
 0.24552472639E+02 0.27769364709E+02 0.31515126379E+02 0.35789649570E+02 0.40551174919E+02
 0.45714807350E+02 0.51157975437E+02 0.56728596959E+02 0.62252371090E+02 0.67535478902E+02
 0.72274141153E+02 0.76148619034E+02 0.79024250873E+02 0.80931526761E+02 0.81992259603E+02
 0.70713270441E+02 0.70346192594E+02 0.69233762708E+02 0.67358480428E+02 0.64737895417E+02
 0.61471101626E+02 0.57706573512E+02 0.53583633701E+02 0.49250897692E+02 0.44858896523E+02
 0.40551174919E+02 0.36455297498E+02 0.32673661466E+02 0.29275900267E+02 0.26295832702E+02
 0.23734836960E+02 0.21570661902E+02 0.19768089440E+02 0.18287443044E+02 0.17088909120E+02
 0.16133432199E+02 0.15382559158E+02 0.14799182433E+02 0.14349459398E+02 0.14004827869E+02
 0.13742949286E+02 0.13547299209E+02 0.13405997619E+02 0.13310656006E+02 0.13255630536E+02
 0.13237646810E+02 0.13255630536E+02 0.13310656006E+02 0.13405997619E+02 0.13547299209E+02
 0.13742949286E+02 0.14004827869E+02 0.14349459398E+02 0.14799182433E+02 0.15382559158E+02
 0.16133432199E+02 0.17088909120E+02 0.18287443044E+02 0.19768089440E+02 0.21570661902E+02
 0.23734836960E+02 0.26295832702E+02 0.29275900267E+02 0.32673661466E+02 0.36455297498E+02
 0.40551174919E+02 0.44858896523E+02 0.49250897692E+02 0.53583633701E+02 0.57706573512E+02
 0.61471101626E+02 0.64737895417E+02 0.67358480428E+02 0.69233762708E+02 0.70346192594E+02
 0.58731664575E+02 0.58433030441E+02 0.57544042746E+02 0.56086821806E+02 0.54101834442E+02
 0.51650541017E+02 0.48815530150E+02 0.45697442120E+02 0.42409220576E+02 0.39068617839E+02
 0.35789649570E+02 0.32673661466E+02 0.29801235294E+02 0.27226811828E+02 0.24977707761E+02
 0.23057783652E+02 0.21454094135E+02 0.20143730414E+02 0.19098574548E+02 0.18287443044E+02
 0.17676795981E+02 0.17231657392E+02 0.16917524900E+02 0.16702782971E+02 0.16560562629E+02
 0.16469415079E+02 0.16412988466E+02 0.16379323476E+02 0.16360187449E+02 0.16350463044E+02
 0.16347489307E+02 0.16350463044E+02 0.16360187449E+02 0.16379323476E+02 0.16412988466E+02
 0.16469415079E+02 0.16560562629E+02 0.16702782971E+02 0.16917524900E+02 0.17231657392E+02
 0.17676795981E+02 0.18287443044E+02 0.19098574548E+02 0.20143730414E+02 0.21454094135E+02
 0.23057783652E+02 0.24977707761E+02 0.27226811828E+02 0.29801235294E+02 0.32673661466E+02
 0.35789649570E+02 0.39068617839E+02 0.42409220576E+02 0.45697442120E+02 0.48815530150E+02
 0.51650541017E+02 0.54101834442E+02 0.56086821806E+02 0.57544042746E+02 0.58433030441E+02
 0.48108857437E+02 0.47894757628E+02 0.47256744832E+02 0.46208876776E+02 0.44777861787E+02
 0.43005913921E+02 0.40951858037E+02 0.38689546258E+02 0.36303618773E+02 0.33883291109E+02
 0.31515126379E+02 0.29275900267E+02 0.27226811828E+02 0.25410230203E+02 0.23849595373E+02
 0.22552044307E+02 0.21512342764E+02 0.20716446981E+02 0.20143730414E+02 0.19768089440E+02
 0.19558915325E+02 0.19482764523E+02 0.19505737281E+02 0.19595864105E+02 0.19724778180E+02
 0.19868507336E+02 0.20007737968E+02 0.20127913053E+02 0.20219142608E+02 0.20275654060E+02
 0.20294739400E+02 0.20275654060E+02 0.20219142608E+02 0.20127913053E+02 0.20007737968E+02
 0.19868507336E+02 0.19724778180E+02 0.19595864105E+02 0.19505737281E+02 0.19482764523E+02
 0.19558915325E+02 0.19768089440E+02 0.20143730414E+02 0.20716446981E+02 0.21512342764E+02
 0.22552044307E+02 0.23849595373E+02 0.25410230203E+02 0.27226811828E+02 0.29275900267E+02
 0.31515126379E+02 0.33883291109E+02 0.36303618773E+02 0.38689546258E+02 0.40951858037E+02
 0.43005913921E+02 0.44777861787E+02 0.46208876776E+02 0.47256744832E+02 0.47894757628E+02
 0.39047993514E+02 0.38901918928E+02 0.38466267089E+02 0.37749836404E+02 0.36770274124E+02
 0.35556735589E+02 0.34151052576E+02 0.32606603956E+02 0.30985014013E+02 0.29351436180E+02
 0.27769364709E+02 0.26295832702E+02 0.24977707761E+02 0.23849595373E+02 0.22933489426E+02
 0.22239783767E+02 0.21768842570E+02 0.21512342764E+02 0.21454094135E+02 0.21570661902E+02
 0.21832382478E+02 0.22205091836E+02 0.22652360973E+02 0.23137736781E+02 0.23626640895E+02
 0.24087945110E+02 0.24495382923E+02 0.24828705034E+02 0.25074141941E+02 0.25223774752E+02
 0.25273977414E+02 0.25223774752E+02 0.25074141941E+02 0.24828705034E+02 0.24495382923E+02
 0.24087945110E+02 0.23626640895E+02 0.23137736781E+02 0.22652360973E+02 0.22205091836E+02
 0.21832382478E+02 0.21570661902E+02 0.21454094135E+02 0.21512342764E+02 0.21768842570E+02
 0.22239783767E+02 0.22933489426E+02 0.23849595373E+02 0.24977707761E+02 0.26295832702E+02
 0.27769364709E+02 0.29351436180E+02 0.30985014013E+02 0.32606603956E+02 0.34151052576E+02
 0.35556735589E+02 0.36770274124E+02 0.37749836404E+02 0.38466267089E+02 0.38901918928E+02
 0.31473538742E+02 0.31381490138E+02 0.31106891056E+02 0.30655294645E+02 0.30038440700E+02
 0.29276398247E+02 0.28398444354E+02 0.27442194735E+02 0.26451315493E+02 0.25472523737E+02
 0.24552472639E+02 0.23734836960E+02 0.23057783652E+02 0.22552044307E+02 0.22239783767E+02
 0.22134236526E+02 0.22239783767E+02 0.22552044307E+02 0.23057783652E+02 0.23734836960E+02
 0.24552472639E+02 0.25472523737E+02 0.26451315493E+02 0.27442194735E+02 0.28398444354E+02
 0.29276398247E+02 0.30038440700E+02 0.30655294645E+02 0.31106891056E+02 0.31381490138E+02
 0.31473538742E+02 0.31381490138E+02 0.31106891056E+02 0.30655294645E+02 0.30038440700E+02
 0.29276398247E+02 0.28398444354E+02 0.27442194735E+02 0.26451315493E+02 0.25472523737E+02
 0.24552472639E+02 0.23734836960E+02 0.23057783652E+02 0.22552044307E+02 0.22239783767E+02
 0.22134236526E+02 0.22239783767E+02 0.22552044307E+02 0.23057783652E+02 0.23734836960E+02
 0.24552472639E+02 0.25472523737E+02 0.26451315493E+02 0.27442194735E+02 0.28398444354E+02
 0.29276398247E+02 0.30038440700E+02 0.30655294645E+02 0.31106891056E+02 0.31381490138E+02
 0.25273977414E+02 0.25223774752E+02 0.25074141941E+02 0.24828705034E+02 0.24495382923E+02
 0.24087945110E+02 0.23626640895E+02 0.23137736781E+02 0.22652360973E+02 0.22205091836E+02
 0.21832382478E+02 0.21570661902E+02 0.21454094135E+02 0.21512342764E+02 0.21768842570E+02
 0.22239783767E+02 0.22933489426E+02 0.23849595373E+02 0.24977707761E+02 0.26295832702E+02
 0.27769364709E+02 0.29351436180E+02 0.30985014013E+02 0.32606603956E+02 0.34151052576E+02
 0.35556735589E+02 0.36770274124E+02 0.37749836404E+02 0.38466267089E+02 0.38901918928E+02
 0.39047993514E+02 0.38901918928E+02 0.38466267089E+02 0.37749836404E+02 0.36770274124E+02
 0.35556735589E+02 0.34151052576E+02 0.32606603956E+02 0.30985014013E+02 0.29351436180E+02
 0.27769364709E+02 0.26295832702E+02 0.24977707761E+02 0.23849595373E+02 0.22933489426E+02
 0.22239783767E+02 0.21768842570E+02 0.21512342764E+02 0.21454094135E+02 0.21570661902E+02
 0.21832382478E+02 0.22205091836E+02 0.22652360973E+02 0.23137736781E+02 0.23626640895E+02
 0.24087945110E+02 0.24495382923E+02 0.24828705034E+02 0.25074141941E+02 0.25223774752E+02
 0.20294739400E+02 0.20275654060E+02 0.20219142608E+02 0.20127913053E+02 0.20007737968E+02
 0.19868507336E+02 0.19724778180E+02 0.19595864105E+02 0.19505737281E+02 0.19482764523E+02
 0.19558915325E+02 0.19768089440E+02 0.20143730414E+02 0.20716446981E+02 0.21512342764E+02
 0.22552044307E+02 0.23849595373E+02 0.25410230203E+02 0.27226811828E+02 0.29275900267E+02
 0.31515126379E+02 0.33883291109E+02 0.36303618773E+02 0.38689546258E+02 0.40951858037E+02
 0.43005913921E+02 0.44777861787E+02 0.46208876776E+02 0.47256744832E+02 0.47894757628E+02
 0.48108857437E+02 0.47894757628E+02 0.47256744832E+02 0.46208876776E+02 0.44777861787E+02
 0.43005913921E+02 0.40951858037E+02 0.38689546258E+02 0.36303618773E+02 0.33883291109E+02
 0.31515126379E+02 0.29275900267E+02 0.27226811828E+02 0.25410230203E+02 0.23849595373E+02
 0.22552044307E+02 0.21512342764E+02 0.20716446981E+02 0.20143730414E+02 0.19768089440E+02
 0.19558915325E+02 0.19482764523E+02 0.19505737281E+02 0.19595864105E+02 0.19724778180E+02
 0.19868507336E+02 0.20007737968E+02 0.20127913053E+02 0.20219142608E+02 0.20275654060E+02
 0.16347489307E+02 0.16350463044E+02 0.16360187449E+02 0.16379323476E+02 0.16412988466E+02
 0.16469415079E+02 0.16560562629E+02 0.16702782971E+02 0.16917524900E+02 0.17231657392E+02
 0.17676795981E+02 0.18287443044E+02 0.19098574548E+02 0.20143730414E+02 0.21454094135E+02
 0.23057783652E+02 0.24977707761E+02 0.27226811828E+02 0.29801235294E+02 0.32673661466E+02
 0.35789649570E+02 0.39068617839E+02 0.42409220576E+02 0.45697442120E+02 0.48815530150E+02
 0.51650541017E+02 0.54101834442E+02 0.56086821806E+02 0.57544042746E+02 0.58433030441E+02
 0.58731664575E+02 0.58433030441E+02 0.57544042746E+02 0.56086821806E+02 0.54101834442E+02
 0.51650541017E+02 0.48815530150E+02 0.45697442120E+02 0.42409220576E+02 0.39068617839E+02
 0.35789649570E+02 0.32673661466E+02 0.29801235294E+02 0.27226811828E+02 0.24977707761E+02
 0.23057783652E+02 0.21454094135E+02 0.20143730414E+02 0.19098574548E+02 0.18287443044E+02
 0.17676795981E+02 0.17231657392E+02 0.16917524900E+02 0.16702782971E+02 0.16560562629E+02
 0.16469415079E+02 0.16412988466E+02 0.16379323476E+02 0.16360187449E+02 0.16350463044E+02
 0.13237646810E+02 0.13255630536E+02 0.13310656006E+02 0.13405997619E+02 0.13547299209E+02
 0.13742949286E+02 0.14004827869E+02 0.14349459398E+02 0.14799182433E+02 0.15382559158E+02
 0.16133432199E+02 0.17088909120E+02 0.18287443044E+02 0.19768089440E+02 0.21570661902E+02
 0.23734836960E+02 0.26295832702E+02 0.29275900267E+02 0.32673661466E+02 0.36455297498E+02
 0.40551174919E+02 0.44858896523E+02 0.49250897692E+02 0.53583633701E+02 0.57706573512E+02
 0.61471101626E+02 0.64737895417E+02 0.67358480428E+02 0.69233762708E+02 0.70346192594E+02
 0.70713270441E+02 0.70346192594E+02 0.69233762708E+02 0.67358480428E+02 0.64737895417E+02
 0.61471101626E+02 0.57706573512E+02 0.53583633701E+02 0.49250897692E+02 0.44858896523E+02
 0.40551174919E+02 0.36455297498E+02 0.32673661466E+02 0.29275900267E+02 0.26295832702E+02
 0.23734836960E+02 0.21570661902E+02 0.19768089440E+02 0.18287443044E+02 0.17088909120E+02
 0.16133432199E+02 0.15382559158E+02 0.14799182433E+02 0.14349459398E+02 0.14004827869E+02
 0.13742949286E+02 0.13547299209E+02 0.13405997619E+02 0.13310656006E+02 0.13255630536E+02
 0.10792380064E+02 0.10820341408E+02 0.10905672854E+02 0.11052615291E+02 0.11268060479E+02
 0.11561763434E+02 0.11947252228E+02 0.12443316159E+02 0.13075316272E+02 0.13875351412E+02
 0.14880982951E+02 0.16133432199E+02 0.17676795981E+02 0.19558915325E+02 0.21832382478E+02
 0.24552472639E+02 0.27769364709E+02 0.31515126379E+02 0.35789649570E+02 0.40551174919E+02
 0.45714807350E+02 0.51157975437E+02 0.56728596959E+02 0.62252371090E+02 0.67535478902E+02
 0.72274141153E+02 0.76148619034E+02 0.79024250873E+02 0.80931526761E+02 0.81992259603E+02
 0.82329095157E+02 0.81992259603E+02 0.80931526761E+02 0.79024250873E+02 0.76148619034E+02
 0.72274141153E+02 0.67535478902E+02 0.62252371090E+02 0.56728596959E+02 0.51157975437E+02
 0.45714807350E+02 0.40551174919E+02 0.35789649570E+02 0.31515126379E+02 0.27769364709E+02
 0.24552472639E+02 0.21832382478E+02 0.19558915325E+02 0.17676795981E+02 0.16133432199E+02
 0.14880982951E+02 0.13875351412E+02 0.13075316272E+02 0.12443316159E+02 0.11947252228E+02
 0.11561763434E+02 0.11268060479E+02 0.11052615291E+02 0.10905672854E+02 0.10820341408E+02
 0.88737429408E+01 0.89082957774E+01 0.90137796995E+01 0.91954715323E+01 0.94617803831E+01
 0.98244285645E+01 0.10299541545E+02 0.10909317124E+02 0.11683231554E+02 0.12657837644E+02
 0.13875351412E+02 0.15382559158E+02 0.17231657392E+02 0.19482764523E+02 0.22205091836E+02
 0.25472523737E+02 0.29351436180E+02 0.33883291109E+02 0.39068617839E+02 0.44858896523E+02
 0.51157975437E+02 0.57828520565E+02 0.64696893175E+02 0.71515665900E+02 0.77737287779E+02
 0.82836277249E+02 0.86562603889E+02 0.88954888065E+02 0.90272406697E+02 0.90865660032E+02
 0.91025970945E+02 0.90865660032E+02 0.90272406697E+02 0.88954888065E+02 0.86562603889E+02
 0.82836277249E+02 0.77737287779E+02 0.71515665900E+02 0.64696893175E+02 0.57828520565E+02
 0.51157975437E+02 0.44858896523E+02 0.39068617839E+02 0.33883291109E+02 0.29351436180E+02
 0.25472523737E+02 0.22205091836E+02 0.19482764523E+02 0.17231657392E+02 0.15382559158E+02
 0.13875351412E+02 0.12657837644E+02 0.11683231554E+02 0.10909317124E+02 0.10299541545E+02
 0.98244285645E+01 0.94617803831E+01 0.91954715323E+01 0.90137796995E+01 0.89082957774E+01
 0.73763833103E+01 0.74152718314E+01 0.75340933290E+01 0.77390568972E+01 0.80400409694E+01
 0.84508735602E+01 0.89906346548E+01 0.96853844289E+01 0.10569115961E+02 0.11683231554E+02
 0.13075316272E+02 0.14799182433E+02 0.16917524900E+02 0.19505737281E+02 0.22652360973E+02
 0.26451315493E+02 0.30985014013E+02 0.36303618773E+02 0.42409220576E+02 0.49250897692E+02
 0.56728596959E+02 0.64696893175E+02 0.72897157806E+02 0.80577724643E+02 0.86917177243E+02
 0.91409822945E+02 0.93963164950E+02 0.94892035169E+02 0.94801572354E+02 0.94382147598E+02
 0.94174359072E+02 0.94382147598E+02 0.94801572354E+02 0.94892035169E+02 0.93963164950E+02
 0.91409822945E+02 0.86917177243E+02 0.80577724643E+02 0.72897157806E+02 0.64696893175E+02
 0.56728596959E+02 0.49250897692E+02 0.42409220576E+02 0.36303618773E+02 0.30985014013E+02
 0.26451315493E+02 0.22652360973E+02 0.19505737281E+02 0.16917524900E+02 0.14799182433E+02
 0.13075316272E+02 0.11683231554E+02 0.10569115961E+02 0.96853844289E+01 0.89906346548E+01
 0.84508735602E+01 0.80400409694E+01 0.77390568972E+01 0.75340933290E+01 0.74152718314E+01
 0.62185529918E+01 0.62602164789E+01 0.63876315003E+01 0.66077690897E+01 0.69317730594E+01
 0.73754619360E+01 0.79608879023E+01 0.87180248207E+01 0.96853844289E+01 0.10909317124E+02
 0.12443316159E+02 0.14349459398E+02 0.16702782971E+02 0.19595864105E+02 0.23137736781E+02
 0.27442194735E+02 0.32606603956E+02 0.38689546258E+02 0.45697442120E+02 0.53583633701E+02
 0.62252371090E+02 0.71515665900E+02 0.80577724643E+02 0.88276348385E+02 0.93705518936E+02
 0.96428179498E+02 0.96588743413E+02 0.94891117522E+02 0.92421246165E+02 0.90341094610E+02
 0.89537315548E+02 0.90341094610E+02 0.92421246165E+02 0.94891117522E+02 0.96588743413E+02
 0.96428179498E+02 0.93705518936E+02 0.88276348385E+02 0.80577724643E+02 0.71515665900E+02
 0.62252371090E+02 0.53583633701E+02 0.45697442120E+02 0.38689546258E+02 0.32606603956E+02
 0.27442194735E+02 0.23137736781E+02 0.19595864105E+02 0.16702782971E+02 0.14349459398E+02
 0.12443316159E+02 0.10909317124E+02 0.96853844289E+01 0.87180248207E+01 0.79608879023E+01
 0.73754619360E+01 0.69317730594E+01 0.66077690897E+01 0.63876315003E+01 0.62602164789E+01
 0.53339385088E+01 0.53772503941E+01 0.55098226803E+01 0.57392202629E+01 0.60776198761E+01
 0.65426327235E+01 0.71591486193E+01 0.79608879023E+01 0.89906346548E+01 0.10299541545E+02
 0.11947252228E+02 0.14004827869E+02 0.16560562629E+02 0.19724778180E+02 0.23626640895E+02
 0.28398444354E+02 0.34151052576E+02 0.40951858037E+02 0.48815530150E+02 0.57706573512E+02
 0.67535478902E+02 0.77737287779E+02 0.86917177243E+02 0.93705518936E+02 0.97127891476E+02
 0.96853511538E+02 0.93337509795E+02 0.87787292077E+02 0.81911812570E+02 0.77485386881E+02
 0.75844390032E+02 0.77485386881E+02 0.81911812570E+02 0.87787292077E+02 0.93337509795E+02
 0.96853511538E+02 0.97127891476E+02 0.93705518936E+02 0.86917177243E+02 0.77737287779E+02
 0.67535478902E+02 0.57706573512E+02 0.48815530150E+02 0.40951858037E+02 0.34151052576E+02
 0.28398444354E+02 0.23626640895E+02 0.19724778180E+02 0.16560562629E+02 0.14004827869E+02
 0.11947252228E+02 0.10299541545E+02 0.89906346548E+01 0.79608879023E+01 0.71591486193E+01
 0.65426327235E+01 0.60776198761E+01 0.57392202629E+01 0.55098226803E+01 0.53772503941E+01
 0.46672565417E+01 0.47114186413E+01 0.48467107922E+01 0.50811618685E+01 0.54277878909E+01
 0.59057819679E+01 0.65426327235E+01 0.73754619360E+01 0.84508735602E+01 0.98244285645E+01
 0.11561763434E+02 0.13742949286E+02 0.16469415079E+02 0.19868507336E+02 0.24087945110E+02
 0.29276398247E+02 0.35556735589E+02 0.43005913921E+02 0.51650541017E+02 0.61471101626E+02
 0.72274141153E+02 0.82836277249E+02 0.91409822945E+02 0.96428179498E+02 0.96853511538E+02
 0.92485779151E+02 0.84150548326E+02 0.73658302658E+02 0.63466987648E+02 0.56087350542E+02
 0.53395834748E+02 0.56087350542E+02 0.63466987648E+02 0.73658302658E+02 0.84150548326E+02
 0.92485779151E+02 0.96853511538E+02 0.96428179498E+02 0.91409822945E+02 0.82836277249E+02
 0.72274141153E+02 0.61471101626E+02 0.51650541017E+02 0.43005913921E+02 0.35556735589E+02
 0.29276398247E+02 0.24087945110E+02 0.19868507336E+02 0.16469415079E+02 0.13742949286E+02
 0.11561763434E+02 0.98244285645E+01 0.84508735602E+01 0.73754619360E+01 0.65426327235E+01
 0.59057819679E+01 0.54277878909E+01 0.50811618685E+01 0.48467107922E+01 0.47114186413E+01
 0.41735792804E+01 0.42180879042E+01 0.43545570436E+01 0.45913875121E+01 0.49422837674E+01
 0.54277878909E+01 0.60776198761E+01 0.69317730594E+01 0.80400409694E+01 0.94617803831E+01
 0.11268060479E+02 0.13547299209E+02 0.16412988466E+02 0.20007737968E+02 0.24495382923E+02
 0.30038440700E+02 0.36770274124E+02 0.44777861787E+02 0.54101834442E+02 0.64737895417E+02
 0.76148619034E+02 0.86562603889E+02 0.93963164950E+02 0.96588743413E+02 0.93337509795E+02
 0.84150548326E+02 0.70257800308E+02 0.54132823834E+02 0.39057642613E+02 0.28350638114E+02
 0.24478007721E+02 0.28350638114E+02 0.39057642613E+02 0.54132823834E+02 0.70257800308E+02
 0.84150548326E+02 0.93337509795E+02 0.96588743413E+02 0.93963164950E+02 0.86562603889E+02
 0.76148619034E+02 0.64737895417E+02 0.54101834442E+02 0.44777861787E+02 0.36770274124E+02
 0.30038440700E+02 0.24495382923E+02 0.20007737968E+02 0.16412988466E+02 0.13547299209E+02
 0.11268060479E+02 0.94617803831E+01 0.80400409694E+01 0.69317730594E+01 0.60776198761E+01
 0.54277878909E+01 0.49422837674E+01 0.45913875121E+01 0.43545570436E+01 0.42180879042E+01