   8   8   0   0
  0.1923375E+02  0.5358599E-09  0.5358599E-09  0.5358599E-09  0.5000000E-15
  1.000000000000000E-004
  CAR 
 GaAs                                    
     10.56884633    -10.78189054  301      4.23701842      1.00000000
    -10.782  0.0000E+00  0.0000E+00
    -10.711  0.0000E+00  0.0000E+00
    -10.640  0.0000E+00  0.0000E+00
    -10.568  0.0000E+00  0.0000E+00
    -10.497  0.0000E+00  0.0000E+00
    -10.426  0.0000E+00  0.0000E+00
    -10.355  0.0000E+00  0.0000E+00
    -10.284  0.0000E+00  0.0000E+00
    -10.213  0.0000E+00  0.0000E+00
    -10.141  0.0000E+00  0.0000E+00
    -10.070  0.0000E+00  0.0000E+00
     -9.999  0.0000E+00  0.0000E+00
     -9.928  0.0000E+00  0.0000E+00
     -9.857  0.0000E+00  0.0000E+00
     -9.786  0.0000E+00  0.0000E+00
     -9.714  0.5579E-01  0.1256E-02
     -9.643  0.2353E+00  0.1088E-01
     -9.572  0.5123E+00  0.3740E-01
     -9.501  0.6991E+00  0.8126E-01
     -9.430  0.7600E+00  0.1339E+00
     -9.359  0.7905E+00  0.1888E+00
     -9.287  0.8695E+00  0.2476E+00
     -9.216  0.9855E+00  0.3135E+00
     -9.145  0.1110E+01  0.3880E+00
     -9.074  0.1387E+01  0.4731E+00
     -9.003  0.1946E+01  0.5926E+00
     -8.931  0.2356E+01  0.7466E+00
     -8.860  0.2007E+01  0.9015E+00
     -8.789  0.1719E+01  0.1034E+01
     -8.718  0.1688E+01  0.1154E+01
     -8.647  0.1664E+01  0.1274E+01
     -8.576  0.1623E+01  0.1391E+01
     -8.504  0.1566E+01  0.1504E+01
     -8.433  0.1996E+01  0.1639E+01
     -8.362  0.1489E+01  0.1762E+01
     -8.291  0.8436E+00  0.1834E+01
     -8.220  0.1414E+01  0.1911E+01
     -8.149  0.2225E+01  0.2039E+01
     -8.077  0.2522E+01  0.2213E+01
     -8.006  0.2616E+01  0.2409E+01
     -7.935  0.2689E+01  0.2590E+01
     -7.864  0.2938E+01  0.2791E+01
     -7.793  0.3139E+01  0.3007E+01
     -7.722  0.6074E+01  0.3409E+01
     -7.650  0.4913E+01  0.3811E+01
     -7.579  0.3512E+01  0.4113E+01
     -7.508  0.3030E+01  0.4322E+01
     -7.437  0.3260E+01  0.4545E+01
     -7.366  0.3528E+01  0.4787E+01
     -7.295  0.5894E+01  0.5123E+01
     -7.223  0.5506E+01  0.5536E+01
     -7.152  0.6062E+01  0.5941E+01
     -7.081  0.6208E+01  0.6387E+01
     -7.010  0.4444E+01  0.6780E+01
     -6.939  0.4136E+01  0.7085E+01
     -6.868  0.3842E+01  0.7369E+01
     -6.796  0.3569E+01  0.7636E+01
     -6.725  0.3616E+01  0.7872E+01
     -6.654  0.0000E+00  0.8000E+01
     -6.583  0.0000E+00  0.8000E+01
     -6.512  0.0000E+00  0.8000E+01
     -6.441  0.0000E+00  0.8000E+01
     -6.369  0.0000E+00  0.8000E+01
     -6.298  0.0000E+00  0.8000E+01
     -6.227  0.0000E+00  0.8000E+01
     -6.156  0.0000E+00  0.8000E+01
     -6.085  0.0000E+00  0.8000E+01
     -6.014  0.0000E+00  0.8000E+01
     -5.942  0.0000E+00  0.8000E+01
     -5.871  0.0000E+00  0.8000E+01
     -5.800  0.0000E+00  0.8000E+01
     -5.729  0.0000E+00  0.8000E+01
     -5.658  0.0000E+00  0.8000E+01
     -5.587  0.0000E+00  0.8000E+01
     -5.515  0.0000E+00  0.8000E+01
     -5.444  0.0000E+00  0.8000E+01
     -5.373  0.0000E+00  0.8000E+01
     -5.302  0.0000E+00  0.8000E+01
     -5.231  0.0000E+00  0.8000E+01
     -5.160  0.0000E+00  0.8000E+01
     -5.088  0.0000E+00  0.8000E+01
     -5.017  0.0000E+00  0.8000E+01
     -4.946  0.0000E+00  0.8000E+01
     -4.875  0.0000E+00  0.8000E+01
     -4.804  0.0000E+00  0.8000E+01
     -4.733  0.0000E+00  0.8000E+01
     -4.661  0.0000E+00  0.8000E+01
     -4.590  0.0000E+00  0.8000E+01
     -4.519  0.0000E+00  0.8000E+01
     -4.448  0.0000E+00  0.8000E+01
     -4.377  0.0000E+00  0.8000E+01
     -4.306  0.0000E+00  0.8000E+01
     -4.234  0.0000E+00  0.8000E+01
     -4.163  0.0000E+00  0.8000E+01
     -4.092  0.0000E+00  0.8000E+01
     -4.021  0.0000E+00  0.8000E+01
     -3.950  0.0000E+00  0.8000E+01
     -3.878  0.0000E+00  0.8000E+01
     -3.807  0.0000E+00  0.8000E+01
     -3.736  0.0000E+00  0.8000E+01
     -3.665  0.0000E+00  0.8000E+01
     -3.594  0.0000E+00  0.8000E+01
     -3.523  0.0000E+00  0.8000E+01
     -3.451  0.0000E+00  0.8000E+01
     -3.380  0.5439E-01  0.8000E+01
     -3.309  0.8793E+00  0.8028E+01
     -3.238  0.1332E+01  0.8114E+01
     -3.167  0.4222E+01  0.8356E+01
     -3.096  0.6506E+01  0.8703E+01
     -3.024  0.1458E+02  0.9359E+01
     -2.953  0.6981E+01  0.1002E+02
     -2.882  0.7054E+01  0.1052E+02
     -2.811  0.7207E+01  0.1102E+02
     -2.740  0.5503E+01  0.1147E+02
     -2.669  0.4122E+01  0.1180E+02
     -2.597  0.2849E+01  0.1207E+02
     -2.526  0.2307E+01  0.1224E+02
     -2.455  0.2248E+01  0.1240E+02
     -2.384  0.2192E+01  0.1256E+02
     -2.313  0.2139E+01  0.1271E+02
     -2.242  0.2090E+01  0.1286E+02
     -2.170  0.2044E+01  0.1301E+02
     -2.099  0.2002E+01  0.1315E+02
     -2.028  0.1962E+01  0.1330E+02
     -1.957  0.1612E+01  0.1342E+02
     -1.886  0.1589E+01  0.1353E+02
     -1.815  0.1561E+01  0.1364E+02
     -1.743  0.1525E+01  0.1375E+02
     -1.672  0.1481E+01  0.1386E+02
     -1.601  0.1436E+01  0.1396E+02
     -1.530  0.1387E+01  0.1406E+02
     -1.459  0.1335E+01  0.1416E+02
     -1.388  0.1280E+01  0.1425E+02
     -1.316  0.1223E+01  0.1434E+02
     -1.245  0.1225E+01  0.1443E+02
     -1.174  0.1147E+01  0.1452E+02
     -1.103  0.1082E+01  0.1459E+02
     -1.032  0.1030E+01  0.1467E+02
     -0.961  0.8770E+00  0.1474E+02
     -0.889  0.9481E+00  0.1480E+02
     -0.818  0.1065E+01  0.1488E+02
     -0.747  0.1201E+01  0.1496E+02
     -0.676  0.1354E+01  0.1505E+02
     -0.605  0.2262E+01  0.1520E+02
     -0.534  0.1464E+01  0.1530E+02
     -0.462  0.1655E+01  0.1542E+02
     -0.391  0.1828E+01  0.1554E+02
     -0.320  0.2072E+01  0.1568E+02
     -0.249  0.2274E+01  0.1583E+02
     -0.178  0.3848E+01  0.1606E+02
     -0.107  0.4293E+01  0.1635E+02
     -0.035  0.3691E+01  0.1662E+02
      0.036  0.4890E+01  0.1692E+02
      0.107  0.6383E+01  0.1732E+02
      0.178  0.6810E+01  0.1781E+02
      0.249  0.4687E+01  0.1816E+02
      0.320  0.4328E+01  0.1848E+02
      0.392  0.3814E+01  0.1877E+02
      0.463  0.3615E+01  0.1903E+02
      0.534  0.4020E+01  0.1930E+02
      0.605  0.3568E+01  0.1959E+02
      0.676  0.3251E+01  0.1981E+02
      0.748  0.3435E+01  0.2005E+02
      0.819  0.3588E+01  0.2030E+02
      0.890  0.3842E+01  0.2056E+02
      0.961  0.4949E+01  0.2086E+02
      1.032  0.7380E+01  0.2131E+02
      1.103  0.6653E+01  0.2184E+02
      1.175  0.7047E+01  0.2230E+02
      1.246  0.6859E+01  0.2281E+02
      1.317  0.5847E+01  0.2326E+02
      1.388  0.4996E+01  0.2364E+02
      1.459  0.3909E+01  0.2396E+02
      1.530  0.3496E+01  0.2422E+02
      1.602  0.3360E+01  0.2447E+02
      1.673  0.3500E+01  0.2471E+02
      1.744  0.4255E+01  0.2498E+02
      1.815  0.4933E+01  0.2531E+02
      1.886  0.5657E+01  0.2569E+02
      1.957  0.5241E+01  0.2609E+02
      2.029  0.4771E+01  0.2642E+02
      2.100  0.4961E+01  0.2677E+02
      2.171  0.5855E+01  0.2716E+02
      2.242  0.7299E+01  0.2764E+02
      2.313  0.4783E+01  0.2807E+02
      2.384  0.4271E+01  0.2839E+02
      2.456  0.3766E+01  0.2868E+02
      2.527  0.3268E+01  0.2893E+02
      2.598  0.2866E+01  0.2915E+02
      2.669  0.2044E+01  0.2930E+02
      2.740  0.1897E+01  0.2944E+02
      2.811  0.2382E+01  0.2959E+02
      2.883  0.3073E+01  0.2978E+02
      2.954  0.4329E+01  0.3007E+02
      3.025  0.4354E+01  0.3036E+02
      3.096  0.4734E+01  0.3069E+02
      3.167  0.4817E+01  0.3102E+02
      3.238  0.2874E+01  0.3129E+02
      3.310  0.1425E+01  0.3141E+02
      3.381  0.1256E+01  0.3151E+02
      3.452  0.1093E+01  0.3159E+02
      3.523  0.9358E+00  0.3166E+02
      3.594  0.7904E+00  0.3172E+02
      3.665  0.8211E+00  0.3178E+02
      3.737  0.8235E+00  0.3184E+02
      3.808  0.7479E+00  0.3189E+02
      3.879  0.5945E+00  0.3194E+02
      3.950  0.3632E+00  0.3198E+02
      4.021  0.1088E+00  0.3199E+02
      4.092  0.4289E-01  0.3200E+02
      4.164  0.7124E-02  0.3200E+02
      4.235  0.0000E+00  0.3200E+02
      4.306  0.0000E+00  0.3200E+02
      4.377  0.0000E+00  0.3200E+02
      4.448  0.0000E+00  0.3200E+02
      4.519  0.0000E+00  0.3200E+02
      4.591  0.0000E+00  0.3200E+02
      4.662  0.0000E+00  0.3200E+02
      4.733  0.0000E+00  0.3200E+02
      4.804  0.0000E+00  0.3200E+02
      4.875  0.0000E+00  0.3200E+02
      4.946  0.0000E+00  0.3200E+02
      5.018  0.0000E+00  0.3200E+02
      5.089  0.0000E+00  0.3200E+02
      5.160  0.0000E+00  0.3200E+02
      5.231  0.0000E+00  0.3200E+02
      5.302  0.0000E+00  0.3200E+02
      5.374  0.2022E+00  0.3200E+02
      5.445  0.2544E+00  0.3202E+02
      5.516  0.3197E+00  0.3204E+02
      5.587  0.3983E+00  0.3207E+02
      5.658  0.4901E+00  0.3210E+02
      5.729  0.5950E+00  0.3214E+02
      5.801  0.7093E+00  0.3218E+02
      5.872  0.1120E+01  0.3226E+02
      5.943  0.1009E+01  0.3232E+02
      6.014  0.1173E+01  0.3240E+02
      6.085  0.1408E+01  0.3249E+02
      6.156  0.1994E+01  0.3261E+02
      6.228  0.3571E+01  0.3280E+02
      6.299  0.2671E+01  0.3304E+02
      6.370  0.2905E+01  0.3324E+02
      6.441  0.3163E+01  0.3346E+02
      6.512  0.3488E+01  0.3369E+02
      6.583  0.5116E+01  0.3401E+02
      6.655  0.5881E+01  0.3435E+02
      6.726  0.1015E+02  0.3504E+02
      6.797  0.5758E+01  0.3571E+02
      6.868  0.4936E+01  0.3604E+02
      6.939  0.6156E+01  0.3646E+02
      7.010  0.5618E+01  0.3688E+02
      7.082  0.4101E+01  0.3721E+02
      7.153  0.4082E+01  0.3750E+02
      7.224  0.4086E+01  0.3779E+02
      7.295  0.6469E+01  0.3820E+02
      7.366  0.7067E+01  0.3869E+02
      7.437  0.4138E+01  0.3914E+02
      7.509  0.3870E+01  0.3943E+02
      7.580  0.3557E+01  0.3969E+02
      7.651  0.3488E+01  0.3994E+02
      7.722  0.3418E+01  0.4019E+02
      7.793  0.3348E+01  0.4043E+02
      7.864  0.3392E+01  0.4066E+02
      7.936  0.2779E+01  0.4088E+02
      8.007  0.2286E+01  0.4106E+02
      8.078  0.1940E+01  0.4120E+02
      8.149  0.3311E+01  0.4139E+02
      8.220  0.3196E+01  0.4161E+02
      8.291  0.5153E+01  0.4189E+02
      8.363  0.4364E+01  0.4219E+02
      8.434  0.1427E+02  0.4264E+02
      8.505  0.8023E+01  0.4327E+02
      8.576  0.6623E+01  0.4379E+02
      8.647  0.5603E+01  0.4422E+02
      8.718  0.4547E+01  0.4456E+02
      8.790  0.4173E+01  0.4487E+02
      8.861  0.3606E+01  0.4515E+02
      8.932  0.2744E+01  0.4536E+02
      9.003  0.4476E+01  0.4562E+02
      9.074  0.5448E+01  0.4596E+02
      9.145  0.5026E+01  0.4634E+02
      9.217  0.4935E+01  0.4670E+02
      9.288  0.4692E+01  0.4704E+02
      9.359  0.4296E+01  0.4736E+02
      9.430  0.2732E+01  0.4763E+02
      9.501  0.3265E+01  0.4784E+02
      9.572  0.0000E+00  0.4800E+02
      9.644  0.0000E+00  0.4800E+02
      9.715  0.0000E+00  0.4800E+02
      9.786  0.0000E+00  0.4800E+02
      9.857  0.0000E+00  0.4800E+02
      9.928  0.0000E+00  0.4800E+02
      9.999  0.0000E+00  0.4800E+02
     10.071  0.0000E+00  0.4800E+02
     10.142  0.0000E+00  0.4800E+02
     10.213  0.0000E+00  0.4800E+02
     10.284  0.0000E+00  0.4800E+02
     10.355  0.0000E+00  0.4800E+02
     10.427  0.0000E+00  0.4800E+02
     10.498  0.0000E+00  0.4800E+02
     10.569  0.0000E+00  0.4800E+02
