       N       E                     dE             d eps       ncg     rms          rms(c)
DAV:   1    -0.310004155355E+02   -0.31000E+02   -0.20906E-01   552   0.206E+00    0.812E-01
DAV:   2    -0.309953562919E+02    0.50592E-02   -0.11028E-02   496   0.483E-01    0.490E-01
DAV:   3    -0.309936963747E+02    0.16599E-02   -0.81772E-03   512   0.335E-01    0.533E-02
DAV:   4    -0.309935792541E+02    0.11712E-03   -0.49650E-04   496   0.103E-01    0.307E-02
DAV:   5    -0.309935593741E+02    0.19880E-04   -0.55989E-05   240   0.306E-02
   1 F= -.30993559E+02 E0= -.30993559E+02  d E =0.000000E+00
 imaginary and real dielectric function
