<?xml version="1.0" encoding="ISO-8859-1"?>
<modeling>
 <generator>
  <i name="program" type="string">vasp </i>
  <i name="version" type="string">6.4.3  </i>
  <i name="subversion" type="string">19Mar24 (build Aug 29 2024 15:27:20) complex                          parallel </i>
  <i name="platform" type="string">LinuxIFC </i>
  <i name="date" type="string">2025 03 19 </i>
  <i name="time" type="string">11:27:37 </i>
 </generator>
 <incar>
  <i type="string" name="SYSTEM">GaAs</i>
  <i type="string" name="PREC">Normal</i>
  <i type="int" name="IBRION">     2</i>
  <i name="ENCUT">    500.00000000</i>
  <i type="int" name="ISMEAR">    -5</i>
  <i name="SIGMA">      0.10000000</i>
  <i type="logical" name="LOPTICS"> T  </i>
 </incar>
 <primitive_cell>
  <structure name="primitive_cell" >
   <crystal>
    <varray name="basis" >
     <v>       2.67929970      -2.67929970       0.00000000 </v>
     <v>       2.67929970       0.00000000       2.67929970 </v>
     <v>       0.00000000      -2.67929970       2.67929970 </v>
    </varray>
    <i name="volume">     38.46749286 </i>
    <varray name="rec_basis" >
     <v>       0.18661593      -0.18661593      -0.18661593 </v>
     <v>       0.18661593       0.18661593       0.18661593 </v>
     <v>      -0.18661593      -0.18661593       0.18661593 </v>
    </varray>
   </crystal>
   <varray name="positions" >
    <v>       0.00000000       0.00000000       0.00000000 </v>
    <v>       0.75000000       0.75000000       0.75000000 </v>
   </varray>
  </structure>
  <varray name="primitive_index" >
   <v type="int" >        1 </v>
   <v type="int" >        5 </v>
  </varray>
 </primitive_cell>
 <kpoints>
  <generation param="Gamma">
   <v type="int" name="divisions">       5        5        5 </v>
   <v name="usershift">      0.00000000       0.00000000       0.00000000 </v>
   <v name="genvec1">      0.20000000       0.00000000       0.00000000 </v>
   <v name="genvec2">      0.00000000       0.20000000       0.00000000 </v>
   <v name="genvec3">      0.00000000       0.00000000       0.20000000 </v>
   <v name="shift">      0.00000000       0.00000000       0.00000000 </v>
  </generation>
  <varray name="kpointlist" >
   <v>       0.00000000       0.00000000       0.00000000 </v>
   <v>       0.20000000       0.00000000       0.00000000 </v>
   <v>       0.40000000       0.00000000       0.00000000 </v>
   <v>       0.20000000       0.20000000       0.00000000 </v>
   <v>       0.40000000       0.20000000       0.00000000 </v>
   <v>       0.40000000       0.40000000       0.00000000 </v>
   <v>       0.20000000       0.20000000       0.20000000 </v>
   <v>       0.40000000       0.20000000       0.20000000 </v>
   <v>       0.40000000       0.40000000       0.20000000 </v>
   <v>       0.40000000       0.40000000       0.40000000 </v>
  </varray>
  <varray name="weights" >
   <v>       0.00800000 </v>
   <v>       0.04800000 </v>
   <v>       0.04800000 </v>
   <v>       0.09600000 </v>
   <v>       0.19200000 </v>
   <v>       0.09600000 </v>
   <v>       0.06400000 </v>
   <v>       0.19200000 </v>
   <v>       0.19200000 </v>
   <v>       0.06400000 </v>
  </varray>
  <varray name="tetrahedronlist"  type="int" >
   <v type="int" >       12        7        8        8        9 </v>
   <v type="int" >       18        8        8        9        9 </v>
   <v type="int" >       24        8        9        9       10 </v>
   <v type="int" >       12        8        9        9        9 </v>
   <v type="int" >       24        9        9        9       10 </v>
   <v type="int" >       18        9        9       10       10 </v>
   <v type="int" >       24        4        5        7        8 </v>
   <v type="int" >       12        5        7        8        8 </v>
   <v type="int" >       24        5        8        8        9 </v>
   <v type="int" >       24        4        5        5        8 </v>
   <v type="int" >       24        5        5        6        8 </v>
   <v type="int" >       12        5        6        8        9 </v>
   <v type="int" >       12        9       10       10       10 </v>
   <v type="int" >       12        8        8        9       10 </v>
   <v type="int" >       12        8        9       10       10 </v>
   <v type="int" >       12        5        5        8        9 </v>
   <v type="int" >       12        5        8        9        9 </v>
   <v type="int" >       12        5        5        6        9 </v>
   <v type="int" >       12        5        6        6        9 </v>
   <v type="int" >       12        5        6        9        9 </v>
   <v type="int" >       12        5        6        8        8 </v>
   <v type="int" >       12        5        6        6        8 </v>
   <v type="int" >       12        6        8        8        9 </v>
   <v type="int" >       12        6        8        9        9 </v>
   <v type="int" >       12        6        6        8        9 </v>
   <v type="int" >       12        7        8        9       10 </v>
   <v type="int" >       12        4        5        8        9 </v>
   <v type="int" >       12        4        7        8        9 </v>
   <v type="int" >       12        4        5        6        9 </v>
   <v type="int" >       12        5        6        7        8 </v>
   <v type="int" >       12        4        5        6        7 </v>
   <v type="int" >       12        6        7        8        9 </v>
   <v type="int" >       12        2        4        7        8 </v>
   <v type="int" >       12        2        4        5        8 </v>
   <v type="int" >       12        2        3        5        8 </v>
   <v type="int" >       12        4        4        5        7 </v>
   <v type="int" >       12        2        4        4        5 </v>
   <v type="int" >       12        2        3        4        5 </v>
   <v type="int" >       12        3        4        5        5 </v>
   <v type="int" >       12        2        3        4        7 </v>
   <v type="int" >       12        3        4        5        7 </v>
   <v type="int" >       12        3        5        7        8 </v>
   <v type="int" >        6       10       10       10       10 </v>
   <v type="int" >       12        6        6        9        9 </v>
   <v type="int" >       12        6        9        9        9 </v>
   <v type="int" >       12        6        6        6        9 </v>
   <v type="int" >       12        3        5        8        8 </v>
   <v type="int" >       12        3        5        5        8 </v>
   <v type="int" >       12        3        3        5        8 </v>
   <v type="int" >       12        5        5        5        8 </v>
   <v type="int" >       12        3        5        5        5 </v>
   <v type="int" >        6        3        3        5        5 </v>
   <v type="int" >        6        5        5        8        8 </v>
   <v type="int" >       12        2        4        4        7 </v>
   <v type="int" >       12        2        2        4        4 </v>
   <v type="int" >       12        1        2        2        4 </v>
   <v type="int" >       12        1        2        4        7 </v>
  </varray>
  <i name="volumeweight">      0.00133333 </i>
 </kpoints>
 <parameters>
  <separator name="general" >
   <i type="string" name="SYSTEM">GaAs</i>
   <i type="logical" name="LCOMPAT"> F  </i>
  </separator>
  <separator name="electronic" >
   <i type="string" name="PREC">normal</i>
   <i name="ENMAX">    500.00000000</i>
   <i name="ENAUG">    462.75800000</i>
   <i name="EDIFF">      0.00010000</i>
   <i type="int" name="IALGO">    38</i>
   <i type="int" name="IWAVPR">    10</i>
   <i type="int" name="NBANDS">    24</i>
   <i type="int" name="NBANDSLOW">    -1</i>
   <i type="int" name="NBANDSHIGH">    -1</i>
   <i name="NELECT">     32.00000000</i>
   <i type="int" name="TURBO">     0</i>
   <i type="int" name="IRESTART">     0</i>
   <i type="int" name="NREBOOT">     0</i>
   <i type="int" name="NMIN">     0</i>
   <i name="EREF">      0.00000000</i>
   <separator name="electronic smearing" >
    <i type="int" name="ISMEAR">    -5</i>
    <i name="SIGMA">      0.10000000</i>
    <i name="KSPACING">      0.50000000</i>
    <i type="logical" name="KGAMMA"> T  </i>
    <i type="logical" name="KBLOWUP"> T  </i>
   </separator>
   <separator name="electronic projectors" >
    <i type="logical" name="LREAL"> F  </i>
    <v name="ROPT">      0.00000000      0.00000000</v>
    <i type="int" name="LMAXPAW">  -100</i>
    <i type="int" name="LMAXMIX">     2</i>
    <i type="logical" name="NLSPLINE"> F  </i>
   </separator>
   <separator name="electronic startup" >
    <i type="int" name="ISTART">     1</i>
    <i type="int" name="ICHARG">     0</i>
    <i type="int" name="INIWAV">     1</i>
   </separator>
   <separator name="electronic spin" >
    <i type="int" name="ISPIN">     1</i>
    <i type="logical" name="LNONCOLLINEAR"> F  </i>
    <v name="MAGMOM">      1.00000000      1.00000000      1.00000000      1.00000000      1.00000000      1.00000000      1.00000000      1.00000000</v>
    <i name="NUPDOWN">     -1.00000000</i>
    <i type="logical" name="LSORBIT"> F  </i>
    <v name="SAXIS">      0.00000000      0.00000000      1.00000000</v>
    <i type="logical" name="LSPIRAL"> F  </i>
    <v name="QSPIRAL">      0.00000000      0.00000000      0.00000000</v>
    <i type="logical" name="LZEROZ"> F  </i>
   </separator>
   <separator name="electronic exchange-correlation" >
    <i type="logical" name="LASPH"> F  </i>
   </separator>
   <separator name="electronic convergence" >
    <i type="int" name="NELM">    60</i>
    <i type="int" name="NELMDL">     0</i>
    <i type="int" name="NELMIN">     2</i>
    <i name="ENINI">    500.00000000</i>
    <separator name="electronic convergence detail" >
     <i type="logical" name="LDIAG"> T  </i>
     <i type="logical" name="LSUBROT"> F  </i>
     <i name="WEIMIN">      0.00000000</i>
     <i name="EBREAK">      0.00000104</i>
     <i name="DEPER">      0.30000000</i>
     <i type="int" name="NRMM">     4</i>
     <i name="TIME">      0.40000000</i>
    </separator>
   </separator>
   <separator name="electronic mixer" >
    <i name="AMIX">      0.40000000</i>
    <i name="BMIX">      1.00000000</i>
    <i name="AMIN">      0.10000000</i>
    <i name="AMIX_MAG">      1.60000000</i>
    <i name="BMIX_MAG">      1.00000000</i>
    <separator name="electronic mixer details" >
     <i type="int" name="IMIX">     4</i>
     <i type="logical" name="MIXFIRST"> F  </i>
     <i type="int" name="MAXMIX">   -45</i>
     <i name="WC">    100.00000000</i>
     <i type="int" name="INIMIX">     1</i>
     <i type="int" name="MIXPRE">     1</i>
     <i type="int" name="MREMOVE">     5</i>
    </separator>
   </separator>
   <separator name="electronic dipolcorrection" >
    <i type="logical" name="LDIPOL"> F  </i>
    <i type="logical" name="LMONO"> F  </i>
    <i type="int" name="IDIPOL">     0</i>
    <i name="EPSILON">      1.00000000</i>
    <v name="DIPOL">   -100.00000000   -100.00000000   -100.00000000</v>
    <i name="EFIELD">      0.00000000</i>
    <i type="logical" name="LVACPOTAV"> F  </i>
   </separator>
  </separator>
  <separator name="grids" >
   <i type="int" name="NGX">    30</i>
   <i type="int" name="NGY">    30</i>
   <i type="int" name="NGZ">    30</i>
   <i type="int" name="NGXF">    60</i>
   <i type="int" name="NGYF">    60</i>
   <i type="int" name="NGZF">    60</i>
   <i type="logical" name="ADDGRID"> F  </i>
  </separator>
  <separator name="ionic" >
   <i type="int" name="NSW">     0</i>
   <i type="int" name="IBRION">    -1</i>
   <i type="int" name="MDALGO">     0</i>
   <i type="int" name="ISIF">     2</i>
   <i name="PSTRESS">      0.00000000</i>
   <i name="EDIFFG">      0.00100000</i>
   <i type="int" name="NFREE">     1</i>
   <i name="POTIM">      0.50000000</i>
   <i name="SMASS">     -3.00000000</i>
   <i name="SCALEE">      1.00000000</i>
  </separator>
  <separator name="ionic md" >
   <i name="TEBEG">      0.00010000</i>
   <i name="TEEND">      0.00010000</i>
   <i type="int" name="NBLOCK">     1</i>
   <i type="int" name="KBLOCK">     1</i>
   <i type="int" name="NPACO">   256</i>
   <i name="APACO">     10.00000000</i>
  </separator>
  <separator name="symmetry" >
   <i type="int" name="ISYM">     2</i>
   <i name="SYMPREC">      0.00001000</i>
  </separator>
  <separator name="dos" >
   <i type="int" name="LORBIT">     0</i>
   <v name="RWIGS">     -1.00000000     -1.00000000</v>
   <i type="int" name="NEDOS">   301</i>
   <i name="EMIN">     10.00000000</i>
   <i name="EMAX">    -10.00000000</i>
   <i name="EFERMI">      0.00000000</i>
  </separator>
  <separator name="writing" >
   <i type="int" name="NWRITE">     2</i>
   <i type="logical" name="LWAVE"> T  </i>
   <i type="logical" name="LDOWNSAMPLE"> F  </i>
   <i type="logical" name="LCHARG"> T  </i>
   <i type="logical" name="LPARD"> F  </i>
   <i type="logical" name="LVTOT"> F  </i>
   <i type="logical" name="LVHAR"> F  </i>
   <i type="logical" name="LELF"> F  </i>
   <i type="logical" name="LOPTICS"> T  </i>
   <v name="STM">      0.00000000      0.00000000      0.00000000      0.00000000      0.00000000      0.00000000      0.00000000</v>
  </separator>
  <separator name="performance" >
   <i type="int" name="NPAR">     8</i>
   <i type="int" name="NSIM">     4</i>
   <i type="int" name="NBLK">    -1</i>
   <i type="logical" name="LPLANE"> T  </i>
   <i type="logical" name="LSCALAPACK"> T  </i>
   <i type="logical" name="LSCAAWARE"> F  </i>
   <i type="logical" name="LSCALU"> F  </i>
   <i type="logical" name="LASYNC"> F  </i>
   <i type="logical" name="LORBITALREAL"> F  </i>
  </separator>
  <separator name="miscellaneous" >
   <i type="int" name="IDIOT">     3</i>
   <i type="int" name="PHON_NSTRUCT">    -1</i>
   <i type="logical" name="LMUSIC"> F  </i>
   <v name="POMASS">     74.92200000     69.72300000</v>
   <v name="DARWINR">      0.00000000      0.00000000</v>
   <v name="DARWINV">      1.00000000      1.00000000</v>
   <i type="logical" name="LCORR"> T  </i>
  </separator>
  <i type="logical" name="GGA_COMPAT"> T  </i>
  <i type="logical" name="LBERRY"> F  </i>
  <i type="int" name="ICORELEVEL">     0</i>
  <i type="logical" name="LDAU"> F  </i>
  <i type="int" name="I_CONSTRAINED_M">     0</i>
  <separator name="electronic exchange-correlation" >
   <i type="string" name="GGA    ">PE</i>
   <i type="string" name="XC_C">1</i>
   <i type="int" name="VOSKOWN">     0</i>
   <i type="logical" name="LHFCALC"> F  </i>
   <i type="string" name="PRECFOCK"></i>
   <i type="logical" name="LSYMGRAD"> F  </i>
   <i type="logical" name="LHFONE"> F  </i>
   <i type="logical" name="LRHFCALC"> F  </i>
   <i type="logical" name="LTHOMAS"> F  </i>
   <i type="logical" name="LMODELHF"> F  </i>
   <i type="logical" name="LFOCKACE"> F  </i>
   <i name="ENCUT4O">     -1.00000000</i>
   <i type="int" name="EXXOEP">     0</i>
   <i type="int" name="FOURORBIT">     0</i>
   <i name="AEXX">      0.00000000</i>
   <i name="HFALPHA">      0.00000000</i>
   <i name="MCALPHA">      0.00000000</i>
   <i name="ALDAX">      1.00000000</i>
   <i name="AGGAX">      1.00000000</i>
   <i name="AMGGAX">      1.00000000</i>
   <i name="ALDAC">      1.00000000</i>
   <i name="AGGAC">      1.00000000</i>
   <i name="AMGGAC">      1.00000000</i>
   <i type="int" name="NKREDX">     1</i>
   <i type="int" name="NKREDY">     1</i>
   <i type="int" name="NKREDZ">     1</i>
   <i type="logical" name="SHIFTRED"> F  </i>
   <i type="logical" name="ODDONLY"> F  </i>
   <i type="logical" name="EVENONLY"> F  </i>
   <i type="int" name="LMAXFOCK">     0</i>
   <i type="int" name="NMAXFOCKAE">     0</i>
   <i type="logical" name="LFOCKAEDFT"> F  </i>
   <i name="HFSCREEN">      0.00000000</i>
   <i name="HFSCREENC">      0.00000000</i>
   <i type="int" name="NBANDSGWLOW">     0</i>
  </separator>
  <separator name="vdW DFT" >
   <i type="logical" name="LUSE_VDW"> F  </i>
   <i type="int" name="IVDW_NL">    -1</i>
   <i type="logical" name="LSPIN_VDW"> F  </i>
   <i name="ZAB_VDW">     -0.84910000</i>
   <i name="GAMMA_VDW">      1.39626340</i>
   <i name="ALPHA_VDW">      0.00000000</i>
   <i name="PARAM1">      0.12340000</i>
   <i name="PARAM2">      1.00000000</i>
   <i name="BPARAM">      6.30000000</i>
   <i name="CPARAM">      0.00930000</i>
  </separator>
  <separator name="model GW" >
   <i type="int" name="MODEL_GW">     0</i>
   <i name="MODEL_EPS0">     11.54024786</i>
   <i name="MODEL_ALPHA">      1.00000000</i>
  </separator>
  <separator name="linear response parameters" >
   <i type="logical" name="LEPSILON"> F  </i>
   <i type="logical" name="LRPA"> F  </i>
   <i type="logical" name="LNABLA"> F  </i>
   <i type="logical" name="LVEL"> F  </i>
   <i name="CSHIFT">      0.10000000</i>
   <i name="OMEGAMAX">     -1.00000000</i>
   <i name="DEG_THRESHOLD">      0.00200000</i>
   <i name="RTIME">     -0.10000000</i>
   <i name="WPLASMAI">      0.00000000</i>
   <v name="DFIELD">      0.00000000      0.00000000      0.00000000</v>
   <v name="WPLASMA">      0.00000000      0.00000000      0.00000000      0.00000000      0.00000000      0.00000000      0.00000000      0.00000000      0.00000000</v>
  </separator>
  <separator name="orbital magnetization" >
   <i type="logical" name="NUCIND"> F  </i>
   <v name="MAGPOS">      0.00000000      0.00000000      0.00000000</v>
   <i type="logical" name="LNICSALL"> T  </i>
   <i type="logical" name="ORBITALMAG"> F  </i>
   <i type="logical" name="LMAGBLOCH"> F  </i>
   <i type="logical" name="LCHIMAG"> F  </i>
   <i type="logical" name="LGAUGE"> T  </i>
   <i type="int" name="MAGATOM">     0</i>
   <v name="MAGDIPOL">      0.00000000      0.00000000      0.00000000</v>
   <v name="AVECCONST">      0.00000000      0.00000000      0.00000000</v>
  </separator>
  <separator name="response functions" >
   <i type="logical" name="LALL_IN_ONE"> F  </i>
   <i type="int" name="IALL_IN_ONE">    -1</i>
   <i type="int" name="NBANDS_WAVE">    -1</i>
   <i type="logical" name="LFINITE_TEMPERATURE"> F  </i>
   <i type="logical" name="LADDER"> F  </i>
   <i type="logical" name="LRPAFORCE"> F  </i>
   <i type="logical" name="LFXC"> F  </i>
   <i type="logical" name="LHARTREE"> T  </i>
   <i type="int" name="IBSE">     0</i>
   <v type="int" name="KPOINT">    -1     0     0     0</v>
   <i type="logical" name="LTCTC"> F  </i>
   <i type="logical" name="LTCTE"> F  </i>
   <i type="logical" name="LTETE"> F  </i>
   <i type="logical" name="LTRIPLET"> F  </i>
   <i type="logical" name="LFXCEPS"> F  </i>
   <i type="logical" name="LFXHEG"> F  </i>
   <i type="int" name="NATURALO">     2</i>
   <i type="logical" name="LHOLEGF"> F  </i>
   <i type="logical" name="L2ORDER"> F  </i>
   <i type="logical" name="LDMP1"> F  </i>
   <i type="logical" name="LMP2LT"> F  </i>
   <i type="logical" name="LSMP2LT"> F  </i>
   <i type="logical" name="LGWLF"> F  </i>
   <i name="ENCUTGW">     -1.60000002</i>
   <i name="ENCUTGWSOFT">     -1.60000002</i>
   <i name="ENCUTLF">     -1.00000000</i>
   <i type="logical" name="ESF_SPLINES"> F  </i>
   <i name="ESF_CONV">      0.01000000</i>
   <i type="int" name="ESF_NINTER">    15</i>
   <i type="int" name="LMAXMP2">    -1</i>
   <i name="SCISSOR">      0.00000000</i>
   <i type="int" name="NOMEGA">     0</i>
   <i type="int" name="NOMEGAR">     0</i>
   <i type="int" name="NBANDSGW">    -1</i>
   <i type="int" name="NBANDSO">    -1</i>
   <i type="int" name="NBANDSV">    -1</i>
   <i type="int" name="NELMGW">     1</i>
   <i type="int" name="NELMHF">     1</i>
   <i type="int" name="DIM">     3</i>
   <i type="int" name="IESPILON">     4</i>
   <i type="int" name="ANTIRES">     0</i>
   <i name="OMEGAMAX">    -30.00000000</i>
   <i name="OMEGAMIN">    -30.00000000</i>
   <i name="OMEGATL">   -200.00000000</i>
   <i type="int" name="OMEGAGRID">     0</i>
   <i name="CSHIFT">     -0.10000000</i>
   <i type="logical" name="LSELFENERGY"> F  </i>
   <i type="logical" name="LSPECTRAL"> F  </i>
   <i type="logical" name="LSPECTRALGW"> F  </i>
   <i type="logical" name="LSINGLES"> F  </i>
   <i type="logical" name="LFERMIGW"> F  </i>
   <i type="logical" name="ODDONLYGW"> F  </i>
   <i type="logical" name="EVENONLYGW"> F  </i>
   <i type="int" name="NKREDLFX">     1</i>
   <i type="int" name="NKREDLFY">     1</i>
   <i type="int" name="NKREDLFZ">     1</i>
   <i type="int" name="MAXMEM">  2800</i>
   <i type="int" name="TELESCOPE">     0</i>
   <i type="int" name="NTAUPAR">    -1</i>
   <i type="int" name="NOMEGAPAR">    -1</i>
   <i name="DAMP_NEWTON">      0.80000001</i>
   <i name="LAMBDA">      1.00000000</i>
  </separator>
  <separator name="External order field" >
   <i name="OFIELD_KAPPA">      0.00000000</i>
   <v name="OFIELD_K">      0.00000000      0.00000000      0.00000000</v>
   <i name="OFIELD_Q6_NEAR">      0.00000000</i>
   <i name="OFIELD_Q6_FAR">      0.00000000</i>
   <i name="OFIELD_A">      0.00000000</i>
  </separator>
  <separator name="optional k-points parameters" >
   <i type="int" name="KPOINTS_OPT_MODE">     1</i>
   <i type="logical" name="LKPOINTS_OPT"> F  </i>
  </separator>
 </parameters>
 <atominfo>
  <atoms>       8 </atoms>
  <types>       2 </types>
  <array name="atoms" >
   <dimension dim="1">ion</dimension>
   <field type="string">element</field>
   <field type="int">atomtype</field>
   <set>
    <rc><c>As</c><c>   1</c></rc>
    <rc><c>As</c><c>   1</c></rc>
    <rc><c>As</c><c>   1</c></rc>
    <rc><c>As</c><c>   1</c></rc>
    <rc><c>Ga</c><c>   2</c></rc>
    <rc><c>Ga</c><c>   2</c></rc>
    <rc><c>Ga</c><c>   2</c></rc>
    <rc><c>Ga</c><c>   2</c></rc>
   </set>
  </array>
  <array name="atomtypes" >
   <dimension dim="1">type</dimension>
   <field type="int">atomspertype</field>
   <field type="string">element</field>
   <field>mass</field>
   <field>valence</field>
   <field type="string">pseudopotential</field>
   <set>
    <rc><c>   4</c><c>As</c><c>     74.92200000</c><c>      5.00000000</c><c>  PAW_PBE As 22Sep2009                  </c></rc>
    <rc><c>   4</c><c>Ga</c><c>     69.72300000</c><c>      3.00000000</c><c>  PAW_PBE Ga 08Apr2002                  </c></rc>
   </set>
  </array>
 </atominfo>
 <structure name="initialpos" >
  <crystal>
   <varray name="basis" >
    <v>       5.35859940       0.00000000       0.00000000 </v>
    <v>       0.00000000       5.35859940       0.00000000 </v>
    <v>       0.00000000       0.00000000       5.35859940 </v>
   </varray>
   <i name="volume">    153.86997145 </i>
   <varray name="rec_basis" >
    <v>       0.18661593       0.00000000       0.00000000 </v>
    <v>       0.00000000       0.18661593       0.00000000 </v>
    <v>       0.00000000       0.00000000       0.18661593 </v>
   </varray>
  </crystal>
  <varray name="positions" >
   <v>       0.00000000       0.00000000       0.00000000 </v>
   <v>       0.50000000       0.50000000       0.00000000 </v>
   <v>       0.50000000       0.00000000       0.50000000 </v>
   <v>       0.00000000       0.50000000       0.50000000 </v>
   <v>       0.25000000       0.25000000       0.25000000 </v>
   <v>       0.75000000       0.25000000       0.75000000 </v>
   <v>       0.75000000       0.75000000       0.25000000 </v>
   <v>       0.25000000       0.75000000       0.75000000 </v>
  </varray>
 </structure>
 <calculation>
  <scstep>
   <time name="dav">    0.24    0.25</time>
   <time name="total">    0.26    0.28</time>
   <energy>
    <i name="alphaZ">     88.93127286 </i>
    <i name="ewald">   -967.09846497 </i>
    <i name="hartreedc">    -72.23206031 </i>
    <i name="XCdc">   -119.00049277 </i>
    <i name="pawpsdc">   2749.66252385 </i>
    <i name="pawaedc">  -2571.52166009 </i>
    <i name="eentropy">      0.00000000 </i>
    <i name="bandstr">    -55.96116450 </i>
    <i name="atom">    916.21963040 </i>
    <i name="e_fr_energy">    -31.00041554 </i>
    <i name="e_wo_entrp">    -31.00041554 </i>
    <i name="e_0_energy">    -31.00041554 </i>
   </energy>
  </scstep>
  <scstep>
   <time name="dav">    0.22    0.23</time>
   <time name="total">    0.24    0.26</time>
   <energy>
    <i name="e_fr_energy">    -30.99535629 </i>
    <i name="e_wo_entrp">    -30.99535629 </i>
    <i name="e_0_energy">    -30.99535629 </i>
   </energy>
  </scstep>
  <scstep>
   <time name="dav">    0.22    0.23</time>
   <time name="total">    0.25    0.26</time>
   <energy>
    <i name="e_fr_energy">    -30.99369637 </i>
    <i name="e_wo_entrp">    -30.99369637 </i>
    <i name="e_0_energy">    -30.99369637 </i>
   </energy>
  </scstep>
  <scstep>
   <time name="dav">    0.22    0.23</time>
   <time name="total">    0.24    0.25</time>
   <energy>
    <i name="e_fr_energy">    -30.99357925 </i>
    <i name="e_wo_entrp">    -30.99357925 </i>
    <i name="e_0_energy">    -30.99357925 </i>
   </energy>
  </scstep>
  <scstep>
   <time name="dav">    0.15    0.16</time>
   <time name="total">    0.17    0.18</time>
   <energy>
    <i name="alphaZ">     88.93127286 </i>
    <i name="ewald">   -967.09846497 </i>
    <i name="hartreedc">    -73.43081105 </i>
    <i name="XCdc">   -119.04278691 </i>
    <i name="pawpsdc">   2650.93257047 </i>
    <i name="pawaedc">  -2472.83004659 </i>
    <i name="eentropy">      0.00000000 </i>
    <i name="bandstr">    -54.67492357 </i>
    <i name="atom">    916.21963040 </i>
    <i name="e_fr_energy">    -30.99355937 </i>
    <i name="e_wo_entrp">    -30.99355937 </i>
    <i name="e_0_energy">    -30.99355937 </i>
   </energy>
  </scstep>
  <structure>
   <crystal>
    <varray name="basis" >
     <v>       5.35859940       0.00000000       0.00000000 </v>
     <v>       0.00000000       5.35859940       0.00000000 </v>
     <v>       0.00000000       0.00000000       5.35859940 </v>
    </varray>
    <i name="volume">    153.86997145 </i>
    <varray name="rec_basis" >
     <v>       0.18661593       0.00000000       0.00000000 </v>
     <v>       0.00000000       0.18661593       0.00000000 </v>
     <v>       0.00000000       0.00000000       0.18661593 </v>
    </varray>
   </crystal>
   <varray name="positions" >
    <v>       0.00000000       0.00000000       0.00000000 </v>
    <v>       0.50000000       0.50000000       0.00000000 </v>
    <v>       0.50000000       0.00000000       0.50000000 </v>
    <v>       0.00000000       0.50000000       0.50000000 </v>
    <v>       0.25000000       0.25000000       0.25000000 </v>
    <v>       0.75000000       0.25000000       0.75000000 </v>
    <v>       0.75000000       0.75000000       0.25000000 </v>
    <v>       0.25000000       0.75000000       0.75000000 </v>
   </varray>
  </structure>
  <varray name="forces" >
   <v>       0.00000000      -0.00000000       0.00000000 </v>
   <v>       0.00000000      -0.00000000       0.00000000 </v>
   <v>       0.00000000      -0.00000000       0.00000000 </v>
   <v>       0.00000000      -0.00000000       0.00000000 </v>
   <v>      -0.00000000       0.00000000      -0.00000000 </v>
   <v>      -0.00000000       0.00000000      -0.00000000 </v>
   <v>      -0.00000000      -0.00000000      -0.00000000 </v>
   <v>      -0.00000000       0.00000000       0.00000000 </v>
  </varray>
  <varray name="stress" >
   <v>     225.28989889       0.00000000       0.00000000 </v>
   <v>       0.00000000     225.28989889      -0.00000000 </v>
   <v>       0.00000000      -0.00000000     225.28989889 </v>
  </varray>
  <energy>
   <i name="e_fr_energy">    -30.99355937 </i>
   <i name="e_wo_entrp">    -30.99355937 </i>
   <i name="e_0_energy">    -30.99355937 </i>
  </energy>
  <time name="totalsc">    1.73    1.82</time>
  <eigenvalues>
   <array>
    <dimension dim="1">band</dimension>
    <dimension dim="2">kpoint</dimension>
    <dimension dim="3">spin</dimension>
    <field>eigene</field>
    <field>occ</field>
    <set>
     <set comment="spin 1">
      <set comment="kpoint 1">
       <r>   -9.7819    1.0000 </r>
       <r>   -6.7284    1.0000 </r>
       <r>   -6.7284    1.0000 </r>
       <r>   -6.7284    1.0000 </r>
       <r>   -3.4036    1.0000 </r>
       <r>   -3.4036    1.0000 </r>
       <r>   -3.4036    1.0000 </r>
       <r>    0.9185    1.0000 </r>
       <r>    0.9185    1.0000 </r>
       <r>    0.9185    1.0000 </r>
       <r>    0.9185    1.0000 </r>
       <r>    0.9185    1.0000 </r>
       <r>    0.9185    1.0000 </r>
       <r>    4.2126    1.0000 </r>
       <r>    4.2126    1.0000 </r>
       <r>    4.2126    1.0000 </r>
       <r>    5.3216    0.0000 </r>
       <r>    5.3216    0.0000 </r>
       <r>    5.3216    0.0000 </r>
       <r>    5.7455    0.0000 </r>
       <r>    5.7455    0.0000 </r>
       <r>    5.7455    0.0000 </r>
       <r>    6.0765    0.0000 </r>
       <r>    7.9986    0.0000 </r>
      </set>
      <set comment="kpoint 2">
       <r>   -9.6074    1.0000 </r>
       <r>   -7.3080    1.0000 </r>
       <r>   -6.7013    1.0000 </r>
       <r>   -6.7013    1.0000 </r>
       <r>   -3.3152    1.0000 </r>
       <r>   -3.3152    1.0000 </r>
       <r>   -2.5912    1.0000 </r>
       <r>    0.4942    1.0000 </r>
       <r>    0.4942    1.0000 </r>
       <r>    0.5638    1.0000 </r>
       <r>    0.5638    1.0000 </r>
       <r>    1.1131    1.0000 </r>
       <r>    1.1131    1.0000 </r>
       <r>    2.8687    1.0000 </r>
       <r>    3.6135    1.0000 </r>
       <r>    3.6135    1.0000 </r>
       <r>    5.3639    0.0000 </r>
       <r>    6.1936    0.0000 </r>
       <r>    6.2002    0.0000 </r>
       <r>    6.2002    0.0000 </r>
       <r>    6.6352    0.0000 </r>
       <r>    6.6352    0.0000 </r>
       <r>    7.2559    0.0000 </r>
       <r>    7.5305    0.0000 </r>
      </set>
      <set comment="kpoint 3">
       <r>   -9.0938    1.0000 </r>
       <r>   -8.2817    1.0000 </r>
       <r>   -6.6560    1.0000 </r>
       <r>   -6.6560    1.0000 </r>
       <r>   -3.1481    1.0000 </r>
       <r>   -3.1481    1.0000 </r>
       <r>   -0.9407    1.0000 </r>
       <r>   -0.0934    1.0000 </r>
       <r>   -0.0934    1.0000 </r>
       <r>    0.1101    1.0000 </r>
       <r>    0.1101    1.0000 </r>
       <r>    0.9454    1.0000 </r>
       <r>    1.6826    1.0000 </r>
       <r>    1.6826    1.0000 </r>
       <r>    2.5717    1.0000 </r>
       <r>    2.5717    1.0000 </r>
       <r>    5.7312    0.0000 </r>
       <r>    6.4644    0.0000 </r>
       <r>    7.2344    0.0000 </r>
       <r>    8.1902    0.0000 </r>
       <r>    8.1902    0.0000 </r>
       <r>    8.2409    0.0000 </r>
       <r>    8.6695    0.0000 </r>
       <r>    8.6695    0.0000 </r>
      </set>
      <set comment="kpoint 4">
       <r>   -9.4363    1.0000 </r>
       <r>   -7.2272    1.0000 </r>
       <r>   -7.2272    1.0000 </r>
       <r>   -6.7257    1.0000 </r>
       <r>   -3.2321    1.0000 </r>
       <r>   -2.6397    1.0000 </r>
       <r>   -2.6397    1.0000 </r>
       <r>   -0.3190    1.0000 </r>
       <r>    0.5912    1.0000 </r>
       <r>    0.5912    1.0000 </r>
       <r>    0.9531    1.0000 </r>
       <r>    0.9531    1.0000 </r>
       <r>    1.2462    1.0000 </r>
       <r>    1.6958    1.0000 </r>
       <r>    2.9949    1.0000 </r>
       <r>    4.0061    1.0000 </r>
       <r>    5.8416    0.0000 </r>
       <r>    6.2962    0.0000 </r>
       <r>    6.2962    0.0000 </r>
       <r>    6.9926    0.0000 </r>
       <r>    6.9926    0.0000 </r>
       <r>    7.1798    0.0000 </r>
       <r>    8.1480    0.0000 </r>
       <r>    8.3226    0.0000 </r>
      </set>
      <set comment="kpoint 5">
       <r>   -8.9344    1.0000 </r>
       <r>   -8.1484    1.0000 </r>
       <r>   -7.0297    1.0000 </r>
       <r>   -6.8310    1.0000 </r>
       <r>   -3.0317    1.0000 </r>
       <r>   -2.8028    1.0000 </r>
       <r>   -1.2964    1.0000 </r>
       <r>   -0.6186    1.0000 </r>
       <r>   -0.2230    1.0000 </r>
       <r>    0.1802    1.0000 </r>
       <r>    0.8896    1.0000 </r>
       <r>    1.0917    1.0000 </r>
       <r>    1.1634    1.0000 </r>
       <r>    1.8682    1.0000 </r>
       <r>    1.9495    1.0000 </r>
       <r>    3.1113    1.0000 </r>
       <r>    6.7000    0.0000 </r>
       <r>    7.0371    0.0000 </r>
       <r>    7.4044    0.0000 </r>
       <r>    7.8613    0.0000 </r>
       <r>    8.1173    0.0000 </r>
       <r>    8.2980    0.0000 </r>
       <r>    8.8916    0.0000 </r>
       <r>    9.5330    0.0000 </r>
      </set>
      <set comment="kpoint 6">
       <r>   -8.4735    1.0000 </r>
       <r>   -7.7783    1.0000 </r>
       <r>   -7.7783    1.0000 </r>
       <r>   -7.2747    1.0000 </r>
       <r>   -2.6506    1.0000 </r>
       <r>   -2.0114    1.0000 </r>
       <r>   -2.0114    1.0000 </r>
       <r>   -0.9808    1.0000 </r>
       <r>   -0.5266    1.0000 </r>
       <r>    0.1339    1.0000 </r>
       <r>    0.1339    1.0000 </r>
       <r>    0.9247    1.0000 </r>
       <r>    2.1353    1.0000 </r>
       <r>    2.2053    1.0000 </r>
       <r>    2.2053    1.0000 </r>
       <r>    3.2454    1.0000 </r>
       <r>    6.7536    0.0000 </r>
       <r>    7.5603    0.0000 </r>
       <r>    8.0071    0.0000 </r>
       <r>    8.0071    0.0000 </r>
       <r>    8.8932    0.0000 </r>
       <r>    8.8932    0.0000 </r>
       <r>    9.4137    0.0000 </r>
       <r>    9.5688    0.0000 </r>
      </set>
      <set comment="kpoint 7">
       <r>   -9.2694    1.0000 </r>
       <r>   -7.1814    1.0000 </r>
       <r>   -7.1814    1.0000 </r>
       <r>   -7.1814    1.0000 </r>
       <r>   -2.7628    1.0000 </r>
       <r>   -2.7628    1.0000 </r>
       <r>   -2.7628    1.0000 </r>
       <r>    0.1090    1.0000 </r>
       <r>    0.1090    1.0000 </r>
       <r>    0.1090    1.0000 </r>
       <r>    0.6727    1.0000 </r>
       <r>    1.4254    1.0000 </r>
       <r>    1.4254    1.0000 </r>
       <r>    1.4254    1.0000 </r>
       <r>    3.5760    1.0000 </r>
       <r>    3.5760    1.0000 </r>
       <r>    6.0611    0.0000 </r>
       <r>    6.0611    0.0000 </r>
       <r>    6.0611    0.0000 </r>
       <r>    6.4554    0.0000 </r>
       <r>    8.3617    0.0000 </r>
       <r>    8.3617    0.0000 </r>
       <r>    8.3617    0.0000 </r>
       <r>    8.8271    0.0000 </r>
      </set>
      <set comment="kpoint 8">
       <r>   -8.7825    1.0000 </r>
       <r>   -8.0311    1.0000 </r>
       <r>   -7.1024    1.0000 </r>
       <r>   -7.1024    1.0000 </r>
       <r>   -2.9858    1.0000 </r>
       <r>   -2.9858    1.0000 </r>
       <r>   -1.8097    1.0000 </r>
       <r>   -0.6576    1.0000 </r>
       <r>   -0.0732    1.0000 </r>
       <r>   -0.0732    1.0000 </r>
       <r>    1.2735    1.0000 </r>
       <r>    1.4392    1.0000 </r>
       <r>    1.4392    1.0000 </r>
       <r>    1.9433    1.0000 </r>
       <r>    2.7261    1.0000 </r>
       <r>    2.7584    1.0000 </r>
       <r>    6.6487    0.0000 </r>
       <r>    6.9639    0.0000 </r>
       <r>    7.2253    0.0000 </r>
       <r>    7.2253    0.0000 </r>
       <r>    8.4218    0.0000 </r>
       <r>    8.8483    0.0000 </r>
       <r>    9.4162    0.0000 </r>
       <r>    9.4162    0.0000 </r>
      </set>
      <set comment="kpoint 9">
       <r>   -8.3494    1.0000 </r>
       <r>   -7.7208    1.0000 </r>
       <r>   -7.7208    1.0000 </r>
       <r>   -7.3514    1.0000 </r>
       <r>   -3.0451    1.0000 </r>
       <r>   -2.6009    1.0000 </r>
       <r>   -2.6009    1.0000 </r>
       <r>   -1.7827    1.0000 </r>
       <r>    0.3620    1.0000 </r>
       <r>    0.9456    1.0000 </r>
       <r>    0.9456    1.0000 </r>
       <r>    1.9082    1.0000 </r>
       <r>    2.2477    1.0000 </r>
       <r>    2.2927    1.0000 </r>
       <r>    2.2927    1.0000 </r>
       <r>    3.1587    1.0000 </r>
       <r>    6.7874    0.0000 </r>
       <r>    6.8701    0.0000 </r>
       <r>    7.4346    0.0000 </r>
       <r>    7.4346    0.0000 </r>
       <r>    8.4343    0.0000 </r>
       <r>    8.4343    0.0000 </r>
       <r>    9.0656    0.0000 </r>
       <r>    9.1105    0.0000 </r>
      </set>
      <set comment="kpoint 10">
       <r>   -8.0184    1.0000 </r>
       <r>   -7.6197    1.0000 </r>
       <r>   -7.6197    1.0000 </r>
       <r>   -7.6197    1.0000 </r>
       <r>   -3.2350    1.0000 </r>
       <r>   -3.2350    1.0000 </r>
       <r>   -3.2350    1.0000 </r>
       <r>   -2.7584    1.0000 </r>
       <r>    1.9453    1.0000 </r>
       <r>    1.9453    1.0000 </r>
       <r>    1.9453    1.0000 </r>
       <r>    2.5434    1.0000 </r>
       <r>    2.5434    1.0000 </r>
       <r>    2.5434    1.0000 </r>
       <r>    2.8995    1.0000 </r>
       <r>    2.8995    1.0000 </r>
       <r>    5.8325    0.0000 </r>
       <r>    6.5647    0.0000 </r>
       <r>    6.5647    0.0000 </r>
       <r>    6.5647    0.0000 </r>
       <r>    8.5880    0.0000 </r>
       <r>    8.5880    0.0000 </r>
       <r>    8.5880    0.0000 </r>
       <r>    8.9597    0.0000 </r>
      </set>
     </set>
    </set>
   </array>
  </eigenvalues>
  <separator name="orbital magnetization" >
   <v name="MAGDIPOLOUT">      0.00000000      0.00000000      0.00000000</v>
  </separator>
  <dielectricfunction comment="density-density">
   <imag>
    <array>
     <dimension dim="1">gridpoints</dimension>
     <field>energy</field>
     <field>xx</field>
     <field>yy</field>
     <field>zz</field>
     <field>xy</field>
     <field>yz</field>
     <field>zx</field>
     <set>
      <r>     0.0000     0.0000     0.0000     0.0000     0.0000     0.0000     0.0000 </r>
      <r>     0.0232     0.0023     0.0023     0.0023     0.0000    -0.0000     0.0000 </r>
      <r>     0.0465     0.0045     0.0045     0.0045     0.0000    -0.0000     0.0000 </r>
      <r>     0.0697     0.0068     0.0068     0.0068     0.0000    -0.0000     0.0000 </r>
      <r>     0.0930     0.0091     0.0091     0.0091     0.0000    -0.0000     0.0000 </r>
      <r>     0.1162     0.0114     0.0114     0.0114     0.0000    -0.0000     0.0000 </r>
      <r>     0.1395     0.0136     0.0136     0.0136     0.0000    -0.0000     0.0000 </r>
      <r>     0.1627     0.0159     0.0159     0.0159     0.0000    -0.0000     0.0000 </r>
      <r>     0.1860     0.0182     0.0182     0.0182     0.0000    -0.0000     0.0000 </r>
      <r>     0.2092     0.0205     0.0205     0.0205     0.0000    -0.0000     0.0000 </r>
      <r>     0.2324     0.0229     0.0229     0.0229     0.0000    -0.0000     0.0000 </r>
      <r>     0.2557     0.0252     0.0252     0.0252     0.0000    -0.0000     0.0000 </r>
      <r>     0.2789     0.0275     0.0275     0.0275     0.0000    -0.0000     0.0000 </r>
      <r>     0.3022     0.0299     0.0299     0.0299     0.0000    -0.0000     0.0000 </r>
      <r>     0.3254     0.0322     0.0322     0.0322     0.0000    -0.0000     0.0000 </r>
      <r>     0.3487     0.0346     0.0346     0.0346     0.0000    -0.0000     0.0000 </r>
      <r>     0.3719     0.0370     0.0370     0.0370     0.0000    -0.0000     0.0000 </r>
      <r>     0.3952     0.0394     0.0394     0.0394     0.0000    -0.0000     0.0000 </r>
      <r>     0.4184     0.0418     0.0418     0.0418     0.0000    -0.0000     0.0000 </r>
      <r>     0.4416     0.0443     0.0443     0.0443     0.0000    -0.0000     0.0000 </r>
      <r>     0.4649     0.0467     0.0467     0.0467     0.0000    -0.0000     0.0000 </r>
      <r>     0.4881     0.0492     0.0492     0.0492     0.0000    -0.0000     0.0000 </r>
      <r>     0.5114     0.0517     0.0517     0.0517     0.0000    -0.0000     0.0000 </r>
      <r>     0.5346     0.0543     0.0543     0.0543     0.0000    -0.0000     0.0000 </r>
      <r>     0.5579     0.0568     0.0568     0.0568     0.0000    -0.0000     0.0000 </r>
      <r>     0.5811     0.0594     0.0594     0.0594     0.0000    -0.0000     0.0000 </r>
      <r>     0.6043     0.0620     0.0620     0.0620     0.0000    -0.0000     0.0000 </r>
      <r>     0.6276     0.0647     0.0647     0.0647     0.0000    -0.0000     0.0000 </r>
      <r>     0.6508     0.0674     0.0674     0.0674     0.0000    -0.0000     0.0000 </r>
      <r>     0.6741     0.0701     0.0701     0.0701     0.0000    -0.0000     0.0000 </r>
      <r>     0.6973     0.0728     0.0728     0.0728     0.0000    -0.0000     0.0000 </r>
      <r>     0.7206     0.0756     0.0756     0.0756     0.0000    -0.0000     0.0000 </r>
      <r>     0.7438     0.0784     0.0784     0.0784     0.0000    -0.0000     0.0000 </r>
      <r>     0.7671     0.0813     0.0813     0.0813     0.0000    -0.0000     0.0000 </r>
      <r>     0.7903     0.0842     0.0842     0.0842     0.0000    -0.0000     0.0000 </r>
      <r>     0.8135     0.0871     0.0871     0.0871     0.0000    -0.0000     0.0000 </r>
      <r>     0.8368     0.0901     0.0901     0.0901     0.0000    -0.0000     0.0000 </r>
      <r>     0.8600     0.0932     0.0932     0.0932     0.0000    -0.0000     0.0000 </r>
      <r>     0.8833     0.0963     0.0963     0.0963     0.0000    -0.0000     0.0000 </r>
      <r>     0.9065     0.0994     0.0994     0.0994     0.0000    -0.0000     0.0000 </r>
      <r>     0.9298     0.1026     0.1026     0.1026     0.0000    -0.0000     0.0000 </r>
      <r>     0.9530     0.1059     0.1059     0.1059     0.0000    -0.0000     0.0000 </r>
      <r>     0.9763     0.1092     0.1092     0.1092     0.0000    -0.0000     0.0000 </r>
      <r>     0.9995     0.1126     0.1126     0.1126     0.0000    -0.0000     0.0000 </r>
      <r>     1.0227     0.1161     0.1161     0.1161     0.0000    -0.0000     0.0000 </r>
      <r>     1.0460     0.1196     0.1196     0.1196     0.0000    -0.0000     0.0000 </r>
      <r>     1.0692     0.1233     0.1233     0.1233     0.0000    -0.0000     0.0000 </r>
      <r>     1.0925     0.1270     0.1270     0.1270     0.0000    -0.0000     0.0000 </r>
      <r>     1.1157     0.1307     0.1307     0.1307     0.0000    -0.0000     0.0000 </r>
      <r>     1.1390     0.1346     0.1346     0.1346     0.0000    -0.0000     0.0000 </r>
      <r>     1.1622     0.1386     0.1386     0.1386     0.0000    -0.0000     0.0000 </r>
      <r>     1.1855     0.1427     0.1427     0.1427     0.0000    -0.0000     0.0000 </r>
      <r>     1.2087     0.1468     0.1468     0.1468     0.0000    -0.0000     0.0000 </r>
      <r>     1.2319     0.1511     0.1511     0.1511     0.0000    -0.0000     0.0000 </r>
      <r>     1.2552     0.1556     0.1556     0.1556     0.0000    -0.0000     0.0000 </r>
      <r>     1.2784     0.1601     0.1601     0.1601     0.0000    -0.0000     0.0000 </r>
      <r>     1.3017     0.1648     0.1648     0.1648     0.0000    -0.0000     0.0000 </r>
      <r>     1.3249     0.1696     0.1696     0.1696     0.0000    -0.0000     0.0000 </r>
      <r>     1.3482     0.1746     0.1746     0.1746     0.0000    -0.0000     0.0000 </r>
      <r>     1.3714     0.1797     0.1797     0.1797     0.0000    -0.0000     0.0000 </r>
      <r>     1.3946     0.1851     0.1851     0.1851     0.0000    -0.0000     0.0000 </r>
      <r>     1.4179     0.1906     0.1906     0.1906     0.0000    -0.0000     0.0000 </r>
      <r>     1.4411     0.1963     0.1963     0.1963     0.0000    -0.0000     0.0000 </r>
      <r>     1.4644     0.2023     0.2023     0.2023     0.0000    -0.0000     0.0000 </r>
      <r>     1.4876     0.2085     0.2085     0.2085     0.0000    -0.0000     0.0000 </r>
      <r>     1.5109     0.2151     0.2151     0.2151     0.0000    -0.0000     0.0000 </r>
      <r>     1.5341     0.2219     0.2219     0.2219     0.0000    -0.0000     0.0000 </r>
      <r>     1.5574     0.2291     0.2291     0.2291     0.0000    -0.0000     0.0000 </r>
      <r>     1.5806     0.2367     0.2367     0.2367     0.0000    -0.0000     0.0000 </r>
      <r>     1.6038     0.2448     0.2448     0.2448     0.0000    -0.0000     0.0000 </r>
      <r>     1.6271     0.2533     0.2533     0.2533     0.0000    -0.0000     0.0000 </r>
      <r>     1.6503     0.2624     0.2624     0.2624     0.0000    -0.0000     0.0000 </r>
      <r>     1.6736     0.2719     0.2719     0.2719     0.0000    -0.0000     0.0000 </r>
      <r>     1.6968     0.2821     0.2821     0.2821     0.0000    -0.0000     0.0000 </r>
      <r>     1.7201     0.2929     0.2929     0.2929     0.0000    -0.0000     0.0000 </r>
      <r>     1.7433     0.3042     0.3042     0.3042     0.0000    -0.0000     0.0000 </r>
      <r>     1.7666     0.3163     0.3163     0.3163     0.0000    -0.0000     0.0000 </r>
      <r>     1.7898     0.3290     0.3290     0.3290     0.0000    -0.0000     0.0000 </r>
      <r>     1.8130     0.3425     0.3425     0.3425     0.0000    -0.0000     0.0000 </r>
      <r>     1.8363     0.3569     0.3569     0.3569     0.0000    -0.0000     0.0000 </r>
      <r>     1.8595     0.3720     0.3720     0.3720     0.0000    -0.0000     0.0000 </r>
      <r>     1.8828     0.3881     0.3881     0.3881     0.0000    -0.0000     0.0000 </r>
      <r>     1.9060     0.4052     0.4052     0.4052     0.0000    -0.0000     0.0000 </r>
      <r>     1.9293     0.4234     0.4234     0.4234     0.0000    -0.0000     0.0000 </r>
      <r>     1.9525     0.4426     0.4426     0.4426     0.0000    -0.0000     0.0000 </r>
      <r>     1.9758     0.4630     0.4630     0.4630     0.0000    -0.0000     0.0000 </r>
      <r>     1.9990     0.4847     0.4847     0.4847     0.0000    -0.0000     0.0000 </r>
      <r>     2.0222     0.5076     0.5076     0.5076     0.0000    -0.0000     0.0000 </r>
      <r>     2.0455     0.5319     0.5319     0.5319     0.0000    -0.0000     0.0000 </r>
      <r>     2.0687     0.5577     0.5577     0.5577     0.0000    -0.0000     0.0000 </r>
      <r>     2.0920     0.5849     0.5849     0.5849     0.0000    -0.0000     0.0000 </r>
      <r>     2.1152     0.6138     0.6138     0.6138     0.0000    -0.0000     0.0000 </r>
      <r>     2.1385     0.6443     0.6443     0.6443     0.0000    -0.0000     0.0000 </r>
      <r>     2.1617     0.6767     0.6767     0.6767     0.0000    -0.0000     0.0000 </r>
      <r>     2.1849     0.7112     0.7112     0.7112     0.0000    -0.0000     0.0000 </r>
      <r>     2.2082     0.7478     0.7478     0.7478     0.0000    -0.0000     0.0000 </r>
      <r>     2.2314     0.7870     0.7870     0.7870     0.0000    -0.0000     0.0000 </r>
      <r>     2.2547     0.8290     0.8290     0.8290     0.0000    -0.0000     0.0000 </r>
      <r>     2.2779     0.8740     0.8740     0.8740     0.0000    -0.0000     0.0000 </r>
      <r>     2.3012     0.9225     0.9225     0.9225     0.0000    -0.0000     0.0000 </r>
      <r>     2.3244     0.9746     0.9746     0.9746     0.0000    -0.0000     0.0000 </r>
      <r>     2.3477     1.0304     1.0304     1.0304     0.0000    -0.0000     0.0000 </r>
      <r>     2.3709     1.0900     1.0900     1.0900     0.0000    -0.0000     0.0000 </r>
      <r>     2.3941     1.1535     1.1535     1.1535     0.0000    -0.0000     0.0000 </r>
      <r>     2.4174     1.2209     1.2209     1.2209     0.0000    -0.0000     0.0000 </r>
      <r>     2.4406     1.2923     1.2923     1.2923     0.0000    -0.0000     0.0000 </r>
      <r>     2.4639     1.3680     1.3680     1.3680     0.0000    -0.0000     0.0000 </r>
      <r>     2.4871     1.4482     1.4482     1.4482     0.0000    -0.0000     0.0000 </r>
      <r>     2.5104     1.5333     1.5333     1.5333     0.0000    -0.0000     0.0000 </r>
      <r>     2.5336     1.6236     1.6236     1.6236     0.0000    -0.0000     0.0000 </r>
      <r>     2.5569     1.7200     1.7200     1.7200     0.0000    -0.0000     0.0000 </r>
      <r>     2.5801     1.8231     1.8231     1.8231     0.0000    -0.0000     0.0000 </r>
      <r>     2.6033     1.9343     1.9343     1.9343     0.0000    -0.0000     0.0000 </r>
      <r>     2.6266     2.0546     2.0546     2.0546     0.0000    -0.0000     0.0000 </r>
      <r>     2.6498     2.1856     2.1856     2.1856     0.0000    -0.0000     0.0000 </r>
      <r>     2.6731     2.3289     2.3289     2.3289     0.0000    -0.0000     0.0000 </r>
      <r>     2.6963     2.4865     2.4865     2.4865     0.0000    -0.0000     0.0000 </r>
      <r>     2.7196     2.6610     2.6610     2.6610     0.0000    -0.0000     0.0000 </r>
      <r>     2.7428     2.8554     2.8554     2.8554     0.0000    -0.0000     0.0000 </r>
      <r>     2.7661     3.0741     3.0741     3.0741     0.0000    -0.0000     0.0000 </r>
      <r>     2.7893     3.3228     3.3228     3.3228     0.0000    -0.0000     0.0000 </r>
      <r>     2.8125     3.6092     3.6092     3.6092     0.0000    -0.0000     0.0000 </r>
      <r>     2.8358     3.9429     3.9429     3.9429     0.0000    -0.0000     0.0000 </r>
      <r>     2.8590     4.3338     4.3338     4.3338     0.0000    -0.0000     0.0000 </r>
      <r>     2.8823     4.7872     4.7872     4.7872     0.0000    -0.0000     0.0000 </r>
      <r>     2.9055     5.2903     5.2903     5.2903     0.0000    -0.0000     0.0000 </r>
      <r>     2.9288     5.7959     5.7959     5.7959     0.0000    -0.0000     0.0000 </r>
      <r>     2.9520     6.2287     6.2287     6.2287     0.0000    -0.0000     0.0000 </r>
      <r>     2.9752     6.5419     6.5419     6.5419     0.0000    -0.0000     0.0000 </r>
      <r>     2.9985     6.7621     6.7621     6.7621     0.0000    -0.0000     0.0000 </r>
      <r>     3.0217     6.9514     6.9514     6.9514     0.0000    -0.0000     0.0000 </r>
      <r>     3.0450     7.1488     7.1488     7.1488     0.0000    -0.0000     0.0000 </r>
      <r>     3.0682     7.3581     7.3581     7.3581     0.0000    -0.0000     0.0000 </r>
      <r>     3.0915     7.5656     7.5656     7.5656     0.0000    -0.0000     0.0000 </r>
      <r>     3.1147     7.7583     7.7583     7.7583     0.0000    -0.0000     0.0000 </r>
      <r>     3.1380     7.9325     7.9325     7.9325     0.0000    -0.0000     0.0000 </r>
      <r>     3.1612     8.0946     8.0946     8.0946     0.0000    -0.0000     0.0000 </r>
      <r>     3.1844     8.2564     8.2564     8.2564     0.0000    -0.0000    -0.0000 </r>
      <r>     3.2077     8.4289     8.4289     8.4289     0.0000    -0.0000    -0.0000 </r>
      <r>     3.2309     8.6185     8.6185     8.6185     0.0000    -0.0000    -0.0000 </r>
      <r>     3.2542     8.8271     8.8271     8.8271     0.0000    -0.0000    -0.0000 </r>
      <r>     3.2774     9.0545     9.0545     9.0545     0.0000    -0.0000     0.0000 </r>
      <r>     3.3007     9.3006     9.3006     9.3006     0.0000    -0.0000     0.0000 </r>
      <r>     3.3239     9.5662     9.5662     9.5662     0.0000    -0.0000     0.0000 </r>
      <r>     3.3472     9.8536     9.8536     9.8536    -0.0000    -0.0000     0.0000 </r>
      <r>     3.3704    10.1668    10.1668    10.1668    -0.0000    -0.0000     0.0000 </r>
      <r>     3.3936    10.5125    10.5125    10.5125    -0.0000    -0.0000     0.0000 </r>
      <r>     3.4169    10.8995    10.8995    10.8995    -0.0000    -0.0000     0.0000 </r>
      <r>     3.4401    11.3388    11.3388    11.3388    -0.0000    -0.0000     0.0000 </r>
      <r>     3.4634    11.8401    11.8401    11.8401    -0.0000    -0.0000     0.0000 </r>
      <r>     3.4866    12.4054    12.4054    12.4054    -0.0000    -0.0000     0.0000 </r>
      <r>     3.5099    13.0186    13.0186    13.0186     0.0000    -0.0000     0.0000 </r>
      <r>     3.5331    13.6386    13.6386    13.6386     0.0000    -0.0000     0.0000 </r>
      <r>     3.5564    14.2022    14.2022    14.2022     0.0000    -0.0000     0.0000 </r>
      <r>     3.5796    14.6382    14.6382    14.6382    -0.0000    -0.0000     0.0000 </r>
      <r>     3.6028    14.8905    14.8905    14.8905    -0.0000    -0.0000    -0.0000 </r>
      <r>     3.6261    14.9435    14.9435    14.9435    -0.0000    -0.0000    -0.0000 </r>
      <r>     3.6493    14.8333    14.8333    14.8333     0.0000    -0.0000    -0.0000 </r>
      <r>     3.6726    14.6274    14.6274    14.6274     0.0000     0.0000    -0.0000 </r>
      <r>     3.6958    14.3884    14.3884    14.3884     0.0000     0.0000    -0.0000 </r>
      <r>     3.7191    14.1540    14.1540    14.1540     0.0000     0.0000    -0.0000 </r>
      <r>     3.7423    13.9420    13.9420    13.9420     0.0000     0.0000    -0.0000 </r>
      <r>     3.7655    13.7627    13.7627    13.7627     0.0000     0.0000    -0.0000 </r>
      <r>     3.7888    13.6261    13.6261    13.6261     0.0000     0.0000    -0.0000 </r>
      <r>     3.8120    13.5444    13.5444    13.5444     0.0000     0.0000    -0.0000 </r>
      <r>     3.8353    13.5316    13.5316    13.5316     0.0000     0.0000    -0.0000 </r>
      <r>     3.8585    13.5997    13.5997    13.5997     0.0000     0.0000    -0.0000 </r>
      <r>     3.8818    13.7529    13.7529    13.7529     0.0000     0.0000     0.0000 </r>
      <r>     3.9050    13.9849    13.9849    13.9849     0.0000    -0.0000     0.0000 </r>
      <r>     3.9283    14.2853    14.2853    14.2853     0.0000    -0.0000    -0.0000 </r>
      <r>     3.9515    14.6504    14.6504    14.6504     0.0000    -0.0000    -0.0000 </r>
      <r>     3.9747    15.0809    15.0809    15.0809     0.0000    -0.0000    -0.0000 </r>
      <r>     3.9980    15.5645    15.5645    15.5645     0.0000    -0.0000    -0.0000 </r>
      <r>     4.0212    16.0579    16.0579    16.0579     0.0000    -0.0000    -0.0000 </r>
      <r>     4.0445    16.4910    16.4910    16.4910     0.0000    -0.0000    -0.0000 </r>
      <r>     4.0677    16.8172    16.8172    16.8172     0.0000    -0.0000    -0.0000 </r>
      <r>     4.0910    17.0560    17.0560    17.0560     0.0000    -0.0000    -0.0000 </r>
      <r>     4.1142    17.2629    17.2629    17.2629     0.0000    -0.0000    -0.0000 </r>
      <r>     4.1375    17.4813    17.4813    17.4813    -0.0000    -0.0000    -0.0000 </r>
      <r>     4.1607    17.7309    17.7309    17.7309     0.0000    -0.0000    -0.0000 </r>
      <r>     4.1839    18.0184    18.0184    18.0184     0.0000    -0.0000    -0.0000 </r>
      <r>     4.2072    18.3481    18.3481    18.3481     0.0000    -0.0000     0.0000 </r>
      <r>     4.2304    18.7253    18.7253    18.7253     0.0000    -0.0000     0.0000 </r>
      <r>     4.2537    19.1545    19.1545    19.1545     0.0000    -0.0000     0.0000 </r>
      <r>     4.2769    19.6304    19.6304    19.6304     0.0000    -0.0000     0.0000 </r>
      <r>     4.3002    20.1346    20.1346    20.1346     0.0000    -0.0000     0.0000 </r>
      <r>     4.3234    20.6432    20.6432    20.6432     0.0000    -0.0000     0.0000 </r>
      <r>     4.3467    21.1408    21.1408    21.1408     0.0000     0.0000     0.0000 </r>
      <r>     4.3699    21.6241    21.6241    21.6241     0.0000     0.0000     0.0000 </r>
      <r>     4.3931    22.0983    22.0983    22.0983     0.0000     0.0000     0.0000 </r>
      <r>     4.4164    22.5749    22.5749    22.5749     0.0000    -0.0000     0.0000 </r>
      <r>     4.4396    23.0707    23.0707    23.0707     0.0000    -0.0000     0.0000 </r>
      <r>     4.4629    23.6053    23.6053    23.6053     0.0000    -0.0000     0.0000 </r>
      <r>     4.4861    24.1942    24.1942    24.1942     0.0000    -0.0000     0.0000 </r>
      <r>     4.5094    24.8375    24.8375    24.8375     0.0000    -0.0000     0.0000 </r>
      <r>     4.5326    25.5081    25.5081    25.5081     0.0000    -0.0000     0.0000 </r>
      <r>     4.5558    26.1471    26.1471    26.1471     0.0000    -0.0000     0.0000 </r>
      <r>     4.5791    26.6792    26.6792    26.6792     0.0000    -0.0000     0.0000 </r>
      <r>     4.6023    27.0413    27.0413    27.0413     0.0000    -0.0000     0.0000 </r>
      <r>     4.6256    27.2084    27.2084    27.2084     0.0000    -0.0000     0.0000 </r>
      <r>     4.6488    27.1932    27.1932    27.1932     0.0000    -0.0000     0.0000 </r>
      <r>     4.6721    27.0214    27.0214    27.0214     0.0000    -0.0000     0.0000 </r>
      <r>     4.6953    26.7129    26.7129    26.7129     0.0000    -0.0000     0.0000 </r>
      <r>     4.7186    26.2828    26.2828    26.2828     0.0000    -0.0000     0.0000 </r>
      <r>     4.7418    25.7522    25.7522    25.7522     0.0000    -0.0000     0.0000 </r>
      <r>     4.7650    25.1520    25.1520    25.1520     0.0000     0.0000     0.0000 </r>
      <r>     4.7883    24.5196    24.5196    24.5196     0.0000     0.0000     0.0000 </r>
      <r>     4.8115    23.8971    23.8971    23.8971     0.0000     0.0000     0.0000 </r>
      <r>     4.8348    23.3281    23.3281    23.3281     0.0000     0.0000     0.0000 </r>
      <r>     4.8580    22.8482    22.8482    22.8482     0.0000     0.0000     0.0000 </r>
      <r>     4.8813    22.4728    22.4728    22.4728     0.0000     0.0000     0.0000 </r>
      <r>     4.9045    22.1961    22.1961    22.1961     0.0000     0.0000     0.0000 </r>
      <r>     4.9278    22.0026    22.0026    22.0026     0.0000     0.0000     0.0000 </r>
      <r>     4.9510    21.8756    21.8756    21.8756     0.0000     0.0000     0.0000 </r>
      <r>     4.9742    21.8014    21.8014    21.8014     0.0000     0.0000     0.0000 </r>
      <r>     4.9975    21.7668    21.7668    21.7668     0.0000     0.0000    -0.0000 </r>
      <r>     5.0207    21.7565    21.7565    21.7565     0.0000     0.0000    -0.0000 </r>
      <r>     5.0440    21.7526    21.7526    21.7526     0.0000     0.0000    -0.0000 </r>
      <r>     5.0672    21.7393    21.7393    21.7393     0.0000     0.0000    -0.0000 </r>
      <r>     5.0905    21.7119    21.7119    21.7119     0.0000     0.0000    -0.0000 </r>
      <r>     5.1137    21.6767    21.6767    21.6767     0.0000     0.0000    -0.0000 </r>
      <r>     5.1370    21.6391    21.6391    21.6391    -0.0000     0.0000    -0.0000 </r>
      <r>     5.1602    21.5931    21.5931    21.5931    -0.0000     0.0000    -0.0000 </r>
      <r>     5.1834    21.5245    21.5245    21.5245    -0.0000     0.0000    -0.0000 </r>
      <r>     5.2067    21.4212    21.4212    21.4212    -0.0000    -0.0000    -0.0000 </r>
      <r>     5.2299    21.2798    21.2798    21.2798    -0.0000    -0.0000    -0.0000 </r>
      <r>     5.2532    21.1043    21.1043    21.1043    -0.0000    -0.0000    -0.0000 </r>
      <r>     5.2764    20.9032    20.9032    20.9032    -0.0000    -0.0000    -0.0000 </r>
      <r>     5.2997    20.6857    20.6857    20.6857    -0.0000    -0.0000    -0.0000 </r>
      <r>     5.3229    20.4594    20.4594    20.4594    -0.0000    -0.0000    -0.0000 </r>
      <r>     5.3461    20.2274    20.2274    20.2274    -0.0000    -0.0000    -0.0000 </r>
      <r>     5.3694    19.9881    19.9881    19.9881    -0.0000     0.0000    -0.0000 </r>
      <r>     5.3926    19.7356    19.7356    19.7356     0.0000     0.0000    -0.0000 </r>
      <r>     5.4159    19.4641    19.4641    19.4641     0.0000     0.0000    -0.0000 </r>
      <r>     5.4391    19.1705    19.1705    19.1705     0.0000     0.0000    -0.0000 </r>
      <r>     5.4624    18.8550    18.8550    18.8550     0.0000     0.0000    -0.0000 </r>
      <r>     5.4856    18.5190    18.5190    18.5190     0.0000     0.0000    -0.0000 </r>
      <r>     5.5089    18.1622    18.1622    18.1622     0.0000     0.0000    -0.0000 </r>
      <r>     5.5321    17.7818    17.7818    17.7818     0.0000     0.0000    -0.0000 </r>
      <r>     5.5553    17.3751    17.3751    17.3751     0.0000     0.0000    -0.0000 </r>
      <r>     5.5786    16.9442    16.9442    16.9442     0.0000     0.0000    -0.0000 </r>
      <r>     5.6018    16.4982    16.4982    16.4982     0.0000     0.0000    -0.0000 </r>
      <r>     5.6251    16.0494    16.0494    16.0494     0.0000     0.0000    -0.0000 </r>
      <r>     5.6483    15.6092    15.6092    15.6092     0.0000     0.0000    -0.0000 </r>
      <r>     5.6716    15.1857    15.1857    15.1857     0.0000     0.0000    -0.0000 </r>
      <r>     5.6948    14.7819    14.7819    14.7819     0.0000     0.0000    -0.0000 </r>
      <r>     5.7181    14.3946    14.3946    14.3946     0.0000     0.0000    -0.0000 </r>
      <r>     5.7413    14.0198    14.0198    14.0198     0.0000     0.0000    -0.0000 </r>
      <r>     5.7645    13.6585    13.6585    13.6585     0.0000     0.0000    -0.0000 </r>
      <r>     5.7878    13.3174    13.3174    13.3174     0.0000     0.0000    -0.0000 </r>
      <r>     5.8110    13.0055    13.0055    13.0055     0.0000     0.0000    -0.0000 </r>
      <r>     5.8343    12.7327    12.7327    12.7327     0.0000     0.0000    -0.0000 </r>
      <r>     5.8575    12.5087    12.5087    12.5087     0.0000     0.0000    -0.0000 </r>
      <r>     5.8808    12.3436    12.3436    12.3436     0.0000     0.0000    -0.0000 </r>
      <r>     5.9040    12.2479    12.2479    12.2479     0.0000     0.0000    -0.0000 </r>
      <r>     5.9273    12.2277    12.2277    12.2277     0.0000     0.0000    -0.0000 </r>
      <r>     5.9505    12.2782    12.2782    12.2782     0.0000    -0.0000    -0.0000 </r>
      <r>     5.9737    12.3786    12.3786    12.3786     0.0000    -0.0000    -0.0000 </r>
      <r>     5.9970    12.4977    12.4977    12.4977     0.0000    -0.0000     0.0000 </r>
      <r>     6.0202    12.6062    12.6062    12.6062    -0.0000    -0.0000     0.0000 </r>
      <r>     6.0435    12.6783    12.6783    12.6783    -0.0000    -0.0000     0.0000 </r>
      <r>     6.0667    12.6870    12.6870    12.6870    -0.0000    -0.0000     0.0000 </r>
      <r>     6.0900    12.6111    12.6111    12.6111    -0.0000    -0.0000     0.0000 </r>
      <r>     6.1132    12.4419    12.4419    12.4419    -0.0000    -0.0000     0.0000 </r>
      <r>     6.1365    12.1785    12.1785    12.1785    -0.0000    -0.0000     0.0000 </r>
      <r>     6.1597    11.8335    11.8335    11.8335    -0.0000    -0.0000     0.0000 </r>
      <r>     6.1829    11.4403    11.4403    11.4403    -0.0000    -0.0000     0.0000 </r>
      <r>     6.2062    11.0374    11.0374    11.0374    -0.0000    -0.0000     0.0000 </r>
      <r>     6.2294    10.6483    10.6483    10.6483    -0.0000    -0.0000     0.0000 </r>
      <r>     6.2527    10.2797    10.2797    10.2797    -0.0000    -0.0000     0.0000 </r>
      <r>     6.2759     9.9292     9.9292     9.9292     0.0000    -0.0000     0.0000 </r>
      <r>     6.2992     9.5919     9.5919     9.5919     0.0000    -0.0000     0.0000 </r>
      <r>     6.3224     9.2637     9.2637     9.2637     0.0000    -0.0000     0.0000 </r>
      <r>     6.3456     8.9425     8.9425     8.9425     0.0000    -0.0000     0.0000 </r>
      <r>     6.3689     8.6287     8.6287     8.6287     0.0000    -0.0000     0.0000 </r>
      <r>     6.3921     8.3238     8.3238     8.3238     0.0000    -0.0000     0.0000 </r>
      <r>     6.4154     8.0293     8.0293     8.0293     0.0000    -0.0000     0.0000 </r>
      <r>     6.4386     7.7460     7.7460     7.7460     0.0000    -0.0000     0.0000 </r>
      <r>     6.4619     7.4743     7.4743     7.4743     0.0000    -0.0000     0.0000 </r>
      <r>     6.4851     7.2147     7.2147     7.2147     0.0000    -0.0000     0.0000 </r>
      <r>     6.5084     6.9681     6.9681     6.9681     0.0000    -0.0000     0.0000 </r>
      <r>     6.5316     6.7367     6.7367     6.7367     0.0000    -0.0000     0.0000 </r>
      <r>     6.5548     6.5224     6.5224     6.5224     0.0000    -0.0000     0.0000 </r>
      <r>     6.5781     6.3263     6.3263     6.3263     0.0000    -0.0000     0.0000 </r>
      <r>     6.6013     6.1461     6.1461     6.1461     0.0000    -0.0000     0.0000 </r>
      <r>     6.6246     5.9730     5.9730     5.9730     0.0000    -0.0000     0.0000 </r>
      <r>     6.6478     5.7936     5.7936     5.7936     0.0000    -0.0000     0.0000 </r>
      <r>     6.6711     5.6002     5.6002     5.6002     0.0000    -0.0000     0.0000 </r>
      <r>     6.6943     5.3994     5.3994     5.3994     0.0000    -0.0000     0.0000 </r>
      <r>     6.7176     5.2046     5.2046     5.2046     0.0000    -0.0000     0.0000 </r>
      <r>     6.7408     5.0246     5.0246     5.0246     0.0000    -0.0000     0.0000 </r>
      <r>     6.7640     4.8615     4.8615     4.8615     0.0000    -0.0000     0.0000 </r>
      <r>     6.7873     4.7138     4.7138     4.7138     0.0000    -0.0000     0.0000 </r>
      <r>     6.8105     4.5795     4.5795     4.5795     0.0000    -0.0000     0.0000 </r>
      <r>     6.8338     4.4571     4.4571     4.4571     0.0000    -0.0000     0.0000 </r>
      <r>     6.8570     4.3461     4.3461     4.3461     0.0000    -0.0000     0.0000 </r>
      <r>     6.8803     4.2459     4.2459     4.2459     0.0000    -0.0000     0.0000 </r>
      <r>     6.9035     4.1558     4.1558     4.1558     0.0000    -0.0000     0.0000 </r>
      <r>     6.9268     4.0749     4.0749     4.0749     0.0000     0.0000     0.0000 </r>
      <r>     6.9500     4.0026     4.0026     4.0026     0.0000     0.0000     0.0000 </r>
      <r>     6.9732     3.9383     3.9383     3.9383     0.0000     0.0000     0.0000 </r>
      <r>     6.9965     3.8815     3.8815     3.8815     0.0000     0.0000     0.0000 </r>
      <r>     7.0197     3.8323     3.8323     3.8323     0.0000    -0.0000     0.0000 </r>
      <r>     7.0430     3.7908     3.7908     3.7908     0.0000    -0.0000     0.0000 </r>
      <r>     7.0662     3.7569     3.7569     3.7569     0.0000    -0.0000     0.0000 </r>
      <r>     7.0895     3.7305     3.7305     3.7305     0.0000    -0.0000     0.0000 </r>
      <r>     7.1127     3.7110     3.7110     3.7110     0.0000    -0.0000     0.0000 </r>
      <r>     7.1359     3.6974     3.6974     3.6974     0.0000    -0.0000     0.0000 </r>
      <r>     7.1592     3.6883     3.6883     3.6883     0.0000    -0.0000     0.0000 </r>
      <r>     7.1824     3.6820     3.6820     3.6820     0.0000    -0.0000     0.0000 </r>
      <r>     7.2057     3.6764     3.6764     3.6764     0.0000    -0.0000     0.0000 </r>
      <r>     7.2289     3.6698     3.6698     3.6698     0.0000    -0.0000    -0.0000 </r>
      <r>     7.2522     3.6618     3.6618     3.6618     0.0000    -0.0000    -0.0000 </r>
      <r>     7.2754     3.6537     3.6537     3.6537     0.0000     0.0000    -0.0000 </r>
      <r>     7.2987     3.6478     3.6478     3.6478     0.0000    -0.0000    -0.0000 </r>
      <r>     7.3219     3.6467     3.6467     3.6467     0.0000    -0.0000    -0.0000 </r>
      <r>     7.3451     3.6524     3.6524     3.6524     0.0000    -0.0000    -0.0000 </r>
      <r>     7.3684     3.6659     3.6659     3.6659     0.0000    -0.0000    -0.0000 </r>
      <r>     7.3916     3.6866     3.6866     3.6866     0.0000    -0.0000    -0.0000 </r>
      <r>     7.4149     3.7112     3.7112     3.7112     0.0000    -0.0000    -0.0000 </r>
      <r>     7.4381     3.7340     3.7340     3.7340     0.0000     0.0000    -0.0000 </r>
      <r>     7.4614     3.7482     3.7482     3.7482     0.0000     0.0000    -0.0000 </r>
      <r>     7.4846     3.7469     3.7469     3.7469     0.0000     0.0000    -0.0000 </r>
      <r>     7.5079     3.7246     3.7246     3.7246     0.0000     0.0000    -0.0000 </r>
      <r>     7.5311     3.6795     3.6795     3.6795     0.0000     0.0000    -0.0000 </r>
      <r>     7.5543     3.6146     3.6146     3.6146     0.0000     0.0000    -0.0000 </r>
      <r>     7.5776     3.5369     3.5369     3.5369     0.0000     0.0000    -0.0000 </r>
      <r>     7.6008     3.4546     3.4546     3.4546     0.0000     0.0000    -0.0000 </r>
      <r>     7.6241     3.3736     3.3736     3.3736    -0.0000     0.0000    -0.0000 </r>
      <r>     7.6473     3.2969     3.2969     3.2969    -0.0000     0.0000    -0.0000 </r>
      <r>     7.6706     3.2255     3.2255     3.2255    -0.0000     0.0000    -0.0000 </r>
      <r>     7.6938     3.1598     3.1598     3.1598    -0.0000     0.0000    -0.0000 </r>
      <r>     7.7171     3.0999     3.0999     3.0999    -0.0000     0.0000    -0.0000 </r>
      <r>     7.7403     3.0450     3.0450     3.0450    -0.0000     0.0000    -0.0000 </r>
      <r>     7.7635     2.9937     2.9937     2.9937    -0.0000     0.0000    -0.0000 </r>
      <r>     7.7868     2.9448     2.9448     2.9448     0.0000     0.0000    -0.0000 </r>
      <r>     7.8100     2.8973     2.8973     2.8973     0.0000     0.0000    -0.0000 </r>
      <r>     7.8333     2.8507     2.8507     2.8507     0.0000     0.0000    -0.0000 </r>
      <r>     7.8565     2.8054     2.8054     2.8054     0.0000     0.0000    -0.0000 </r>
      <r>     7.8798     2.7621     2.7621     2.7621     0.0000     0.0000    -0.0000 </r>
      <r>     7.9030     2.7218     2.7218     2.7218     0.0000     0.0000    -0.0000 </r>
      <r>     7.9262     2.6856     2.6856     2.6856     0.0000     0.0000    -0.0000 </r>
      <r>     7.9495     2.6543     2.6543     2.6543     0.0000     0.0000    -0.0000 </r>
      <r>     7.9727     2.6281     2.6281     2.6281     0.0000    -0.0000    -0.0000 </r>
      <r>     7.9960     2.6061     2.6061     2.6061     0.0000    -0.0000    -0.0000 </r>
      <r>     8.0192     2.5857     2.5857     2.5857     0.0000    -0.0000    -0.0000 </r>
      <r>     8.0425     2.5634     2.5634     2.5634     0.0000    -0.0000    -0.0000 </r>
      <r>     8.0657     2.5361     2.5361     2.5361     0.0000    -0.0000    -0.0000 </r>
      <r>     8.0890     2.5024     2.5024     2.5024     0.0000    -0.0000     0.0000 </r>
      <r>     8.1122     2.4628     2.4628     2.4628     0.0000    -0.0000     0.0000 </r>
      <r>     8.1354     2.4190     2.4190     2.4190    -0.0000    -0.0000     0.0000 </r>
      <r>     8.1587     2.3738     2.3738     2.3738    -0.0000    -0.0000     0.0000 </r>
      <r>     8.1819     2.3293     2.3293     2.3293    -0.0000    -0.0000     0.0000 </r>
      <r>     8.2052     2.2865     2.2865     2.2865    -0.0000    -0.0000     0.0000 </r>
      <r>     8.2284     2.2456     2.2456     2.2456    -0.0000    -0.0000     0.0000 </r>
      <r>     8.2517     2.2065     2.2065     2.2065    -0.0000    -0.0000     0.0000 </r>
      <r>     8.2749     2.1689     2.1689     2.1689    -0.0000    -0.0000     0.0000 </r>
      <r>     8.2982     2.1320     2.1320     2.1320    -0.0000     0.0000     0.0000 </r>
      <r>     8.3214     2.0951     2.0951     2.0951     0.0000    -0.0000     0.0000 </r>
      <r>     8.3446     2.0575     2.0575     2.0575     0.0000    -0.0000     0.0000 </r>
      <r>     8.3679     2.0190     2.0190     2.0190     0.0000    -0.0000     0.0000 </r>
      <r>     8.3911     1.9801     1.9801     1.9801     0.0000    -0.0000     0.0000 </r>
      <r>     8.4144     1.9408     1.9408     1.9408     0.0000    -0.0000     0.0000 </r>
      <r>     8.4376     1.9014     1.9014     1.9014     0.0000    -0.0000     0.0000 </r>
      <r>     8.4609     1.8622     1.8622     1.8622     0.0000     0.0000     0.0000 </r>
      <r>     8.4841     1.8236     1.8236     1.8236     0.0000     0.0000     0.0000 </r>
      <r>     8.5074     1.7862     1.7862     1.7862     0.0000     0.0000     0.0000 </r>
      <r>     8.5306     1.7496     1.7496     1.7496     0.0000     0.0000     0.0000 </r>
      <r>     8.5538     1.7125     1.7125     1.7125     0.0000     0.0000     0.0000 </r>
      <r>     8.5771     1.6716     1.6716     1.6716     0.0000     0.0000     0.0000 </r>
      <r>     8.6003     1.6239     1.6239     1.6239     0.0000     0.0000     0.0000 </r>
      <r>     8.6236     1.5691     1.5691     1.5691     0.0000     0.0000     0.0000 </r>
      <r>     8.6468     1.5104     1.5104     1.5104     0.0000     0.0000     0.0000 </r>
      <r>     8.6701     1.4526     1.4526     1.4526     0.0000     0.0000     0.0000 </r>
      <r>     8.6933     1.3996     1.3996     1.3996     0.0000     0.0000     0.0000 </r>
      <r>     8.7165     1.3530     1.3530     1.3530     0.0000     0.0000     0.0000 </r>
      <r>     8.7398     1.3131     1.3131     1.3131     0.0000     0.0000     0.0000 </r>
      <r>     8.7630     1.2789     1.2789     1.2789     0.0000     0.0000     0.0000 </r>
      <r>     8.7863     1.2490     1.2490     1.2490     0.0000     0.0000     0.0000 </r>
      <r>     8.8095     1.2212     1.2212     1.2212     0.0000     0.0000     0.0000 </r>
      <r>     8.8328     1.1936     1.1936     1.1936     0.0000     0.0000     0.0000 </r>
      <r>     8.8560     1.1656     1.1656     1.1656     0.0000     0.0000     0.0000 </r>
      <r>     8.8793     1.1371     1.1371     1.1371     0.0000     0.0000     0.0000 </r>
      <r>     8.9025     1.1093     1.1093     1.1093     0.0000     0.0000     0.0000 </r>
      <r>     8.9257     1.0833     1.0833     1.0833     0.0000     0.0000     0.0000 </r>
      <r>     8.9490     1.0606     1.0606     1.0606     0.0000     0.0000     0.0000 </r>
      <r>     8.9722     1.0419     1.0419     1.0419     0.0000     0.0000     0.0000 </r>
      <r>     8.9955     1.0274     1.0274     1.0274     0.0000     0.0000     0.0000 </r>
      <r>     9.0187     1.0169     1.0169     1.0169     0.0000     0.0000    -0.0000 </r>
      <r>     9.0420     1.0097     1.0097     1.0097     0.0000     0.0000    -0.0000 </r>
      <r>     9.0652     1.0047     1.0047     1.0047     0.0000     0.0000    -0.0000 </r>
      <r>     9.0885     1.0002     1.0002     1.0002     0.0000     0.0000    -0.0000 </r>
      <r>     9.1117     0.9942     0.9942     0.9942     0.0000     0.0000    -0.0000 </r>
      <r>     9.1349     0.9851     0.9851     0.9851     0.0000     0.0000    -0.0000 </r>
      <r>     9.1582     0.9726     0.9726     0.9726     0.0000     0.0000    -0.0000 </r>
      <r>     9.1814     0.9571     0.9571     0.9571     0.0000     0.0000    -0.0000 </r>
      <r>     9.2047     0.9398     0.9398     0.9398     0.0000     0.0000    -0.0000 </r>
      <r>     9.2279     0.9216     0.9216     0.9216     0.0000     0.0000    -0.0000 </r>
      <r>     9.2512     0.9030     0.9030     0.9030     0.0000     0.0000     0.0000 </r>
      <r>     9.2744     0.8842     0.8842     0.8842     0.0000     0.0000     0.0000 </r>
      <r>     9.2977     0.8654     0.8654     0.8654     0.0000     0.0000     0.0000 </r>
      <r>     9.3209     0.8467     0.8467     0.8467     0.0000     0.0000     0.0000 </r>
      <r>     9.3441     0.8279     0.8279     0.8279     0.0000     0.0000    -0.0000 </r>
      <r>     9.3674     0.8089     0.8089     0.8089     0.0000     0.0000    -0.0000 </r>
      <r>     9.3906     0.7891     0.7891     0.7891     0.0000     0.0000    -0.0000 </r>
      <r>     9.4139     0.7681     0.7681     0.7681     0.0000     0.0000    -0.0000 </r>
      <r>     9.4371     0.7459     0.7459     0.7459     0.0000     0.0000    -0.0000 </r>
      <r>     9.4604     0.7227     0.7227     0.7227     0.0000     0.0000    -0.0000 </r>
      <r>     9.4836     0.6993     0.6993     0.6993     0.0000     0.0000    -0.0000 </r>
      <r>     9.5068     0.6764     0.6764     0.6764     0.0000     0.0000    -0.0000 </r>
      <r>     9.5301     0.6544     0.6544     0.6544     0.0000     0.0000    -0.0000 </r>
      <r>     9.5533     0.6331     0.6331     0.6331     0.0000     0.0000    -0.0000 </r>
      <r>     9.5766     0.6128     0.6128     0.6128     0.0000     0.0000     0.0000 </r>
      <r>     9.5998     0.5934     0.5934     0.5934     0.0000     0.0000     0.0000 </r>
      <r>     9.6231     0.5752     0.5752     0.5752     0.0000     0.0000     0.0000 </r>
      <r>     9.6463     0.5581     0.5581     0.5581     0.0000    -0.0000     0.0000 </r>
      <r>     9.6696     0.5422     0.5422     0.5422     0.0000    -0.0000    -0.0000 </r>
      <r>     9.6928     0.5275     0.5275     0.5275     0.0000    -0.0000    -0.0000 </r>
      <r>     9.7160     0.5138     0.5138     0.5138     0.0000    -0.0000    -0.0000 </r>
      <r>     9.7393     0.5013     0.5013     0.5013     0.0000    -0.0000    -0.0000 </r>
      <r>     9.7625     0.4903     0.4903     0.4903     0.0000    -0.0000    -0.0000 </r>
      <r>     9.7858     0.4807     0.4807     0.4807     0.0000    -0.0000    -0.0000 </r>
      <r>     9.8090     0.4724     0.4724     0.4724     0.0000    -0.0000    -0.0000 </r>
      <r>     9.8323     0.4650     0.4650     0.4650    -0.0000     0.0000    -0.0000 </r>
      <r>     9.8555     0.4584     0.4584     0.4584    -0.0000     0.0000    -0.0000 </r>
      <r>     9.8788     0.4523     0.4523     0.4523    -0.0000     0.0000     0.0000 </r>
      <r>     9.9020     0.4467     0.4467     0.4467    -0.0000     0.0000     0.0000 </r>
      <r>     9.9252     0.4412     0.4412     0.4412    -0.0000     0.0000     0.0000 </r>
      <r>     9.9485     0.4357     0.4357     0.4357    -0.0000     0.0000     0.0000 </r>
      <r>     9.9717     0.4300     0.4300     0.4300    -0.0000     0.0000     0.0000 </r>
      <r>     9.9950     0.4238     0.4238     0.4238    -0.0000     0.0000    -0.0000 </r>
      <r>    10.0182     0.4167     0.4167     0.4167    -0.0000     0.0000    -0.0000 </r>
      <r>    10.0415     0.4076     0.4076     0.4076     0.0000     0.0000    -0.0000 </r>
      <r>    10.0647     0.3962     0.3962     0.3962     0.0000     0.0000    -0.0000 </r>
      <r>    10.0880     0.3831     0.3831     0.3831     0.0000     0.0000    -0.0000 </r>
      <r>    10.1112     0.3694     0.3694     0.3694     0.0000     0.0000    -0.0000 </r>
      <r>    10.1344     0.3557     0.3557     0.3557     0.0000     0.0000    -0.0000 </r>
      <r>    10.1577     0.3425     0.3425     0.3425     0.0000     0.0000    -0.0000 </r>
      <r>    10.1809     0.3298     0.3298     0.3298     0.0000     0.0000    -0.0000 </r>
      <r>    10.2042     0.3177     0.3177     0.3177    -0.0000     0.0000    -0.0000 </r>
      <r>    10.2274     0.3062     0.3062     0.3062    -0.0000     0.0000    -0.0000 </r>
      <r>    10.2507     0.2957     0.2957     0.2957    -0.0000     0.0000    -0.0000 </r>
      <r>    10.2739     0.2863     0.2863     0.2863     0.0000     0.0000    -0.0000 </r>
      <r>    10.2971     0.2780     0.2780     0.2780     0.0000     0.0000    -0.0000 </r>
      <r>    10.3204     0.2707     0.2707     0.2707     0.0000     0.0000    -0.0000 </r>
      <r>    10.3436     0.2643     0.2643     0.2643     0.0000     0.0000    -0.0000 </r>
      <r>    10.3669     0.2587     0.2587     0.2587     0.0000     0.0000    -0.0000 </r>
      <r>    10.3901     0.2536     0.2536     0.2536     0.0000     0.0000    -0.0000 </r>
      <r>    10.4134     0.2490     0.2490     0.2490     0.0000     0.0000    -0.0000 </r>
      <r>    10.4366     0.2447     0.2447     0.2447     0.0000     0.0000    -0.0000 </r>
      <r>    10.4599     0.2409     0.2409     0.2409     0.0000     0.0000    -0.0000 </r>
      <r>    10.4831     0.2373     0.2373     0.2373    -0.0000     0.0000    -0.0000 </r>
      <r>    10.5063     0.2342     0.2342     0.2342    -0.0000     0.0000    -0.0000 </r>
      <r>    10.5296     0.2314     0.2314     0.2314    -0.0000     0.0000    -0.0000 </r>
      <r>    10.5528     0.2289     0.2289     0.2289    -0.0000    -0.0000    -0.0000 </r>
      <r>    10.5761     0.2265     0.2265     0.2265    -0.0000    -0.0000    -0.0000 </r>
      <r>    10.5993     0.2243     0.2243     0.2243    -0.0000    -0.0000    -0.0000 </r>
      <r>    10.6226     0.2221     0.2221     0.2221    -0.0000    -0.0000    -0.0000 </r>
      <r>    10.6458     0.2201     0.2201     0.2201    -0.0000    -0.0000     0.0000 </r>
      <r>    10.6691     0.2182     0.2182     0.2182    -0.0000    -0.0000     0.0000 </r>
      <r>    10.6923     0.2166     0.2166     0.2166    -0.0000    -0.0000     0.0000 </r>
      <r>    10.7155     0.2152     0.2152     0.2152    -0.0000    -0.0000     0.0000 </r>
[...]
     <r>     8.8466     0.1840     0.1840     0.1840    -0.0000     0.0000    -0.0000 </r>
     <r>     8.8566     0.1791     0.1791     0.1791     0.0000     0.0000     0.0000 </r>
     <r>     8.8666     0.1737     0.1737     0.1737     0.0000     0.0000    -0.0000 </r>
     <r>     8.8767     0.1684     0.1684     0.1684    -0.0000     0.0000    -0.0000 </r>
     <r>     8.8867     0.1634     0.1634     0.1634    -0.0000    -0.0000    -0.0000 </r>
     <r>     8.8967     0.1299     0.1299     0.1299    -0.0000    -0.0000     0.0000 </r>
     <r>     8.9067     0.1326     0.1326     0.1326     0.0000    -0.0000     0.0000 </r>
     <r>     8.9167     0.1352     0.1352     0.1352     0.0000     0.0000    -0.0000 </r>
     <r>     8.9267     0.1379     0.1379     0.1379     0.0000     0.0000     0.0000 </r>
     <r>     8.9367     0.1405     0.1405     0.1405     0.0000     0.0000     0.0000 </r>
     <r>     8.9467     0.1432     0.1432     0.1432     0.0000     0.0000    -0.0000 </r>
     <r>     8.9567     0.1458     0.1458     0.1458    -0.0000     0.0000     0.0000 </r>
     <r>     8.9667     0.1521     0.1521     0.1521     0.0000     0.0000     0.0000 </r>
     <r>     8.9768     0.1540     0.1540     0.1540    -0.0000     0.0000     0.0000 </r>
     <r>     8.9868     0.1575     0.1575     0.1575     0.0000     0.0000     0.0000 </r>
     <r>     8.9968     0.1610     0.1610     0.1610    -0.0000    -0.0000     0.0000 </r>
     <r>     9.0068     0.1645     0.1645     0.1645     0.0000    -0.0000     0.0000 </r>
     <r>     9.0168     0.1680     0.1680     0.1680    -0.0000     0.0000    -0.0000 </r>
     <r>     9.0268     0.1715     0.1715     0.1715     0.0000     0.0000     0.0000 </r>
     <r>     9.0368     0.1750     0.1750     0.1750    -0.0000    -0.0000    -0.0000 </r>
     <r>     9.0468     0.1785     0.1785     0.1785     0.0000    -0.0000     0.0000 </r>
     <r>     9.0568     0.1820     0.1820     0.1820     0.0000     0.0000    -0.0000 </r>
     <r>     9.0668     0.1925     0.1925     0.1925    -0.0000    -0.0000     0.0000 </r>
     <r>     9.0769     0.1947     0.1947     0.1947    -0.0000    -0.0000     0.0000 </r>
     <r>     9.0869     0.1968     0.1968     0.1968    -0.0000    -0.0000    -0.0000 </r>
     <r>     9.0969     0.1988     0.1988     0.1988     0.0000     0.0000     0.0000 </r>
     <r>     9.1069     0.2008     0.2008     0.2008    -0.0000    -0.0000    -0.0000 </r>
     <r>     9.1169     0.2069     0.2069     0.2069     0.0000    -0.0000     0.0000 </r>
     <r>     9.1269     0.2085     0.2085     0.2085    -0.0000     0.0000     0.0000 </r>
     <r>     9.1369     0.2100     0.2100     0.2100     0.0000    -0.0000     0.0000 </r>
     <r>     9.1469     0.2113     0.2113     0.2113    -0.0000     0.0000    -0.0000 </r>
     <r>     9.1569     0.2124     0.2124     0.2124    -0.0000     0.0000    -0.0000 </r>
     <r>     9.1669     0.2134     0.2134     0.2134     0.0000     0.0000     0.0000 </r>
     <r>     9.1770     0.2142     0.2142     0.2142    -0.0000    -0.0000    -0.0000 </r>
     <r>     9.1870     0.2149     0.2149     0.2149     0.0000    -0.0000     0.0000 </r>
     <r>     9.1970     0.2154     0.2154     0.2154    -0.0000    -0.0000     0.0000 </r>
     <r>     9.2070     0.2157     0.2157     0.2157    -0.0000    -0.0000     0.0000 </r>
     <r>     9.2170     0.2159     0.2159     0.2159    -0.0000    -0.0000    -0.0000 </r>
     <r>     9.2270     0.2160     0.2160     0.2160     0.0000     0.0000    -0.0000 </r>
     <r>     9.2370     0.2158     0.2158     0.2158    -0.0000     0.0000     0.0000 </r>
    </set>
   </array>
  </conductivity>
  <dos>
   <i name="efermi">      4.23701842 </i>
   <total>
    <array>
     <dimension dim="1">gridpoints</dimension>
     <dimension dim="2">spin</dimension>
     <field>energy</field>
     <field>total</field>
     <field>integrated</field>
     <set>
      <set comment="spin 1">
       <r>   -10.7819     0.0000     0.0000 </r>
       <r>   -10.7107     0.0000     0.0000 </r>
       <r>   -10.6396     0.0000     0.0000 </r>
       <r>   -10.5684     0.0000     0.0000 </r>
       <r>   -10.4972     0.0000     0.0000 </r>
       <r>   -10.4260     0.0000     0.0000 </r>
       <r>   -10.3549     0.0000     0.0000 </r>
       <r>   -10.2837     0.0000     0.0000 </r>
       <r>   -10.2125     0.0000     0.0000 </r>
       <r>   -10.1414     0.0000     0.0000 </r>
       <r>   -10.0702     0.0000     0.0000 </r>
       <r>    -9.9990     0.0000     0.0000 </r>
       <r>    -9.9279     0.0000     0.0000 </r>
       <r>    -9.8567     0.0000     0.0000 </r>
       <r>    -9.7855     0.0000     0.0000 </r>
       <r>    -9.7144     0.0558     0.0013 </r>
       <r>    -9.6432     0.2353     0.0109 </r>
       <r>    -9.5720     0.5123     0.0374 </r>
       <r>    -9.5008     0.6991     0.0813 </r>
       <r>    -9.4297     0.7600     0.1339 </r>
       <r>    -9.3585     0.7905     0.1888 </r>
       <r>    -9.2873     0.8695     0.2476 </r>
       <r>    -9.2162     0.9855     0.3135 </r>
       <r>    -9.1450     1.1096     0.3880 </r>
       <r>    -9.0738     1.3870     0.4731 </r>
       <r>    -9.0027     1.9461     0.5926 </r>
       <r>    -8.9315     2.3558     0.7466 </r>
       <r>    -8.8603     2.0069     0.9015 </r>
       <r>    -8.7892     1.7190     1.0337 </r>
       <r>    -8.7180     1.6878     1.1543 </r>
       <r>    -8.6468     1.6638     1.2736 </r>
       <r>    -8.5756     1.6231     1.3907 </r>
       <r>    -8.5045     1.5658     1.5043 </r>
       <r>    -8.4333     1.9957     1.6387 </r>
       <r>    -8.3621     1.4894     1.7624 </r>
       <r>    -8.2910     0.8436     1.8344 </r>
       <r>    -8.2198     1.4144     1.9107 </r>
       <r>    -8.1486     2.2248     2.0394 </r>
       <r>    -8.0775     2.5223     2.2126 </r>
       <r>    -8.0063     2.6157     2.4090 </r>
       <r>    -7.9351     2.6886     2.5900 </r>
       <r>    -7.8640     2.9381     2.7905 </r>
       <r>    -7.7928     3.1393     3.0071 </r>
       <r>    -7.7216     6.0738     3.4093 </r>
       <r>    -7.6504     4.9130     3.8110 </r>
       <r>    -7.5793     3.5116     4.1132 </r>
       <r>    -7.5081     3.0298     4.3218 </r>
       <r>    -7.4369     3.2601     4.5454 </r>
       <r>    -7.3658     3.5278     4.7867 </r>
       <r>    -7.2946     5.8939     5.1234 </r>
       <r>    -7.2234     5.5061     5.5363 </r>
       <r>    -7.1523     6.0623     5.9407 </r>
       <r>    -7.0811     6.2076     6.3873 </r>
       <r>    -7.0099     4.4439     6.7802 </r>
       <r>    -6.9388     4.1360     7.0855 </r>
       <r>    -6.8676     3.8416     7.3693 </r>
       <r>    -6.7964     3.5693     7.6360 </r>
       <r>    -6.7253     3.6156     7.8717 </r>
       <r>    -6.6541     0.0000     8.0000 </r>
       <r>    -6.5829     0.0000     8.0000 </r>
       <r>    -6.5117     0.0000     8.0000 </r>
       <r>    -6.4406     0.0000     8.0000 </r>
       <r>    -6.3694     0.0000     8.0000 </r>
       <r>    -6.2982     0.0000     8.0000 </r>
       <r>    -6.2271     0.0000     8.0000 </r>
       <r>    -6.1559     0.0000     8.0000 </r>
       <r>    -6.0847     0.0000     8.0000 </r>
       <r>    -6.0136     0.0000     8.0000 </r>
       <r>    -5.9424     0.0000     8.0000 </r>
       <r>    -5.8712     0.0000     8.0000 </r>
       <r>    -5.8001     0.0000     8.0000 </r>
       <r>    -5.7289     0.0000     8.0000 </r>
       <r>    -5.6577     0.0000     8.0000 </r>
       <r>    -5.5865     0.0000     8.0000 </r>
       <r>    -5.5154     0.0000     8.0000 </r>
       <r>    -5.4442     0.0000     8.0000 </r>
       <r>    -5.3730     0.0000     8.0000 </r>
       <r>    -5.3019     0.0000     8.0000 </r>
       <r>    -5.2307     0.0000     8.0000 </r>
       <r>    -5.1595     0.0000     8.0000 </r>
       <r>    -5.0884     0.0000     8.0000 </r>
       <r>    -5.0172     0.0000     8.0000 </r>
       <r>    -4.9460     0.0000     8.0000 </r>
       <r>    -4.8749     0.0000     8.0000 </r>
       <r>    -4.8037     0.0000     8.0000 </r>
       <r>    -4.7325     0.0000     8.0000 </r>
       <r>    -4.6613     0.0000     8.0000 </r>
       <r>    -4.5902     0.0000     8.0000 </r>
       <r>    -4.5190     0.0000     8.0000 </r>
       <r>    -4.4478     0.0000     8.0000 </r>
       <r>    -4.3767     0.0000     8.0000 </r>
       <r>    -4.3055     0.0000     8.0000 </r>
       <r>    -4.2343     0.0000     8.0000 </r>
       <r>    -4.1632     0.0000     8.0000 </r>
       <r>    -4.0920     0.0000     8.0000 </r>
       <r>    -4.0208     0.0000     8.0000 </r>
       <r>    -3.9497     0.0000     8.0000 </r>
       <r>    -3.8785     0.0000     8.0000 </r>
       <r>    -3.8073     0.0000     8.0000 </r>
       <r>    -3.7361     0.0000     8.0000 </r>
       <r>    -3.6650     0.0000     8.0000 </r>
       <r>    -3.5938     0.0000     8.0000 </r>
       <r>    -3.5226     0.0000     8.0000 </r>
       <r>    -3.4515     0.0000     8.0000 </r>
       <r>    -3.3803     0.0544     8.0004 </r>
       <r>    -3.3091     0.8793     8.0281 </r>
       <r>    -3.2380     1.3318     8.1142 </r>
       <r>    -3.1668     4.2219     8.3561 </r>
       <r>    -3.0956     6.5055     8.7033 </r>
       <r>    -3.0245    14.5756     9.3592 </r>
       <r>    -2.9533     6.9813    10.0189 </r>
       <r>    -2.8821     7.0542    10.5178 </r>
       <r>    -2.8109     7.2067    11.0248 </r>
       <r>    -2.7398     5.5029    11.4664 </r>
       <r>    -2.6686     4.1220    11.7992 </r>
       <r>    -2.5974     2.8486    12.0710 </r>
       <r>    -2.5263     2.3066    12.2390 </r>
       <r>    -2.4551     2.2476    12.4010 </r>
       <r>    -2.3839     2.1919    12.5589 </r>
       <r>    -2.3128     2.1394    12.7131 </r>
       <r>    -2.2416     2.0902    12.8635 </r>
       <r>    -2.1704     2.0443    13.0106 </r>
       <r>    -2.0993     2.0016    13.1546 </r>
       <r>    -2.0281     1.9622    13.2956 </r>
       <r>    -1.9569     1.6122    13.4166 </r>
       <r>    -1.8858     1.5885    13.5305 </r>
       <r>    -1.8146     1.5610    13.6426 </r>
       <r>    -1.7434     1.5246    13.7524 </r>
       <r>    -1.6722     1.4815    13.8594 </r>
       <r>    -1.6011     1.4355    13.9632 </r>
       <r>    -1.5299     1.3867    14.0636 </r>
       <r>    -1.4587     1.3350    14.1605 </r>
       <r>    -1.3876     1.2804    14.2536 </r>
       <r>    -1.3164     1.2230    14.3427 </r>
       <r>    -1.2452     1.2251    14.4313 </r>
       <r>    -1.1741     1.1471    14.5156 </r>
       <r>    -1.1029     1.0822    14.5949 </r>
       <r>    -1.0317     1.0302    14.6699 </r>
       <r>    -0.9606     0.8770    14.7394 </r>
       <r>    -0.8894     0.9481    14.8035 </r>
       <r>    -0.8182     1.0653    14.8751 </r>
       <r>    -0.7470     1.2007    14.9556 </r>
       <r>    -0.6759     1.3543    15.0464 </r>
       <r>    -0.6047     2.2617    15.1952 </r>
       <r>    -0.5335     1.4644    15.3037 </r>
       <r>    -0.4624     1.6553    15.4168 </r>
       <r>    -0.3912     1.8278    15.5403 </r>
       <r>    -0.3200     2.0722    15.6787 </r>
       <r>    -0.2489     2.2743    15.8331 </r>
       <r>    -0.1777     3.8485    16.0644 </r>
       <r>    -0.1065     4.2929    16.3521 </r>
       <r>    -0.0354     3.6911    16.6158 </r>
       <r>     0.0358     4.8903    16.9194 </r>
       <r>     0.1070     6.3828    17.3188 </r>
       <r>     0.1782     6.8103    17.8060 </r>
       <r>     0.2493     4.6870    18.1560 </r>
       <r>     0.3205     4.3277    18.4768 </r>
       <r>     0.3917     3.8145    18.7667 </r>
       <r>     0.4628     3.6150    19.0307 </r>
       <r>     0.5340     4.0201    19.2963 </r>
       <r>     0.6052     3.5676    19.5889 </r>
       <r>     0.6763     3.2514    19.8147 </r>
       <r>     0.7475     3.4349    20.0528 </r>
       <r>     0.8187     3.5884    20.3029 </r>
       <r>     0.8898     3.8420    20.5629 </r>
       <r>     0.9610     4.9495    20.8590 </r>
       <r>     1.0322     7.3801    21.3135 </r>
       <r>     1.1034     6.6533    21.8414 </r>
       <r>     1.1745     7.0466    22.2963 </r>
       <r>     1.2457     6.8587    22.8107 </r>
       <r>     1.3169     5.8471    23.2580 </r>
       <r>     1.3880     4.9956    23.6443 </r>
       <r>     1.4592     3.9090    23.9617 </r>
       <r>     1.5304     3.4965    24.2236 </r>
       <r>     1.6015     3.3600    24.4660 </r>
       <r>     1.6727     3.4997    24.7084 </r>
       <r>     1.7439     4.2548    24.9833 </r>
       <r>     1.8150     4.9329    25.3110 </r>
       <r>     1.8862     5.6567    25.6908 </r>
       <r>     1.9574     5.2410    26.0900 </r>
       <r>     2.0286     4.7712    26.4224 </r>
       <r>     2.0997     4.9611    26.7688 </r>
       <r>     2.1709     5.8552    27.1562 </r>
       <r>     2.2421     7.2990    27.6382 </r>
       <r>     2.3132     4.7831    28.0704 </r>
       <r>     2.3844     4.2706    28.3925 </r>
       <r>     2.4556     3.7658    28.6785 </r>
       <r>     2.5267     3.2685    28.9287 </r>
       <r>     2.5979     2.8660    29.1524 </r>
       <r>     2.6691     2.0440    29.3034 </r>
       <r>     2.7402     1.8969    29.4428 </r>
       <r>     2.8114     2.3821    29.5904 </r>
       <r>     2.8826     3.0733    29.7843 </r>
       <r>     2.9538     4.3292    30.0690 </r>
       <r>     3.0249     4.3542    30.3624 </r>
       <r>     3.0961     4.7341    30.6865 </r>
       <r>     3.1673     4.8167    31.0215 </r>
       <r>     3.2384     2.8743    31.2946 </r>
       <r>     3.3096     1.4247    31.4104 </r>
       <r>     3.3808     1.2561    31.5058 </r>
       <r>     3.4519     1.0931    31.5893 </r>
       <r>     3.5231     0.9358    31.6615 </r>
       <r>     3.5943     0.7904    31.7227 </r>
       <r>     3.6654     0.8211    31.7792 </r>
       <r>     3.7366     0.8235    31.8382 </r>
       <r>     3.8078     0.7479    31.8946 </r>
       <r>     3.8789     0.5945    31.9428 </r>
       <r>     3.9501     0.3632    31.9773 </r>
       <r>     4.0213     0.1088    31.9931 </r>
       <r>     4.0925     0.0429    31.9983 </r>
       <r>     4.1636     0.0071    31.9999 </r>
       <r>     4.2348     0.0000    32.0000 </r>
       <r>     4.3060     0.0000    32.0000 </r>
       <r>     4.3771     0.0000    32.0000 </r>
       <r>     4.4483     0.0000    32.0000 </r>
       <r>     4.5195     0.0000    32.0000 </r>
       <r>     4.5906     0.0000    32.0000 </r>
       <r>     4.6618     0.0000    32.0000 </r>
       <r>     4.7330     0.0000    32.0000 </r>
       <r>     4.8041     0.0000    32.0000 </r>
       <r>     4.8753     0.0000    32.0000 </r>
       <r>     4.9465     0.0000    32.0000 </r>
       <r>     5.0177     0.0000    32.0000 </r>
       <r>     5.0888     0.0000    32.0000 </r>
       <r>     5.1600     0.0000    32.0000 </r>
       <r>     5.2312     0.0000    32.0000 </r>
       <r>     5.3023     0.0000    32.0000 </r>
       <r>     5.3735     0.2022    32.0047 </r>
       <r>     5.4447     0.2544    32.0209 </r>
       <r>     5.5158     0.3197    32.0412 </r>
       <r>     5.5870     0.3983    32.0667 </r>
       <r>     5.6582     0.4901    32.0982 </r>
       <r>     5.7293     0.5950    32.1367 </r>
       <r>     5.8005     0.7093    32.1834 </r>
       <r>     5.8717     1.1199    32.2569 </r>
       <r>     5.9429     1.0090    32.3243 </r>
       <r>     6.0140     1.1727    32.4017 </r>
       <r>     6.0852     1.4080    32.4926 </r>
       <r>     6.1564     1.9941    32.6111 </r>
       <r>     6.2275     3.5706    32.7978 </r>
       <r>     6.2987     2.6713    33.0444 </r>
       <r>     6.3699     2.9050    33.2427 </r>
       <r>     6.4410     3.1629    33.4585 </r>
       <r>     6.5122     3.4877    33.6946 </r>
       <r>     6.5834     5.1162    34.0139 </r>
       <r>     6.6545     5.8809    34.3541 </r>
       <r>     6.7257    10.1466    35.0415 </r>
       <r>     6.7969     5.7577    35.7053 </r>
       <r>     6.8681     4.9360    36.0380 </r>
       <r>     6.9392     6.1556    36.4591 </r>
       <r>     7.0104     5.6182    36.8787 </r>
       <r>     7.0816     4.1009    37.2108 </r>
       <r>     7.1527     4.0820    37.5019 </r>
       <r>     7.2239     4.0859    37.7924 </r>
       <r>     7.2951     6.4691    38.2039 </r>
       <r>     7.3662     7.0672    38.6898 </r>
       <r>     7.4374     4.1375    39.1409 </r>
       <r>     7.5086     3.8701    39.4257 </r>
       <r>     7.5797     3.5565    39.6908 </r>
       <r>     7.6509     3.4877    39.9415 </r>
       <r>     7.7221     3.4183    40.1873 </r>
       <r>     7.7933     3.3483    40.4280 </r>
       <r>     7.8644     3.3919    40.6642 </r>
       <r>     7.9356     2.7788    40.8831 </r>
       <r>     8.0068     2.2859    41.0626 </r>
       <r>     8.0779     1.9396    41.2010 </r>
       <r>     8.1491     3.3109    41.3867 </r>
       <r>     8.2203     3.1960    41.6121 </r>
       <r>     8.2914     5.1529    41.8921 </r>
       <r>     8.3626     4.3643    42.1937 </r>
       <r>     8.4338    14.2701    42.6420 </r>
       <r>     8.5049     8.0233    43.2687 </r>
       <r>     8.5761     6.6225    43.7892 </r>
       <r>     8.6473     5.6030    44.2195 </r>
       <r>     8.7184     4.5472    44.5552 </r>
       <r>     8.7896     4.1726    44.8659 </r>
       <r>     8.8608     3.6056    45.1466 </r>
       <r>     8.9320     2.7441    45.3558 </r>
       <r>     9.0031     4.4762    45.6212 </r>
       <r>     9.0743     5.4478    45.9640 </r>
       <r>     9.1455     5.0264    46.3427 </r>
       <r>     9.2166     4.9352    46.6981 </r>
       <r>     9.2878     4.6916    47.0415 </r>
       <r>     9.3590     4.2955    47.3622 </r>
       <r>     9.4301     2.7317    47.6321 </r>
       <r>     9.5013     3.2651    47.8430 </r>
       <r>     9.5725     0.0000    48.0000 </r>
       <r>     9.6436     0.0000    48.0000 </r>
       <r>     9.7148     0.0000    48.0000 </r>
       <r>     9.7860     0.0000    48.0000 </r>
       <r>     9.8572     0.0000    48.0000 </r>
       <r>     9.9283     0.0000    48.0000 </r>
       <r>     9.9995     0.0000    48.0000 </r>
       <r>    10.0707     0.0000    48.0000 </r>
       <r>    10.1418     0.0000    48.0000 </r>
       <r>    10.2130     0.0000    48.0000 </r>
       <r>    10.2842     0.0000    48.0000 </r>
       <r>    10.3553     0.0000    48.0000 </r>
       <r>    10.4265     0.0000    48.0000 </r>
       <r>    10.4977     0.0000    48.0000 </r>
       <r>    10.5688     0.0000    48.0000 </r>
      </set>
     </set>
    </array>
   </total>
  </dos>
 </calculation>
 <structure name="finalpos" >
  <crystal>
   <varray name="basis" >
    <v>       5.35859940       0.00000000       0.00000000 </v>
    <v>       0.00000000       5.35859940       0.00000000 </v>
    <v>       0.00000000       0.00000000       5.35859940 </v>
   </varray>
   <i name="volume">    153.86997145 </i>
   <varray name="rec_basis" >
    <v>       0.18661593       0.00000000       0.00000000 </v>
    <v>       0.00000000       0.18661593       0.00000000 </v>
    <v>       0.00000000       0.00000000       0.18661593 </v>
   </varray>
  </crystal>
  <varray name="positions" >
   <v>       0.00000000       0.00000000       0.00000000 </v>
   <v>       0.50000000       0.50000000       0.00000000 </v>
   <v>       0.50000000       0.00000000       0.50000000 </v>
   <v>       0.00000000       0.50000000       0.50000000 </v>
   <v>       0.25000000       0.25000000       0.25000000 </v>
   <v>       0.75000000       0.25000000       0.75000000 </v>
   <v>       0.75000000       0.75000000       0.25000000 </v>
   <v>       0.25000000       0.75000000       0.75000000 </v>
  </varray>
 </structure>
</modeling>
