GaAs                                    
   4.50000000000000     
     1.259022    0.000000    0.000000
     0.000000    1.259022    0.000000
     0.000000    0.000000    1.259022
   As   Ga
     4     4
Direct
  0.000000  0.000000  0.000000
  0.500000  0.500000  0.000000
  0.500000  0.000000  0.500000
  0.000000  0.500000  0.500000
  0.250000  0.250000  0.250000
  0.750000  0.250000  0.750000
  0.750000  0.750000  0.250000
  0.250000  0.750000  0.750000
 
   64   64   64
 -66.199     -58.480     -36.908     -5.8077      28.911      61.260      86.533      102.10      107.51      104.09    
  94.280      81.008      67.175      54.889      44.459      35.768      28.667      22.967      18.447      14.883    
  12.071      9.8517      8.1014      6.7276      5.6565      4.8270      4.1887      3.7023      3.3390      3.0778    
  2.9030      2.8027      2.7701      2.8027      2.9030      3.0778      3.3390      3.7023      4.1887      4.8270    
  5.6565      6.7276      8.1014      9.8517      12.071      14.883      18.447      22.967      28.667      35.768    
  44.459      54.889      67.175      81.008      94.280      104.09      107.51      102.10      86.533      61.260    
  28.911     -5.8077     -36.908     -58.480     -58.480     -51.023     -30.196     -.20301      33.217      64.257    
  88.356      102.98      107.72      103.87      93.856      80.546      66.789      54.606      44.259      35.634    
  28.584      22.922      18.430      14.884      12.085      9.8732      8.1281      6.7577      5.6887      4.8605    
  4.2227      3.7363      3.3727      3.1112      2.9360      2.8355      2.8027      2.8355      2.9360      3.1112    
  3.3727      3.7363      4.2227      4.8605      5.6887      6.7577      8.1281      9.8732      12.085      14.884    
  18.430      22.922      28.584      35.634      44.259      54.606      66.789      80.546      93.856      103.87    
  107.72      102.98      88.356      64.257      33.217     -.20301     -30.196     -51.023     -36.908     -30.196    
 -11.480      15.382      45.135      72.479      93.276      105.26      108.11      103.10      92.533      79.150    
  65.646      53.769      43.668      35.239      28.340      22.791      18.380      14.889      12.126      9.9389    
  8.2098      6.8498      5.7874      4.9627      4.3265      3.8402      3.4760      3.2135      3.0372      2.9360    
  2.9030      2.9360      3.0372      3.2135      3.4760      3.8402      4.3265      4.9627      5.7874      6.8498    
  8.2098      9.9389      12.126      14.889      18.380      22.791      28.340      35.239      43.668      53.769    
  65.646      79.150      92.533      103.10      108.11      105.26      93.276      72.479      45.135      15.382    
 -11.480     -30.196     -5.8077     -.20301      15.382      37.609      61.947      83.854      99.815      107.95    
  108.08      101.45      90.185      76.814      63.789      52.409      42.708      34.596      27.945      22.581    
  18.302      14.901      12.200      10.053      8.3506      7.0085      5.9574      5.1391      4.5057      4.0200    
  3.6550      3.3911      3.2135      3.1112      3.0778      3.1112      3.2135      3.3911      3.6550      4.0200    
  4.5057      5.1391      5.9574      7.0085      8.3506      10.053      12.200      14.901      18.302      22.581    
  27.945      34.596      42.708      52.409      63.789      76.814      90.185      101.45      108.08      107.95    
  99.815      83.854      61.947      37.609      15.382     -.20301      28.911      33.217      45.135      61.947    
  79.986      95.599      106.00      109.77      106.89      98.549      86.688      73.575      61.290      50.575    
  41.413      33.732      27.415      22.302      18.203      14.927      12.310      10.221      8.5574      7.2415    
  6.2071      5.3985      4.7697      4.2854      3.9201      3.6550      3.4760      3.3727      3.3390      3.3727    
  3.4760      3.6550      3.9201      4.2854      4.7697      5.3985      6.2071      7.2415      8.5574      10.221    
  12.310      14.927      18.203      22.302      27.415      33.732      41.413      50.575      61.290      73.575    
  86.688      98.549      106.89      109.77      106.00      95.599      79.986      61.947      45.135      33.217    
  61.260      64.257      72.479      83.854      95.599      104.97      109.92      109.49      103.85      94.109    
  82.022      69.562      58.244      48.336      39.831      32.677      26.772      21.968      18.092      14.973    
  12.465      10.450      8.8392      7.5587      6.5473      5.7524      5.1309      4.6499      4.2854      4.0200    
  3.8402      3.7363      3.7023      3.7363      3.8402      4.0200      4.2854      4.6499      5.1309      5.7524    
  6.5473      7.5587      8.8392      10.450      12.465      14.973      18.092      21.968      26.772      32.677    
  39.831      48.336      58.244      69.562      82.022      94.109      103.85      109.49      109.92      104.97    
  95.599      83.854      72.479      64.257      86.533      88.356      93.276      99.815      106.00      109.92    
  110.21      106.32      98.595      88.091      76.347      64.986      54.765      45.771      38.019      31.471    
  26.041      21.595      17.980      15.048      12.672      10.751      9.2066      7.9723      6.9915      6.2158    
  5.6056      5.1309      4.7697      4.5057      4.3265      4.2227      4.1887      4.2227      4.3265      4.5057    
  4.7697      5.1309      5.6056      6.2158      6.9915      7.9723      9.2066      10.751      12.672      15.048    
  17.980      21.595      26.041      31.471      38.019      45.771      54.765      64.986      76.347      88.091    
  98.595      106.32      110.21      109.92      106.00      99.815      93.276      88.356      102.10      102.98    
  105.26      107.95      109.77      109.49      106.32      100.08      91.228      80.774      70.038      60.030    
  50.980      42.973      36.040      30.158      25.249      21.201      17.880      15.162      12.941      11.134    
  9.6726      8.4974      7.5573      6.8086      6.2158      5.7524      5.3985      5.1391      4.9627      4.8605    
  4.8270      4.8605      4.9627      5.1391      5.3985      5.7524      6.2158      6.8086      7.5573      8.4974    
  9.6726      11.134      12.941      15.162      17.880      21.201      25.249      30.158      36.040      42.973    
  50.980      60.030      70.038      80.774      91.228      100.08      106.32      109.49      109.77      107.95    
  105.26      102.98      107.51      107.72      108.11      108.08      106.89      103.85      98.595      91.228    
  82.306      72.752      63.497      54.871      47.021      40.039      33.965      28.783      24.428      20.804    
  17.804      15.325      13.285      11.614      10.254      9.1537      8.2678      7.5573      6.9915      6.5473    
  6.2071      5.9574      5.7874      5.6887      5.6565      5.6887      5.7874      5.9574      6.2071      6.5473    
  6.9915      7.5573      8.2678      9.1537      10.254      11.614      13.285      15.325      17.804      20.804    
  24.428      28.783      33.965      40.039      47.021      54.871      63.497      72.752      82.306      91.228    
  98.595      103.85      106.89      108.08      108.11      107.72      104.09      103.87      103.10      101.45    
  98.549      94.109      88.091      80.774      72.752      64.709      56.957      49.682      43.022      37.069    
  31.863      27.394      23.608      20.427      17.768      15.554      13.719      12.207      10.972      9.9674    
  9.1537      8.4974      7.9723      7.5587      7.2415      7.0085      6.8498      6.7577      6.7276      6.7577    
  6.8498      7.0085      7.2415      7.5587      7.9723      8.4974      9.1537      9.9674      10.972      12.207    
  13.719      15.554      17.768      20.427      23.608      27.394      31.863      37.069      43.022      49.682    
  56.957      64.709      72.752      80.774      88.091      94.109      98.549      101.45      103.10      103.87    
  94.280      93.856      92.533      90.185      86.688      82.022      76.347      70.038      63.497      56.957    
  50.610      44.618      39.106      34.155      29.801      26.036      22.819      20.092      17.793      15.866    
  14.263      12.940      11.856      10.972      10.254      9.6726      9.2066      8.8392      8.5574      8.3506    
  8.2098      8.1281      8.1014      8.1281      8.2098      8.3506      8.5574      8.8392      9.2066      9.6726    
  10.254      10.972      11.856      12.940      14.263      15.866      17.793      20.092      22.819      26.036    
  29.801      34.155      39.106      44.618      50.610      56.957      63.497      70.038      76.347      82.022    
  86.688      90.185      92.533      93.856      81.008      80.546      79.150      76.814      73.575      69.562    
  64.986      60.030      54.871      49.682      44.618      39.816      35.379      31.375      27.833      24.748    
  22.091      19.822      17.900      16.286      14.945      13.842      12.940      12.207      11.614      11.134    
  10.751      10.450      10.221      10.053      9.9389      9.8732      9.8517      9.8732      9.9389      10.053    
  10.221      10.450      10.751      11.134      11.614      12.207      12.940      13.842      14.945      16.286    
  17.900      19.822      22.091      24.748      27.833      31.375      35.379      39.816      44.618      49.682    
  54.871      60.030      64.986      69.562      73.575      76.814      79.150      80.546      67.175      66.789    
  65.646      63.789      61.290      58.244      54.765      50.980      47.021      43.022      39.106      35.379    
  31.923      28.791      26.004      23.563      21.450      19.642      18.114      16.841      15.794      14.945    
  14.263      13.719      13.285      12.941      12.672      12.465      12.310      12.200      12.126      12.085    
  12.071      12.085      12.126      12.200      12.310      12.465      12.672      12.941      13.285      13.719    
  14.263      14.945      15.794      16.841      18.114      19.642      21.450      23.563      26.004      28.791    
  31.923      35.379      39.106      43.022      47.021      50.980      54.765      58.244      61.290      63.789    
  65.646      66.789      54.889      54.606      53.769      52.409      50.575      48.336      45.771      42.973    
  40.039      37.069      34.155      31.375      28.791      26.441      24.345      22.506      20.921      19.577    
  18.462      17.557      16.841      16.286      15.866      15.554      15.325      15.162      15.048      14.973    
  14.927      14.901      14.889      14.884      14.883      14.884      14.889      14.901      14.927      14.973    
  15.048      15.162      15.325      15.554      15.866      16.286      16.841      17.557      18.462      19.577    
  20.921      22.506      24.345      26.441      28.791      31.375      34.155      37.069      40.039      42.973    
  45.771      48.336      50.575      52.409      53.769      54.606      44.459      44.259      43.668      42.708    
  41.413      39.831      38.019      36.040      33.965      31.863      29.801      27.833      26.004      24.345    
  22.873      21.598      20.524      19.650      18.967      18.462      18.114      17.900      17.793      17.768    
  17.804      17.880      17.980      18.092      18.203      18.302      18.380      18.430      18.447      18.430    
  18.380      18.302      18.203      18.092      17.980      17.880      17.804      17.768      17.793      17.900    
  18.114      18.462      18.967      19.650      20.524      21.598      22.873      24.345      26.004      27.833    
  29.801      31.863      33.965      36.040      38.019      39.831      41.413      42.708      43.668      44.259    
  35.768      35.634      35.239      34.596      33.732      32.677      31.471      30.158      28.783      27.394    
  26.036      24.748      23.563      22.506      21.598      20.852      20.279      19.880      19.650      19.577    
  19.642      19.822      20.092      20.427      20.804      21.201      21.595      21.968      22.302      22.581    
  22.791      22.922      22.967      22.922      22.791      22.581      22.302      21.968      21.595      21.201    
  20.804      20.427      20.092      19.822      19.642      19.577      19.650      19.880      20.279      20.852    
  21.598      22.506      23.563      24.748      26.036      27.394      28.783      30.158      31.471      32.677    
  33.732      34.596      35.239      35.634      28.667      28.584      28.340      27.945      27.415      26.772    
  26.041      25.249      24.428      23.608      22.819      22.091      21.450      20.921      20.524      20.279    
  20.195      20.279      20.524      20.921      21.450      22.091      22.819      23.608      24.428      25.249    
  26.041      26.772      27.415      27.945      28.340      28.584      28.667      28.584      28.340      27.945    
  27.415      26.772      26.041      25.249      24.428      23.608      22.819      22.091      21.450      20.921    
  20.524      20.279      20.195      20.279      20.524      20.921      21.450      22.091      22.819      23.608    
  24.428      25.249      26.041      26.772      27.415      27.945      28.340      28.584      22.967      22.922    
  22.791      22.581      22.302      21.968      21.595      21.201      20.804      20.427      20.092      19.822    
  19.642      19.577      19.650      19.880      20.279      20.852      21.598      22.506      23.563      24.748    
  26.036      27.394      28.783      30.158      31.471      32.677      33.732      34.596      35.239      35.634    
  35.768      35.634      35.239      34.596      33.732      32.677      31.471      30.158      28.783      27.394    
  26.036      24.748      23.563      22.506      21.598      20.852      20.279      19.880      19.650      19.577    
  19.642      19.822      20.092      20.427      20.804      21.201      21.595      21.968      22.302      22.581    
  22.791      22.922      18.447      18.430      18.380      18.302      18.203      18.092      17.980      17.880    
  17.804      17.768      17.793      17.900      18.114      18.462      18.967      19.650      20.524      21.598    
  22.873      24.345      26.004      27.833      29.801      31.863      33.965      36.040      38.019      39.831    
  41.413      42.708      43.668      44.259      44.459      44.259      43.668      42.708      41.413      39.831    
  38.019      36.040      33.965      31.863      29.801      27.833      26.004      24.345      22.873      21.598    
  20.524      19.650      18.967      18.462      18.114      17.900      17.793      17.768      17.804      17.880    
  17.980      18.092      18.203      18.302      18.380      18.430      14.883      14.884      14.889      14.901    
  14.927      14.973      15.048      15.162      15.325      15.554      15.866      16.286      16.841      17.557    
  18.462      19.577      20.921      22.506      24.345      26.441      28.791      31.375      34.155      37.069    
  40.039      42.973      45.771      48.336      50.575      52.409      53.769      54.606      54.889      54.606    
  53.769      52.409      50.575      48.336      45.771      42.973      40.039      37.069      34.155      31.375    
  28.791      26.441      24.345      22.506      20.921      19.577      18.462      17.557      16.841      16.286    
  15.866      15.554      15.325      15.162      15.048      14.973      14.927      14.901      14.889      14.884    
  12.071      12.085      12.126      12.200      12.310      12.465      12.672      12.941      13.285      13.719    
  14.263      14.945      15.794      16.841      18.114      19.642      21.450      23.563      26.004      28.791    
  31.923      35.379      39.106      43.022      47.021      50.980      54.765      58.244      61.290      63.789    
  65.646      66.789      67.175      66.789      65.646      63.789      61.290      58.244      54.765      50.980    
  47.021      43.022      39.106      35.379      31.923      28.791      26.004      23.563      21.450      19.642    
  18.114      16.841      15.794      14.945      14.263      13.719      13.285      12.941      12.672      12.465    
  12.310      12.200      12.126      12.085      9.8517      9.8732      9.9389      10.053      10.221      10.450    
  10.751      11.134      11.614      12.207      12.940      13.842      14.945      16.286      17.900      19.822    
  22.091      24.748      27.833      31.375      35.379      39.816      44.618      49.682      54.871      60.030    
  64.986      69.562      73.575      76.814      79.150      80.546      81.008      80.546      79.150      76.814    
  73.575      69.562      64.986      60.030      54.871      49.682      44.618      39.816      35.379      31.375    
  27.833      24.748      22.091      19.822      17.900      16.286      14.945      13.842      12.940      12.207    
  11.614      11.134      10.751      10.450      10.221      10.053      9.9389      9.8732      8.1014      8.1281    
  8.2098      8.3506      8.5574      8.8392      9.2066      9.6726      10.254      10.972      11.856      12.940    
  14.263      15.866      17.793      20.092      22.819      26.036      29.801      34.155      39.106      44.618    
  50.610      56.957      63.497      70.038      76.347      82.022      86.688      90.185      92.533      93.856    
  94.280      93.856      92.533      90.185      86.688      82.022      76.347      70.038      63.497      56.957    
  50.610      44.618      39.106      34.155      29.801      26.036      22.819      20.092      17.793      15.866    
  14.263      12.940      11.856      10.972      10.254      9.6726      9.2066      8.8392      8.5574      8.3506    
  8.2098      8.1281      6.7276      6.7577      6.8498      7.0085      7.2415      7.5587      7.9723      8.4974    
  9.1537      9.9674      10.972      12.207      13.719      15.554      17.768      20.427      23.608      27.394    
  31.863      37.069      43.022      49.682      56.957      64.709      72.752      80.774      88.091      94.109    
  98.549      101.45      103.10      103.87      104.09      103.87      103.10      101.45      98.549      94.109    
  88.091      80.774      72.752      64.709      56.957      49.682      43.022      37.069      31.863      27.394    
  23.608      20.427      17.768      15.554      13.719      12.207      10.972      9.9674      9.1537      8.4974    
  7.9723      7.5587      7.2415      7.0085      6.8498      6.7577      5.6565      5.6887      5.7874      5.9574    
  6.2071      6.5473      6.9915      7.5573      8.2678      9.1537      10.254      11.614      13.285      15.325    
  17.804      20.804      24.428      28.783      33.965      40.039      47.021      54.871      63.497      72.752    
  82.306      91.228      98.595      103.85      106.89      108.08      108.11      107.72      107.51      107.72    
  108.11      108.08      106.89      103.85      98.595      91.228      82.306      72.752      63.497      54.871    
  47.021      40.039      33.965      28.783      24.428      20.804      17.804      15.325      13.285      11.614    
  10.254      9.1537      8.2678      7.5573      6.9915      6.5473      6.2071      5.9574      5.7874      5.6887    
  4.8270      4.8605      4.9627      5.1391      5.3985      5.7524      6.2158      6.8086      7.5573      8.4974    
  9.6726      11.134      12.941      15.162      17.880      21.201      25.249      30.158      36.040      42.973    
  50.980      60.030      70.038      80.774      91.228      100.08      106.32      109.49      109.77      107.95    
  105.26      102.98      102.10      102.98      105.26      107.95      109.77      109.49      106.32      100.08    
  91.228      80.774      70.038      60.030      50.980      42.973      36.040      30.158      25.249      21.201    
  17.880      15.162      12.941      11.134      9.6726      8.4974      7.5573      6.8086      6.2158      5.7524    
  5.3985      5.1391      4.9627      4.8605      4.1887      4.2227      4.3265      4.5057      4.7697      5.1309    
  5.6056      6.2158      6.9915      7.9723      9.2066      10.751      12.672      15.048      17.980      21.595    
  26.041      31.471      38.019      45.771      54.765      64.986      76.347      88.091      98.595      106.32    
  110.21      109.92      106.00      99.815      93.276      88.356      86.533      88.356      93.276      99.815    
  106.00      109.92      110.21      106.32      98.595      88.091      76.347      64.986      54.765      45.771    
  38.019      31.471      26.041      21.595      17.980      15.048      12.672      10.751      9.2066      7.9723    
  6.9915      6.2158      5.6056      5.1309      4.7697      4.5057      4.3265      4.2227      3.7023      3.7363    
  3.8402      4.0200      4.2854      4.6499      5.1309      5.7524      6.5473      7.5587      8.8392      10.450    
  12.465      14.973      18.092      21.968      26.772      32.677      39.831      48.336      58.244      69.562    
  82.022      94.109      103.85      109.49      109.92      104.97      95.599      83.854      72.479      64.257    
  61.260      64.257      72.479      83.854      95.599      104.97      109.92      109.49      103.85      94.109    
  82.022      69.562      58.244      48.336      39.831      32.677      26.772      21.968      18.092      14.973    
  12.465      10.450      8.8392      7.5587      6.5473      5.7524      5.1309      4.6499      4.2854      4.0200    
  3.8402      3.7363      3.3390      3.3727      3.4760      3.6550      3.9201      4.2854      4.7697      5.3985    
  6.2071      7.2415      8.5574      10.221      12.310      14.927      18.203      22.302      27.415      33.732    
  41.413      50.575      61.290      73.575      86.688      98.549      106.89      109.77      106.00      95.599    
  79.986      61.947      45.135      33.217      28.911      33.217      45.135      61.947      79.986      95.599    
  106.00      109.77      106.89      98.549      86.688      73.575      61.290      50.575      41.413      33.732    
  27.415      22.302      18.203      14.927      12.310      10.221      8.5574      7.2415      6.2071      5.3985    
  4.7697      4.2854      3.9201      3.6550      3.4760      3.3727      3.0778      3.1112      3.2135      3.3911    
  3.6550      4.0200      4.5057      5.1391      5.9574      7.0085      8.3506      10.053      12.200      14.901    
  18.302      22.581      27.945      34.596      42.708      52.409      63.789      76.814      90.185      101.45    
  108.08      107.95      99.815      83.854      61.947      37.609      15.382     -.20301     -5.8077     -.20301    
  15.382      37.609      61.947      83.854      99.815      107.95      108.08      101.45      90.185      76.814    
  63.789      52.409      42.708      34.596      27.945      22.581      18.302      14.901      12.200      10.053    
  8.3506      7.0085      5.9574      5.1391      4.5057      4.0200      3.6550      3.3911      3.2135      3.1112    
  2.9030      2.9360      3.0372      3.2135      3.4760      3.8402      4.3265      4.9627      5.7874      6.8498    
  8.2098      9.9389      12.126      14.889      18.380      22.791      28.340      35.239      43.668      53.769    
  65.646      79.150      92.533      103.10      108.11      105.26      93.276      72.479      45.135      15.382    
 -11.480     -30.196     -36.908     -30.196     -11.480      15.382      45.135      72.479      93.276      105.26    
  108.11      103.10      92.533      79.150      65.646      53.769      43.668      35.239      28.340      22.791    
  18.380      14.889      12.126      9.9389      8.2098      6.8498      5.7874      4.9627      4.3265      3.8402    
  3.4760      3.2135      3.0372      2.9360      2.8027      2.8355      2.9360      3.1112      3.3727      3.7363    
  4.2227      4.8605      5.6887      6.7577      8.1281      9.8732      12.085      14.884      18.430      22.922    
  28.584      35.634      44.259      54.606      66.789      80.546      93.856      103.87      107.72      102.98    
  88.356      64.257      33.217     -.20301     -30.196     -51.023     -58.480     -51.023     -30.196     -.20301    
  33.217      64.257      88.356      102.98      107.72      103.87      93.856      80.546      66.789      54.606    
  44.259      35.634      28.584      22.922      18.430      14.884      12.085      9.8732      8.1281      6.7577    
  5.6887      4.8605      4.2227      3.7363      3.3727      3.1112      2.9360      2.8355      2.7701      2.8027    
  2.9030      3.0778      3.3390      3.7023      4.1887      4.8270      5.6565      6.7276      8.1014      9.8517    
  12.071      14.883      18.447      22.967      28.667      35.768      44.459      54.889      67.175      81.008    
  94.280      104.09      107.51      102.10      86.533      61.260      28.911     -5.8077     -36.908     -58.480    
 -66.199     -58.480     -36.908     -5.8077      28.911      61.260      86.533      102.10      107.51      104.09    
  94.280      81.008      67.175      54.889      44.459      35.768      28.667      22.967      18.447      14.883    
  12.071      9.8517      8.1014      6.7276      5.6565      4.8270      4.1887      3.7023      3.3390      3.0778    
  2.9030      2.8027      2.8027      2.8355      2.9360      3.1112      3.3727      3.7363      4.2227      4.8605    
  5.6887      6.7577      8.1281      9.8732      12.085      14.884      18.430      22.922      28.584      35.634    
  44.259      54.606      66.789      80.546      93.856      103.87      107.72      102.98      88.356      64.257    
  33.217     -.20301     -30.196     -51.023     -58.480     -51.023     -30.196     -.20301      33.217      64.257    
  88.356      102.98      107.72      103.87      93.856      80.546      66.789      54.606      44.259      35.634    
  28.584      22.922      18.430      14.884      12.085      9.8732      8.1281      6.7577      5.6887      4.8605    
  4.2227      3.7363      3.3727      3.1112      2.9360      2.8355      2.9030      2.9360      3.0372      3.2135    
  3.4760      3.8402      4.3265      4.9627      5.7874      6.8498      8.2098      9.9389      12.126      14.889    
  18.380      22.791      28.340      35.239      43.668      53.769      65.646      79.150      92.533      103.10    
  108.11      105.26      93.276      72.479      45.135      15.382     -11.480     -30.196     -36.908     -30.196    
 -11.480      15.382      45.135      72.479      93.276      105.26      108.11      103.10      92.533      79.150    
  65.646      53.769      43.668      35.239      28.340      22.791      18.380      14.889      12.126      9.9389    
  8.2098      6.8498      5.7874      4.9627      4.3265      3.8402      3.4760      3.2135      3.0372      2.9360    
  3.0778      3.1112      3.2135      3.3911      3.6550      4.0200      4.5057      5.1391      5.9574      7.0085    
  8.3506      10.053      12.200      14.901      18.302      22.581      27.945      34.596      42.708      52.409    
  63.789      76.814      90.185      101.45      108.08      107.95      99.815      83.854      61.947      37.609    
  15.382     -.20301     -5.8077     -.20301      15.382      37.609      61.947      83.854      99.815      107.95    
  108.08      101.45      90.185      76.814      63.789      52.409      42.708      34.596      27.945      22.581    
  18.302      14.901      12.200      10.053      8.3506      7.0085      5.9574      5.1391      4.5057      4.0200    
  3.6550      3.3911      3.2135      3.1112      3.3390      3.3727      3.4760      3.6550      3.9201      4.2854    
  4.7697      5.3985      6.2071      7.2415      8.5574      10.221      12.310      14.927      18.203      22.302    
  27.415      33.732      41.413      50.575      61.290      73.575      86.688      98.549      106.89      109.77    
  106.00      95.599      79.986      61.947      45.135      33.217      28.911      33.217      45.135      61.947    
  79.986      95.599      106.00      109.77      106.89      98.549      86.688      73.575      61.290      50.575    
  41.413      33.732      27.415      22.302      18.203      14.927      12.310      10.221      8.5574      7.2415    
  6.2071      5.3985      4.7697      4.2854      3.9201      3.6550      3.4760      3.3727      3.7023      3.7363    
  3.8402      4.0200      4.2854      4.6499      5.1309      5.7524      6.5473      7.5587      8.8392      10.450    
  12.465      14.973      18.092      21.968      26.772      32.677      39.831      48.336      58.244      69.562    
  82.022      94.109      103.85      109.49      109.92      104.97      95.599      83.854      72.479      64.257    
  61.260      64.257      72.479      83.854      95.599      104.97      109.92      109.49      103.85      94.109    
  82.022      69.562      58.244      48.336      39.831      32.677      26.772      21.968      18.092      14.973    
  12.465      10.450      8.8392      7.5587      6.5473      5.7524      5.1309      4.6499      4.2854      4.0200    