   8   8   0   0
  0.2273253E+02  0.5665600E-09  0.5665600E-09  0.5665600E-09  0.5000000E-15
  1.000000000000000E-004
  CAR 
 GaAs                                    
      8.85239308    -10.96278317  301      2.71381660      1.00000000
    -10.963  0.0000E+00  0.0000E+00
    -10.897  0.0000E+00  0.0000E+00
    -10.831  0.0000E+00  0.0000E+00
    -10.765  0.0000E+00  0.0000E+00
    -10.699  0.0000E+00  0.0000E+00
    -10.633  0.0000E+00  0.0000E+00
    -10.566  0.0000E+00  0.0000E+00
    -10.500  0.0000E+00  0.0000E+00
    -10.434  0.0000E+00  0.0000E+00
    -10.368  0.0000E+00  0.0000E+00
    -10.302  0.0000E+00  0.0000E+00
    -10.236  0.0000E+00  0.0000E+00
    -10.170  0.0000E+00  0.0000E+00
    -10.104  0.0000E+00  0.0000E+00
    -10.038  0.0000E+00  0.0000E+00
     -9.972  0.0000E+00  0.0000E+00
     -9.906  0.7192E-01  0.1362E-02
     -9.840  0.3364E+00  0.1378E-01
     -9.774  0.7126E+00  0.4891E-01
     -9.708  0.9135E+00  0.1037E+00
     -9.642  0.9543E+00  0.1656E+00
     -9.576  0.1045E+01  0.2312E+00
     -9.510  0.1207E+01  0.3054E+00
     -9.444  0.1387E+01  0.3910E+00
     -9.378  0.1858E+01  0.4924E+00
     -9.312  0.2634E+01  0.6421E+00
     -9.245  0.2759E+01  0.8293E+00
     -9.179  0.2302E+01  0.9959E+00
     -9.113  0.2166E+01  0.1141E+01
     -9.047  0.2138E+01  0.1283E+01
     -8.981  0.2078E+01  0.1422E+01
     -8.915  0.1987E+01  0.1557E+01
     -8.849  0.2195E+01  0.1728E+01
     -8.783  0.1158E+01  0.1831E+01
     -8.717  0.1695E+01  0.1914E+01
     -8.651  0.3138E+01  0.2070E+01
     -8.585  0.3442E+01  0.2288E+01
     -8.519  0.3806E+01  0.2523E+01
     -8.453  0.4048E+01  0.2775E+01
     -8.387  0.4423E+01  0.3055E+01
     -8.321  0.1135E+02  0.3669E+01
     -8.255  0.4597E+01  0.4076E+01
     -8.189  0.4190E+01  0.4341E+01
     -8.123  0.4582E+01  0.4631E+01
     -8.057  0.6648E+01  0.4988E+01
     -7.991  0.7881E+01  0.5466E+01
     -7.924  0.8666E+01  0.5990E+01
     -7.858  0.8239E+01  0.6575E+01
     -7.792  0.6064E+01  0.7020E+01
     -7.726  0.5486E+01  0.7402E+01
     -7.660  0.4708E+01  0.7747E+01
     -7.594  0.1124E+01  0.8000E+01
     -7.528  0.0000E+00  0.8000E+01
     -7.462  0.0000E+00  0.8000E+01
     -7.396  0.0000E+00  0.8000E+01
     -7.330  0.0000E+00  0.8000E+01
     -7.264  0.0000E+00  0.8000E+01
     -7.198  0.0000E+00  0.8000E+01
     -7.132  0.0000E+00  0.8000E+01
     -7.066  0.0000E+00  0.8000E+01
     -7.000  0.0000E+00  0.8000E+01
     -6.934  0.0000E+00  0.8000E+01
     -6.868  0.0000E+00  0.8000E+01
     -6.802  0.0000E+00  0.8000E+01
     -6.736  0.0000E+00  0.8000E+01
     -6.669  0.0000E+00  0.8000E+01
     -6.603  0.0000E+00  0.8000E+01
     -6.537  0.0000E+00  0.8000E+01
     -6.471  0.0000E+00  0.8000E+01
     -6.405  0.0000E+00  0.8000E+01
     -6.339  0.0000E+00  0.8000E+01
     -6.273  0.0000E+00  0.8000E+01
     -6.207  0.0000E+00  0.8000E+01
     -6.141  0.0000E+00  0.8000E+01
     -6.075  0.0000E+00  0.8000E+01
     -6.009  0.0000E+00  0.8000E+01
     -5.943  0.0000E+00  0.8000E+01
     -5.877  0.0000E+00  0.8000E+01
     -5.811  0.0000E+00  0.8000E+01
     -5.745  0.0000E+00  0.8000E+01
     -5.679  0.0000E+00  0.8000E+01
     -5.613  0.0000E+00  0.8000E+01
     -5.547  0.0000E+00  0.8000E+01
     -5.481  0.0000E+00  0.8000E+01
     -5.415  0.0000E+00  0.8000E+01
     -5.348  0.0000E+00  0.8000E+01
     -5.282  0.0000E+00  0.8000E+01
     -5.216  0.0000E+00  0.8000E+01
     -5.150  0.0000E+00  0.8000E+01
     -5.084  0.0000E+00  0.8000E+01
     -5.018  0.0000E+00  0.8000E+01
     -4.952  0.0000E+00  0.8000E+01
     -4.886  0.0000E+00  0.8000E+01
     -4.820  0.0000E+00  0.8000E+01
     -4.754  0.0000E+00  0.8000E+01
     -4.688  0.0000E+00  0.8000E+01
     -4.622  0.0000E+00  0.8000E+01
     -4.556  0.0000E+00  0.8000E+01
     -4.490  0.0000E+00  0.8000E+01
     -4.424  0.0000E+00  0.8000E+01
     -4.358  0.0000E+00  0.8000E+01
     -4.292  0.0000E+00  0.8000E+01
     -4.226  0.0000E+00  0.8000E+01
     -4.160  0.0000E+00  0.8000E+01
     -4.094  0.0000E+00  0.8000E+01
     -4.027  0.2826E+00  0.8003E+01
     -3.961  0.1720E+01  0.8074E+01
     -3.895  0.2427E+01  0.8203E+01
     -3.829  0.4826E+01  0.8437E+01
     -3.763  0.9615E+01  0.8899E+01
     -3.697  0.1513E+02  0.9673E+01
     -3.631  0.1229E+02  0.1051E+02
     -3.565  0.7524E+01  0.1111E+02
     -3.499  0.6061E+01  0.1154E+02
     -3.433  0.3592E+01  0.1185E+02
     -3.367  0.3753E+01  0.1209E+02
     -3.301  0.2933E+01  0.1231E+02
     -3.235  0.2862E+01  0.1250E+02
     -3.169  0.2797E+01  0.1269E+02
     -3.103  0.2737E+01  0.1287E+02
     -3.037  0.2682E+01  0.1305E+02
     -2.971  0.2633E+01  0.1322E+02
     -2.905  0.2076E+01  0.1337E+02
     -2.839  0.2028E+01  0.1350E+02
     -2.773  0.1972E+01  0.1363E+02
     -2.706  0.1886E+01  0.1376E+02
     -2.640  0.1804E+01  0.1388E+02
     -2.574  0.1696E+01  0.1400E+02
     -2.508  0.1577E+01  0.1411E+02
     -2.442  0.1447E+01  0.1421E+02
     -2.376  0.1360E+01  0.1430E+02
     -2.310  0.1180E+01  0.1438E+02
     -2.244  0.1022E+01  0.1446E+02
     -2.178  0.8877E+00  0.1452E+02
     -2.112  0.8930E+00  0.1458E+02
     -2.046  0.7519E+00  0.1463E+02
     -1.980  0.7629E+00  0.1468E+02
     -1.914  0.7723E+00  0.1473E+02
     -1.848  0.7802E+00  0.1478E+02
     -1.782  0.7866E+00  0.1483E+02
     -1.716  0.7943E+00  0.1489E+02
     -1.650  0.8109E+00  0.1494E+02
     -1.584  0.8321E+00  0.1499E+02
     -1.518  0.8578E+00  0.1505E+02
     -1.451  0.8881E+00  0.1511E+02
     -1.385  0.9231E+00  0.1517E+02
     -1.319  0.9626E+00  0.1523E+02
     -1.253  0.1007E+01  0.1529E+02
     -1.187  0.1055E+01  0.1536E+02
     -1.121  0.2256E+01  0.1544E+02
     -1.055  0.3111E+01  0.1564E+02
     -0.989  0.3293E+01  0.1585E+02
     -0.923  0.3510E+01  0.1607E+02
     -0.857  0.5336E+01  0.1631E+02
     -0.791  0.6960E+01  0.1672E+02
     -0.725  0.6331E+01  0.1716E+02
     -0.659  0.5805E+01  0.1756E+02
     -0.593  0.5011E+01  0.1792E+02
     -0.527  0.4961E+01  0.1825E+02
     -0.461  0.4517E+01  0.1857E+02
     -0.395  0.4507E+01  0.1886E+02
     -0.329  0.4515E+01  0.1916E+02
     -0.263  0.5073E+01  0.1947E+02
     -0.197  0.4892E+01  0.1983E+02
     -0.130  0.4474E+01  0.2012E+02
     -0.064  0.4549E+01  0.2042E+02
      0.002  0.5013E+01  0.2072E+02
      0.068  0.5603E+01  0.2107E+02
      0.134  0.7361E+01  0.2151E+02
      0.200  0.7491E+01  0.2202E+02
      0.266  0.7541E+01  0.2255E+02
      0.332  0.6913E+01  0.2303E+02
      0.398  0.6538E+01  0.2347E+02
      0.464  0.6185E+01  0.2389E+02
      0.530  0.5470E+01  0.2427E+02
      0.596  0.5002E+01  0.2462E+02
      0.662  0.4656E+01  0.2494E+02
      0.728  0.4951E+01  0.2525E+02
      0.794  0.5496E+01  0.2559E+02
      0.860  0.6512E+01  0.2601E+02
      0.926  0.5336E+01  0.2636E+02
      0.992  0.5683E+01  0.2672E+02
      1.058  0.7035E+01  0.2713E+02
      1.124  0.9345E+01  0.2764E+02
      1.191  0.5936E+01  0.2815E+02
      1.257  0.5189E+01  0.2852E+02
      1.323  0.4426E+01  0.2884E+02
      1.389  0.3467E+01  0.2913E+02
      1.455  0.2377E+01  0.2930E+02
      1.521  0.2269E+01  0.2945E+02
      1.587  0.3116E+01  0.2962E+02
      1.653  0.4873E+01  0.2989E+02
      1.719  0.5155E+01  0.3021E+02
      1.785  0.5762E+01  0.3057E+02
      1.851  0.5846E+01  0.3095E+02
      1.917  0.3671E+01  0.3127E+02
      1.983  0.1758E+01  0.3141E+02
      2.049  0.1532E+01  0.3152E+02
      2.115  0.1309E+01  0.3161E+02
      2.181  0.1090E+01  0.3169E+02
      2.247  0.9410E+00  0.3176E+02
      2.313  0.1049E+01  0.3183E+02
      2.379  0.9801E+00  0.3189E+02
      2.445  0.7333E+00  0.3195E+02
      2.512  0.3089E+00  0.3199E+02
      2.578  0.8879E-01  0.3200E+02
      2.644  0.1716E-01  0.3200E+02
      2.710  0.0000E+00  0.3200E+02
      2.776  0.0000E+00  0.3200E+02
      2.842  0.0000E+00  0.3200E+02
      2.908  0.0000E+00  0.3200E+02
      2.974  0.0000E+00  0.3200E+02
      3.040  0.0000E+00  0.3200E+02
      3.106  0.0000E+00  0.3200E+02
      3.172  0.0000E+00  0.3200E+02
      3.238  0.2106E-04  0.3200E+02
      3.304  0.9690E-03  0.3200E+02
      3.370  0.3326E-02  0.3200E+02
      3.436  0.7091E-02  0.3200E+02
      3.502  0.1226E-01  0.3200E+02
      3.568  0.1885E-01  0.3200E+02
      3.634  0.2684E-01  0.3200E+02
      3.700  0.3624E-01  0.3201E+02
      3.766  0.4705E-01  0.3201E+02
      3.833  0.4203E+00  0.3203E+02
      3.899  0.2152E+00  0.3204E+02
      3.965  0.2564E+00  0.3206E+02
      4.031  0.3016E+00  0.3208E+02
      4.097  0.3508E+00  0.3210E+02
      4.163  0.4202E+00  0.3213E+02
      4.229  0.5929E+00  0.3216E+02
      4.295  0.8693E+00  0.3221E+02
      4.361  0.1168E+01  0.3227E+02
      4.427  0.1383E+01  0.3236E+02
      4.493  0.1594E+01  0.3246E+02
      4.559  0.3000E+01  0.3263E+02
      4.625  0.2722E+01  0.3279E+02
      4.691  0.3629E+01  0.3299E+02
      4.757  0.5935E+01  0.3331E+02
      4.823  0.5830E+01  0.3368E+02
      4.889  0.6950E+01  0.3411E+02
      4.955  0.6910E+01  0.3458E+02
      5.021  0.6740E+01  0.3502E+02
      5.088  0.7372E+01  0.3548E+02
      5.154  0.9813E+01  0.3606E+02
      5.220  0.7098E+01  0.3659E+02
      5.286  0.6172E+01  0.3701E+02
      5.352  0.6142E+01  0.3742E+02
      5.418  0.7194E+01  0.3784E+02
      5.484  0.6498E+01  0.3831E+02
      5.550  0.6171E+01  0.3871E+02
      5.616  0.6354E+01  0.3921E+02
      5.682  0.3911E+01  0.3950E+02
      5.748  0.3713E+01  0.3975E+02
      5.814  0.3541E+01  0.3999E+02
      5.880  0.3394E+01  0.4022E+02
      5.946  0.3273E+01  0.4044E+02
      6.012  0.2894E+01  0.4065E+02
      6.078  0.1737E+01  0.4082E+02
      6.144  0.1893E+01  0.4094E+02
      6.210  0.2049E+01  0.4107E+02
      6.276  0.2203E+01  0.4122E+02
      6.342  0.2356E+01  0.4137E+02
      6.409  0.2508E+01  0.4153E+02
      6.475  0.2672E+01  0.4170E+02
      6.541  0.2937E+01  0.4188E+02
      6.607  0.5595E+01  0.4213E+02
      6.673  0.4808E+01  0.4246E+02
      6.739  0.5144E+01  0.4278E+02
      6.805  0.5846E+01  0.4314E+02
      6.871  0.7259E+01  0.4357E+02
      6.937  0.9055E+01  0.4408E+02
      7.003  0.6896E+01  0.4461E+02
      7.069  0.5109E+01  0.4500E+02
      7.135  0.4175E+01  0.4532E+02
      7.201  0.2730E+01  0.4550E+02
      7.267  0.3082E+01  0.4569E+02
      7.333  0.3497E+01  0.4591E+02
      7.399  0.5608E+01  0.4618E+02
      7.465  0.1140E+02  0.4668E+02
      7.531  0.6209E+01  0.4721E+02
      7.597  0.4039E+01  0.4751E+02
      7.663  0.2789E+01  0.4774E+02
      7.730  0.1675E+01  0.4788E+02
      7.796  0.9686E+00  0.4796E+02
      7.862  0.0000E+00  0.4800E+02
      7.928  0.0000E+00  0.4800E+02
      7.994  0.0000E+00  0.4800E+02
      8.060  0.0000E+00  0.4800E+02
      8.126  0.0000E+00  0.4800E+02
      8.192  0.0000E+00  0.4800E+02
      8.258  0.0000E+00  0.4800E+02
      8.324  0.0000E+00  0.4800E+02
      8.390  0.0000E+00  0.4800E+02
      8.456  0.0000E+00  0.4800E+02
      8.522  0.0000E+00  0.4800E+02
      8.588  0.0000E+00  0.4800E+02
      8.654  0.0000E+00  0.4800E+02
      8.720  0.0000E+00  0.4800E+02
      8.786  0.0000E+00  0.4800E+02
      8.852  0.0000E+00  0.4800E+02
