       N       E                     dE             d eps       ncg     rms          rms(c)
DAV:   1    -0.339971677703E+02   -0.33997E+02   -0.27550E+01   544   0.216E+01    0.107E+01
DAV:   2    -0.332748947401E+02    0.72227E+00   -0.14294E+00   496   0.555E+00    0.640E+00
DAV:   3    -0.330660933182E+02    0.20880E+00   -0.11921E+00   520   0.389E+00    0.676E-01
DAV:   4    -0.330431804890E+02    0.22913E-01   -0.11169E-01   504   0.145E+00    0.493E-01
DAV:   5    -0.330421508324E+02    0.10297E-02   -0.76759E-03   528   0.375E-01    0.103E-01
DAV:   6    -0.330422642525E+02   -0.11342E-03   -0.13449E-04   392   0.545E-02    0.379E-02
DAV:   7    -0.330423451563E+02   -0.80904E-04   -0.12181E-04   336   0.573E-02
   1 F= -.33042345E+02 E0= -.33042345E+02  d E =0.000000E+00
 imaginary and real dielectric function
