<?xml version="1.0" encoding="ISO-8859-1"?>
<modeling>
 <generator>
  <i name="program" type="string">vasp </i>
  <i name="version" type="string">6.4.3  </i>
  <i name="subversion" type="string">19Mar24 (build Aug 29 2024 15:27:20) complex                          parallel </i>
  <i name="platform" type="string">LinuxIFC </i>
  <i name="date" type="string">2025 03 19 </i>
  <i name="time" type="string">11:27:38 </i>
 </generator>
 <incar>
  <i type="string" name="SYSTEM">GaAs</i>
  <i type="string" name="PREC">Normal</i>
  <i type="int" name="IBRION">     2</i>
  <i name="ENCUT">    500.00000000</i>
  <i type="int" name="ISMEAR">    -5</i>
  <i name="SIGMA">      0.10000000</i>
  <i type="logical" name="LOPTICS"> T  </i>
 </incar>
 <primitive_cell>
  <structure name="primitive_cell" >
   <crystal>
    <varray name="basis" >
     <v>       2.83279991      -2.83279991       0.00000000 </v>
     <v>       2.83279991       0.00000000       2.83279991 </v>
     <v>       0.00000000      -2.83279991       2.83279991 </v>
    </varray>
    <i name="volume">     45.46505258 </i>
    <varray name="rec_basis" >
     <v>       0.17650382      -0.17650382      -0.17650382 </v>
     <v>       0.17650382       0.17650382       0.17650382 </v>
     <v>      -0.17650382      -0.17650382       0.17650382 </v>
    </varray>
   </crystal>
   <varray name="positions" >
    <v>       0.00000000       0.00000000       0.00000000 </v>
    <v>       0.75000000       0.75000000       0.75000000 </v>
   </varray>
  </structure>
  <varray name="primitive_index" >
   <v type="int" >        1 </v>
   <v type="int" >        5 </v>
  </varray>
 </primitive_cell>
 <kpoints>
  <generation param="Gamma">
   <v type="int" name="divisions">       5        5        5 </v>
   <v name="usershift">      0.00000000       0.00000000       0.00000000 </v>
   <v name="genvec1">      0.20000000       0.00000000       0.00000000 </v>
   <v name="genvec2">      0.00000000       0.20000000       0.00000000 </v>
   <v name="genvec3">      0.00000000       0.00000000       0.20000000 </v>
   <v name="shift">      0.00000000       0.00000000       0.00000000 </v>
  </generation>
  <varray name="kpointlist" >
   <v>       0.00000000       0.00000000       0.00000000 </v>
   <v>       0.20000000       0.00000000       0.00000000 </v>
   <v>       0.40000000       0.00000000       0.00000000 </v>
   <v>       0.20000000       0.20000000       0.00000000 </v>
   <v>       0.40000000       0.20000000       0.00000000 </v>
   <v>       0.40000000       0.40000000       0.00000000 </v>
   <v>       0.20000000       0.20000000       0.20000000 </v>
   <v>       0.40000000       0.20000000       0.20000000 </v>
   <v>       0.40000000       0.40000000       0.20000000 </v>
   <v>       0.40000000       0.40000000       0.40000000 </v>
  </varray>
  <varray name="weights" >
   <v>       0.00800000 </v>
   <v>       0.04800000 </v>
   <v>       0.04800000 </v>
   <v>       0.09600000 </v>
   <v>       0.19200000 </v>
   <v>       0.09600000 </v>
   <v>       0.06400000 </v>
   <v>       0.19200000 </v>
   <v>       0.19200000 </v>
   <v>       0.06400000 </v>
  </varray>
  <varray name="tetrahedronlist"  type="int" >
   <v type="int" >       12        7        8        8        9 </v>
   <v type="int" >       18        8        8        9        9 </v>
   <v type="int" >       24        8        9        9       10 </v>
   <v type="int" >       12        8        9        9        9 </v>
   <v type="int" >       24        9        9        9       10 </v>
   <v type="int" >       18        9        9       10       10 </v>
   <v type="int" >       24        4        5        7        8 </v>
   <v type="int" >       12        5        7        8        8 </v>
   <v type="int" >       24        5        8        8        9 </v>
   <v type="int" >       24        4        5        5        8 </v>
   <v type="int" >       24        5        5        6        8 </v>
   <v type="int" >       12        5        6        8        9 </v>
   <v type="int" >       12        9       10       10       10 </v>
   <v type="int" >       12        8        8        9       10 </v>
   <v type="int" >       12        8        9       10       10 </v>
   <v type="int" >       12        5        5        8        9 </v>
   <v type="int" >       12        5        8        9        9 </v>
   <v type="int" >       12        5        5        6        9 </v>
   <v type="int" >       12        5        6        6        9 </v>
   <v type="int" >       12        5        6        9        9 </v>
   <v type="int" >       12        5        6        8        8 </v>
   <v type="int" >       12        5        6        6        8 </v>
   <v type="int" >       12        6        8        8        9 </v>
   <v type="int" >       12        6        8        9        9 </v>
   <v type="int" >       12        6        6        8        9 </v>
   <v type="int" >       12        7        8        9       10 </v>
   <v type="int" >       12        4        5        8        9 </v>
   <v type="int" >       12        4        7        8        9 </v>
   <v type="int" >       12        4        5        6        9 </v>
   <v type="int" >       12        5        6        7        8 </v>
   <v type="int" >       12        4        5        6        7 </v>
   <v type="int" >       12        6        7        8        9 </v>
   <v type="int" >       12        2        4        7        8 </v>
   <v type="int" >       12        2        4        5        8 </v>
   <v type="int" >       12        2        3        5        8 </v>
   <v type="int" >       12        4        4        5        7 </v>
   <v type="int" >       12        2        4        4        5 </v>
   <v type="int" >       12        2        3        4        5 </v>
   <v type="int" >       12        3        4        5        5 </v>
   <v type="int" >       12        2        3        4        7 </v>
   <v type="int" >       12        3        4        5        7 </v>
   <v type="int" >       12        3        5        7        8 </v>
   <v type="int" >        6       10       10       10       10 </v>
   <v type="int" >       12        6        6        9        9 </v>
   <v type="int" >       12        6        9        9        9 </v>
   <v type="int" >       12        6        6        6        9 </v>
   <v type="int" >       12        3        5        8        8 </v>
   <v type="int" >       12        3        5        5        8 </v>
   <v type="int" >       12        3        3        5        8 </v>
   <v type="int" >       12        5        5        5        8 </v>
   <v type="int" >       12        3        5        5        5 </v>
   <v type="int" >        6        3        3        5        5 </v>
   <v type="int" >        6        5        5        8        8 </v>
   <v type="int" >       12        2        4        4        7 </v>
   <v type="int" >       12        2        2        4        4 </v>
   <v type="int" >       12        1        2        2        4 </v>
   <v type="int" >       12        1        2        4        7 </v>
  </varray>
  <i name="volumeweight">      0.00133333 </i>
 </kpoints>
 <parameters>
  <separator name="general" >
   <i type="string" name="SYSTEM">GaAs</i>
   <i type="logical" name="LCOMPAT"> F  </i>
  </separator>
  <separator name="electronic" >
   <i type="string" name="PREC">normal</i>
   <i name="ENMAX">    500.00000000</i>
   <i name="ENAUG">    462.75800000</i>
   <i name="EDIFF">      0.00010000</i>
   <i type="int" name="IALGO">    38</i>
   <i type="int" name="IWAVPR">    10</i>
   <i type="int" name="NBANDS">    24</i>
   <i type="int" name="NBANDSLOW">    -1</i>
   <i type="int" name="NBANDSHIGH">    -1</i>
   <i name="NELECT">     32.00000000</i>
   <i type="int" name="TURBO">     0</i>
   <i type="int" name="IRESTART">     0</i>
   <i type="int" name="NREBOOT">     0</i>
   <i type="int" name="NMIN">     0</i>
   <i name="EREF">      0.00000000</i>
   <separator name="electronic smearing" >
    <i type="int" name="ISMEAR">    -5</i>
    <i name="SIGMA">      0.10000000</i>
    <i name="KSPACING">      0.50000000</i>
    <i type="logical" name="KGAMMA"> T  </i>
    <i type="logical" name="KBLOWUP"> T  </i>
   </separator>
   <separator name="electronic projectors" >
    <i type="logical" name="LREAL"> F  </i>
    <v name="ROPT">      0.00000000      0.00000000</v>
    <i type="int" name="LMAXPAW">  -100</i>
    <i type="int" name="LMAXMIX">     2</i>
    <i type="logical" name="NLSPLINE"> F  </i>
   </separator>
   <separator name="electronic startup" >
    <i type="int" name="ISTART">     1</i>
    <i type="int" name="ICHARG">     0</i>
    <i type="int" name="INIWAV">     1</i>
   </separator>
   <separator name="electronic spin" >
    <i type="int" name="ISPIN">     1</i>
    <i type="logical" name="LNONCOLLINEAR"> F  </i>
    <v name="MAGMOM">      1.00000000      1.00000000      1.00000000      1.00000000      1.00000000      1.00000000      1.00000000      1.00000000</v>
    <i name="NUPDOWN">     -1.00000000</i>
    <i type="logical" name="LSORBIT"> F  </i>
    <v name="SAXIS">      0.00000000      0.00000000      1.00000000</v>
    <i type="logical" name="LSPIRAL"> F  </i>
    <v name="QSPIRAL">      0.00000000      0.00000000      0.00000000</v>
    <i type="logical" name="LZEROZ"> F  </i>
   </separator>
   <separator name="electronic exchange-correlation" >
    <i type="logical" name="LASPH"> F  </i>
   </separator>
   <separator name="electronic convergence" >
    <i type="int" name="NELM">    60</i>
    <i type="int" name="NELMDL">     0</i>
    <i type="int" name="NELMIN">     2</i>
    <i name="ENINI">    500.00000000</i>
    <separator name="electronic convergence detail" >
     <i type="logical" name="LDIAG"> T  </i>
     <i type="logical" name="LSUBROT"> F  </i>
     <i name="WEIMIN">      0.00000000</i>
     <i name="EBREAK">      0.00000104</i>
     <i name="DEPER">      0.30000000</i>
     <i type="int" name="NRMM">     4</i>
     <i name="TIME">      0.40000000</i>
    </separator>
   </separator>
   <separator name="electronic mixer" >
    <i name="AMIX">      0.40000000</i>
    <i name="BMIX">      1.00000000</i>
    <i name="AMIN">      0.10000000</i>
    <i name="AMIX_MAG">      1.60000000</i>
    <i name="BMIX_MAG">      1.00000000</i>
    <separator name="electronic mixer details" >
     <i type="int" name="IMIX">     4</i>
     <i type="logical" name="MIXFIRST"> F  </i>
     <i type="int" name="MAXMIX">   -45</i>
     <i name="WC">    100.00000000</i>
     <i type="int" name="INIMIX">     1</i>
     <i type="int" name="MIXPRE">     1</i>
     <i type="int" name="MREMOVE">     5</i>
    </separator>
   </separator>
   <separator name="electronic dipolcorrection" >
    <i type="logical" name="LDIPOL"> F  </i>
    <i type="logical" name="LMONO"> F  </i>
    <i type="int" name="IDIPOL">     0</i>
    <i name="EPSILON">      1.00000000</i>
    <v name="DIPOL">   -100.00000000   -100.00000000   -100.00000000</v>
    <i name="EFIELD">      0.00000000</i>
    <i type="logical" name="LVACPOTAV"> F  </i>
   </separator>
  </separator>
  <separator name="grids" >
   <i type="int" name="NGX">    32</i>
   <i type="int" name="NGY">    32</i>
   <i type="int" name="NGZ">    32</i>
   <i type="int" name="NGXF">    64</i>
   <i type="int" name="NGYF">    64</i>
   <i type="int" name="NGZF">    64</i>
   <i type="logical" name="ADDGRID"> F  </i>
  </separator>
  <separator name="ionic" >
   <i type="int" name="NSW">     0</i>
   <i type="int" name="IBRION">    -1</i>
   <i type="int" name="MDALGO">     0</i>
   <i type="int" name="ISIF">     2</i>
   <i name="PSTRESS">      0.00000000</i>
   <i name="EDIFFG">      0.00100000</i>
   <i type="int" name="NFREE">     1</i>
   <i name="POTIM">      0.50000000</i>
   <i name="SMASS">     -3.00000000</i>
   <i name="SCALEE">      1.00000000</i>
  </separator>
  <separator name="ionic md" >
   <i name="TEBEG">      0.00010000</i>
   <i name="TEEND">      0.00010000</i>
   <i type="int" name="NBLOCK">     1</i>
   <i type="int" name="KBLOCK">     1</i>
   <i type="int" name="NPACO">   256</i>
   <i name="APACO">     10.00000000</i>
  </separator>
  <separator name="symmetry" >
   <i type="int" name="ISYM">     2</i>
   <i name="SYMPREC">      0.00001000</i>
  </separator>
  <separator name="dos" >
   <i type="int" name="LORBIT">     0</i>
   <v name="RWIGS">     -1.00000000     -1.00000000</v>
   <i type="int" name="NEDOS">   301</i>
   <i name="EMIN">     10.00000000</i>
   <i name="EMAX">    -10.00000000</i>
   <i name="EFERMI">      0.00000000</i>
  </separator>
  <separator name="writing" >
   <i type="int" name="NWRITE">     2</i>
   <i type="logical" name="LWAVE"> T  </i>
   <i type="logical" name="LDOWNSAMPLE"> F  </i>
   <i type="logical" name="LCHARG"> T  </i>
   <i type="logical" name="LPARD"> F  </i>
   <i type="logical" name="LVTOT"> F  </i>
   <i type="logical" name="LVHAR"> F  </i>
   <i type="logical" name="LELF"> F  </i>
   <i type="logical" name="LOPTICS"> T  </i>
   <v name="STM">      0.00000000      0.00000000      0.00000000      0.00000000      0.00000000      0.00000000      0.00000000</v>
  </separator>
  <separator name="performance" >
   <i type="int" name="NPAR">     8</i>
   <i type="int" name="NSIM">     4</i>
   <i type="int" name="NBLK">    -1</i>
   <i type="logical" name="LPLANE"> T  </i>
   <i type="logical" name="LSCALAPACK"> T  </i>
   <i type="logical" name="LSCAAWARE"> F  </i>
   <i type="logical" name="LSCALU"> F  </i>
   <i type="logical" name="LASYNC"> F  </i>
   <i type="logical" name="LORBITALREAL"> F  </i>
  </separator>
  <separator name="miscellaneous" >
   <i type="int" name="IDIOT">     3</i>
   <i type="int" name="PHON_NSTRUCT">    -1</i>
   <i type="logical" name="LMUSIC"> F  </i>
   <v name="POMASS">     74.92200000     69.72300000</v>
   <v name="DARWINR">      0.00000000      0.00000000</v>
   <v name="DARWINV">      1.00000000      1.00000000</v>
   <i type="logical" name="LCORR"> T  </i>
  </separator>
  <i type="logical" name="GGA_COMPAT"> T  </i>
  <i type="logical" name="LBERRY"> F  </i>
  <i type="int" name="ICORELEVEL">     0</i>
  <i type="logical" name="LDAU"> F  </i>
  <i type="int" name="I_CONSTRAINED_M">     0</i>
  <separator name="electronic exchange-correlation" >
   <i type="string" name="GGA    ">PE</i>
   <i type="string" name="XC_C">1</i>
   <i type="int" name="VOSKOWN">     0</i>
   <i type="logical" name="LHFCALC"> F  </i>
   <i type="string" name="PRECFOCK"></i>
   <i type="logical" name="LSYMGRAD"> F  </i>
   <i type="logical" name="LHFONE"> F  </i>
   <i type="logical" name="LRHFCALC"> F  </i>
   <i type="logical" name="LTHOMAS"> F  </i>
   <i type="logical" name="LMODELHF"> F  </i>
   <i type="logical" name="LFOCKACE"> F  </i>
   <i name="ENCUT4O">     -1.00000000</i>
   <i type="int" name="EXXOEP">     0</i>
   <i type="int" name="FOURORBIT">     0</i>
   <i name="AEXX">      0.00000000</i>
   <i name="HFALPHA">      0.00000000</i>
   <i name="MCALPHA">      0.00000000</i>
   <i name="ALDAX">      1.00000000</i>
   <i name="AGGAX">      1.00000000</i>
   <i name="AMGGAX">      1.00000000</i>
   <i name="ALDAC">      1.00000000</i>
   <i name="AGGAC">      1.00000000</i>
   <i name="AMGGAC">      1.00000000</i>
   <i type="int" name="NKREDX">     1</i>
   <i type="int" name="NKREDY">     1</i>
   <i type="int" name="NKREDZ">     1</i>
   <i type="logical" name="SHIFTRED"> F  </i>
   <i type="logical" name="ODDONLY"> F  </i>
   <i type="logical" name="EVENONLY"> F  </i>
   <i type="int" name="LMAXFOCK">     0</i>
   <i type="int" name="NMAXFOCKAE">     0</i>
   <i type="logical" name="LFOCKAEDFT"> F  </i>
   <i name="HFSCREEN">      0.00000000</i>
   <i name="HFSCREENC">      0.00000000</i>
   <i type="int" name="NBANDSGWLOW">     0</i>
  </separator>
  <separator name="vdW DFT" >
   <i type="logical" name="LUSE_VDW"> F  </i>
   <i type="int" name="IVDW_NL">    -1</i>
   <i type="logical" name="LSPIN_VDW"> F  </i>
   <i name="ZAB_VDW">     -0.84910000</i>
   <i name="GAMMA_VDW">      1.39626340</i>
   <i name="ALPHA_VDW">      0.00000000</i>
   <i name="PARAM1">      0.12340000</i>
   <i name="PARAM2">      1.00000000</i>
   <i name="BPARAM">      6.30000000</i>
   <i name="CPARAM">      0.00930000</i>
  </separator>
  <separator name="model GW" >
   <i type="int" name="MODEL_GW">     0</i>
   <i name="MODEL_EPS0">     13.63951577</i>
   <i name="MODEL_ALPHA">      1.00000000</i>
  </separator>
  <separator name="linear response parameters" >
   <i type="logical" name="LEPSILON"> F  </i>
   <i type="logical" name="LRPA"> F  </i>
   <i type="logical" name="LNABLA"> F  </i>
   <i type="logical" name="LVEL"> F  </i>
   <i name="CSHIFT">      0.10000000</i>
   <i name="OMEGAMAX">     -1.00000000</i>
   <i name="DEG_THRESHOLD">      0.00200000</i>
   <i name="RTIME">     -0.10000000</i>
   <i name="WPLASMAI">      0.00000000</i>
   <v name="DFIELD">      0.00000000      0.00000000      0.00000000</v>
   <v name="WPLASMA">      0.00000000      0.00000000      0.00000000      0.00000000      0.00000000      0.00000000      0.00000000      0.00000000      0.00000000</v>
  </separator>
  <separator name="orbital magnetization" >
   <i type="logical" name="NUCIND"> F  </i>
   <v name="MAGPOS">      0.00000000      0.00000000      0.00000000</v>
   <i type="logical" name="LNICSALL"> T  </i>
   <i type="logical" name="ORBITALMAG"> F  </i>
   <i type="logical" name="LMAGBLOCH"> F  </i>
   <i type="logical" name="LCHIMAG"> F  </i>
   <i type="logical" name="LGAUGE"> T  </i>
   <i type="int" name="MAGATOM">     0</i>
   <v name="MAGDIPOL">      0.00000000      0.00000000      0.00000000</v>
   <v name="AVECCONST">      0.00000000      0.00000000      0.00000000</v>
  </separator>
  <separator name="response functions" >
   <i type="logical" name="LALL_IN_ONE"> F  </i>
   <i type="int" name="IALL_IN_ONE">    -1</i>
   <i type="int" name="NBANDS_WAVE">    -1</i>
   <i type="logical" name="LFINITE_TEMPERATURE"> F  </i>
   <i type="logical" name="LADDER"> F  </i>
   <i type="logical" name="LRPAFORCE"> F  </i>
   <i type="logical" name="LFXC"> F  </i>
   <i type="logical" name="LHARTREE"> T  </i>
   <i type="int" name="IBSE">     0</i>
   <v type="int" name="KPOINT">    -1     0     0     0</v>
   <i type="logical" name="LTCTC"> F  </i>
   <i type="logical" name="LTCTE"> F  </i>
   <i type="logical" name="LTETE"> F  </i>
   <i type="logical" name="LTRIPLET"> F  </i>
   <i type="logical" name="LFXCEPS"> F  </i>
   <i type="logical" name="LFXHEG"> F  </i>
   <i type="int" name="NATURALO">     2</i>
   <i type="logical" name="LHOLEGF"> F  </i>
   <i type="logical" name="L2ORDER"> F  </i>
   <i type="logical" name="LDMP1"> F  </i>
   <i type="logical" name="LMP2LT"> F  </i>
   <i type="logical" name="LSMP2LT"> F  </i>
   <i type="logical" name="LGWLF"> F  </i>
   <i name="ENCUTGW">     -1.60000002</i>
   <i name="ENCUTGWSOFT">     -1.60000002</i>
   <i name="ENCUTLF">     -1.00000000</i>
   <i type="logical" name="ESF_SPLINES"> F  </i>
   <i name="ESF_CONV">      0.01000000</i>
   <i type="int" name="ESF_NINTER">    15</i>
   <i type="int" name="LMAXMP2">    -1</i>
   <i name="SCISSOR">      0.00000000</i>
   <i type="int" name="NOMEGA">     0</i>
   <i type="int" name="NOMEGAR">     0</i>
   <i type="int" name="NBANDSGW">    -1</i>
   <i type="int" name="NBANDSO">    -1</i>
   <i type="int" name="NBANDSV">    -1</i>
   <i type="int" name="NELMGW">     1</i>
   <i type="int" name="NELMHF">     1</i>
   <i type="int" name="DIM">     3</i>
   <i type="int" name="IESPILON">     4</i>
   <i type="int" name="ANTIRES">     0</i>
   <i name="OMEGAMAX">    -30.00000000</i>
   <i name="OMEGAMIN">    -30.00000000</i>
   <i name="OMEGATL">   -200.00000000</i>
   <i type="int" name="OMEGAGRID">     0</i>
   <i name="CSHIFT">     -0.10000000</i>
   <i type="logical" name="LSELFENERGY"> F  </i>
   <i type="logical" name="LSPECTRAL"> F  </i>
   <i type="logical" name="LSPECTRALGW"> F  </i>
   <i type="logical" name="LSINGLES"> F  </i>
   <i type="logical" name="LFERMIGW"> F  </i>
   <i type="logical" name="ODDONLYGW"> F  </i>
   <i type="logical" name="EVENONLYGW"> F  </i>
   <i type="int" name="NKREDLFX">     1</i>
   <i type="int" name="NKREDLFY">     1</i>
   <i type="int" name="NKREDLFZ">     1</i>
   <i type="int" name="MAXMEM">  2800</i>
   <i type="int" name="TELESCOPE">     0</i>
   <i type="int" name="NTAUPAR">    -1</i>
   <i type="int" name="NOMEGAPAR">    -1</i>
   <i name="DAMP_NEWTON">      0.80000001</i>
   <i name="LAMBDA">      1.00000000</i>
  </separator>
  <separator name="External order field" >
   <i name="OFIELD_KAPPA">      0.00000000</i>
   <v name="OFIELD_K">      0.00000000      0.00000000      0.00000000</v>
   <i name="OFIELD_Q6_NEAR">      0.00000000</i>
   <i name="OFIELD_Q6_FAR">      0.00000000</i>
   <i name="OFIELD_A">      0.00000000</i>
  </separator>
  <separator name="optional k-points parameters" >
   <i type="int" name="KPOINTS_OPT_MODE">     1</i>
   <i type="logical" name="LKPOINTS_OPT"> F  </i>
  </separator>
 </parameters>
 <atominfo>
  <atoms>       8 </atoms>
  <types>       2 </types>
  <array name="atoms" >
   <dimension dim="1">ion</dimension>
   <field type="string">element</field>
   <field type="int">atomtype</field>
   <set>
    <rc><c>As</c><c>   1</c></rc>
    <rc><c>As</c><c>   1</c></rc>
    <rc><c>As</c><c>   1</c></rc>
    <rc><c>As</c><c>   1</c></rc>
    <rc><c>Ga</c><c>   2</c></rc>
    <rc><c>Ga</c><c>   2</c></rc>
    <rc><c>Ga</c><c>   2</c></rc>
    <rc><c>Ga</c><c>   2</c></rc>
   </set>
  </array>
  <array name="atomtypes" >
   <dimension dim="1">type</dimension>
   <field type="int">atomspertype</field>
   <field type="string">element</field>
   <field>mass</field>
   <field>valence</field>
   <field type="string">pseudopotential</field>
   <set>
    <rc><c>   4</c><c>As</c><c>     74.92200000</c><c>      5.00000000</c><c>  PAW_PBE As 22Sep2009                  </c></rc>
    <rc><c>   4</c><c>Ga</c><c>     69.72300000</c><c>      3.00000000</c><c>  PAW_PBE Ga 08Apr2002                  </c></rc>
   </set>
  </array>
 </atominfo>
 <structure name="initialpos" >
  <crystal>
   <varray name="basis" >
    <v>       5.66559983       0.00000000       0.00000000 </v>
    <v>       0.00000000       5.66559983       0.00000000 </v>
    <v>       0.00000000       0.00000000       5.66559983 </v>
   </varray>
   <i name="volume">    181.86021033 </i>
   <varray name="rec_basis" >
    <v>       0.17650382       0.00000000       0.00000000 </v>
    <v>       0.00000000       0.17650382       0.00000000 </v>
    <v>       0.00000000       0.00000000       0.17650382 </v>
   </varray>
  </crystal>
  <varray name="positions" >
   <v>       0.00000000       0.00000000       0.00000000 </v>
   <v>       0.50000000       0.50000000       0.00000000 </v>
   <v>       0.50000000       0.00000000       0.50000000 </v>
   <v>       0.00000000       0.50000000       0.50000000 </v>
   <v>       0.25000000       0.25000000       0.25000000 </v>
   <v>       0.75000000       0.25000000       0.75000000 </v>
   <v>       0.75000000       0.75000000       0.25000000 </v>
   <v>       0.25000000       0.75000000       0.75000000 </v>
  </varray>
 </structure>
 <calculation>
  <scstep>
   <time name="dav">    0.29    0.30</time>
   <time name="total">    0.32    0.34</time>
   <energy>
    <i name="alphaZ">     75.24379517 </i>
    <i name="ewald">   -914.69454418 </i>
    <i name="hartreedc">    -70.70971994 </i>
    <i name="XCdc">   -120.72352156 </i>
    <i name="pawpsdc">   3081.59973754 </i>
    <i name="pawaedc">  -2902.33301244 </i>
    <i name="eentropy">      0.00000000 </i>
    <i name="bandstr">    -98.59953277 </i>
    <i name="atom">    916.21963040 </i>
    <i name="e_fr_energy">    -33.99716777 </i>
    <i name="e_wo_entrp">    -33.99716777 </i>
    <i name="e_0_energy">    -33.99716777 </i>
   </energy>
  </scstep>
  <scstep>
   <time name="dav">    0.28    0.29</time>
   <time name="total">    0.31    0.32</time>
   <energy>
    <i name="e_fr_energy">    -33.27489474 </i>
    <i name="e_wo_entrp">    -33.27489474 </i>
    <i name="e_0_energy">    -33.27489474 </i>
   </energy>
  </scstep>
  <scstep>
   <time name="dav">    0.28    0.30</time>
   <time name="total">    0.32    0.33</time>
   <energy>
    <i name="e_fr_energy">    -33.06609332 </i>
    <i name="e_wo_entrp">    -33.06609332 </i>
    <i name="e_0_energy">    -33.06609332 </i>
   </energy>
  </scstep>
  <scstep>
   <time name="dav">    0.28    0.29</time>
   <time name="total">    0.31    0.33</time>
   <energy>
    <i name="e_fr_energy">    -33.04318049 </i>
    <i name="e_wo_entrp">    -33.04318049 </i>
    <i name="e_0_energy">    -33.04318049 </i>
   </energy>
  </scstep>
  <scstep>
   <time name="dav">    0.29    0.31</time>
   <time name="total">    0.33    0.34</time>
   <energy>
    <i name="e_fr_energy">    -33.04215083 </i>
    <i name="e_wo_entrp">    -33.04215083 </i>
    <i name="e_0_energy">    -33.04215083 </i>
   </energy>
  </scstep>
  <scstep>
   <time name="dav">    0.24    0.25</time>
   <time name="total">    0.27    0.29</time>
   <energy>
    <i name="e_fr_energy">    -33.04226425 </i>
    <i name="e_wo_entrp">    -33.04226425 </i>
    <i name="e_0_energy">    -33.04226425 </i>
   </energy>
  </scstep>
  <scstep>
   <time name="dav">    0.22    0.23</time>
   <time name="total">    0.24    0.25</time>
   <energy>
    <i name="alphaZ">     75.24379517 </i>
    <i name="ewald">   -914.69454418 </i>
    <i name="hartreedc">    -85.11454821 </i>
    <i name="XCdc">   -121.13052585 </i>
    <i name="pawpsdc">   1990.36519124 </i>
    <i name="pawaedc">  -1811.49466361 </i>
    <i name="eentropy">      0.00000000 </i>
    <i name="bandstr">    -82.43668012 </i>
    <i name="atom">    916.21963040 </i>
    <i name="e_fr_energy">    -33.04234516 </i>
    <i name="e_wo_entrp">    -33.04234516 </i>
    <i name="e_0_energy">    -33.04234516 </i>
   </energy>
  </scstep>
  <structure>
   <crystal>
    <varray name="basis" >
     <v>       5.66559983       0.00000000       0.00000000 </v>
     <v>       0.00000000       5.66559983       0.00000000 </v>
     <v>       0.00000000       0.00000000       5.66559983 </v>
    </varray>
    <i name="volume">    181.86021033 </i>
    <varray name="rec_basis" >
     <v>       0.17650382       0.00000000       0.00000000 </v>
     <v>       0.00000000       0.17650382       0.00000000 </v>
     <v>       0.00000000       0.00000000       0.17650382 </v>
    </varray>
   </crystal>
   <varray name="positions" >
    <v>       0.00000000       0.00000000       0.00000000 </v>
    <v>       0.50000000       0.50000000       0.00000000 </v>
    <v>       0.50000000       0.00000000       0.50000000 </v>
    <v>       0.00000000       0.50000000       0.50000000 </v>
    <v>       0.25000000       0.25000000       0.25000000 </v>
    <v>       0.75000000       0.25000000       0.75000000 </v>
    <v>       0.75000000       0.75000000       0.25000000 </v>
    <v>       0.25000000       0.75000000       0.75000000 </v>
   </varray>
  </structure>
  <varray name="forces" >
   <v>       0.00000000      -0.00000000       0.00000000 </v>
   <v>      -0.00000000       0.00000000       0.00000000 </v>
   <v>      -0.00000000      -0.00000000      -0.00000000 </v>
   <v>      -0.00000000       0.00000000       0.00000000 </v>
   <v>       0.00000000       0.00000000      -0.00000000 </v>
   <v>       0.00000000       0.00000000      -0.00000000 </v>
   <v>      -0.00000000      -0.00000000      -0.00000000 </v>
   <v>       0.00000000      -0.00000000       0.00000000 </v>
  </varray>
  <varray name="stress" >
   <v>      35.44822192       0.00000000       0.00000000 </v>
   <v>       0.00000000      35.44822192      -0.00000000 </v>
   <v>       0.00000000       0.00000000      35.44822192 </v>
  </varray>
  <energy>
   <i name="e_fr_energy">    -33.04234516 </i>
   <i name="e_wo_entrp">    -33.04234516 </i>
   <i name="e_0_energy">    -33.04234516 </i>
  </energy>
  <time name="totalsc">    2.81    2.95</time>
  <eigenvalues>
   <array>
    <dimension dim="1">band</dimension>
    <dimension dim="2">kpoint</dimension>
    <dimension dim="3">spin</dimension>
    <field>eigene</field>
    <field>occ</field>
    <set>
     <set comment="spin 1">
      <set comment="kpoint 1">
       <r>   -9.9628    1.0000 </r>
       <r>   -7.6265    1.0000 </r>
       <r>   -7.6265    1.0000 </r>
       <r>   -7.6265    1.0000 </r>
       <r>   -4.0597    1.0000 </r>
       <r>   -4.0597    1.0000 </r>
       <r>   -4.0597    1.0000 </r>
       <r>    0.0539    1.0000 </r>
       <r>    0.0539    1.0000 </r>
       <r>    0.0539    1.0000 </r>
       <r>    0.0539    1.0000 </r>
       <r>    0.0539    1.0000 </r>
       <r>    0.0539    1.0000 </r>
       <r>    2.6955    1.0000 </r>
       <r>    2.6955    1.0000 </r>
       <r>    2.6955    1.0000 </r>
       <r>    3.2267    0.0000 </r>
       <r>    4.1778    0.0000 </r>
       <r>    4.1778    0.0000 </r>
       <r>    4.1778    0.0000 </r>
       <r>    4.3771    0.0000 </r>
       <r>    4.3771    0.0000 </r>
       <r>    4.3771    0.0000 </r>
       <r>    6.4590    0.0000 </r>
      </set>
      <set comment="kpoint 2">
       <r>   -9.8197    1.0000 </r>
       <r>   -8.0216    1.0000 </r>
       <r>   -7.6119    1.0000 </r>
       <r>   -7.6119    1.0000 </r>
       <r>   -3.9972    1.0000 </r>
       <r>   -3.9972    1.0000 </r>
       <r>   -3.4690    1.0000 </r>
       <r>   -0.2815    1.0000 </r>
       <r>   -0.2815    1.0000 </r>
       <r>   -0.2070    1.0000 </r>
       <r>   -0.2070    1.0000 </r>
       <r>    0.2158    1.0000 </r>
       <r>    0.2158    1.0000 </r>
       <r>    1.1454    1.0000 </r>
       <r>    2.2454    1.0000 </r>
       <r>    2.2454    1.0000 </r>
       <r>    4.1445    0.0000 </r>
       <r>    4.7120    0.0000 </r>
       <r>    4.8230    0.0000 </r>
       <r>    4.9068    0.0000 </r>
       <r>    4.9068    0.0000 </r>
       <r>    5.1151    0.0000 </r>
       <r>    5.1151    0.0000 </r>
       <r>    5.9889    0.0000 </r>
      </set>
      <set comment="kpoint 3">
       <r>   -9.4019    1.0000 </r>
       <r>   -8.7557    1.0000 </r>
       <r>   -7.5878    1.0000 </r>
       <r>   -7.5878    1.0000 </r>
       <r>   -3.8838    1.0000 </r>
       <r>   -3.8838    1.0000 </r>
       <r>   -2.1575    1.0000 </r>
       <r>   -0.7428    1.0000 </r>
       <r>   -0.7428    1.0000 </r>
       <r>   -0.5686    1.0000 </r>
       <r>   -0.5489    1.0000 </r>
       <r>   -0.5489    1.0000 </r>
       <r>    0.6875    1.0000 </r>
       <r>    0.6875    1.0000 </r>
       <r>    1.4161    1.0000 </r>
       <r>    1.4161    1.0000 </r>
       <r>    4.4323    0.0000 </r>
       <r>    5.0357    0.0000 </r>
       <r>    5.6408    0.0000 </r>
       <r>    6.0049    0.0000 </r>
       <r>    6.6268    0.0000 </r>
       <r>    6.6268    0.0000 </r>
       <r>    6.7520    0.0000 </r>
       <r>    6.7520    0.0000 </r>
      </set>
      <set comment="kpoint 4">
       <r>   -9.6803    1.0000 </r>
       <r>   -7.9688    1.0000 </r>
       <r>   -7.9688    1.0000 </r>
       <r>   -7.6331    1.0000 </r>
       <r>   -3.9343    1.0000 </r>
       <r>   -3.5041    1.0000 </r>
       <r>   -3.5041    1.0000 </r>
       <r>   -0.9162    1.0000 </r>
       <r>   -0.2025    1.0000 </r>
       <r>   -0.2025    1.0000 </r>
       <r>    0.1081    1.0000 </r>
       <r>    0.1081    1.0000 </r>
       <r>    0.2064    1.0000 </r>
       <r>    0.3223    1.0000 </r>
       <r>    1.7657    1.0000 </r>
       <r>    2.5274    1.0000 </r>
       <r>    4.5362    0.0000 </r>
       <r>    4.7775    0.0000 </r>
       <r>    4.9320    0.0000 </r>
       <r>    4.9320    0.0000 </r>
       <r>    5.4598    0.0000 </r>
       <r>    5.4598    0.0000 </r>
       <r>    6.4659    0.0000 </r>
       <r>    6.6246    0.0000 </r>
      </set>
      <set comment="kpoint 5">
       <r>   -9.2753    1.0000 </r>
       <r>   -8.6558    1.0000 </r>
       <r>   -7.8406    1.0000 </r>
       <r>   -7.7097    1.0000 </r>
       <r>   -3.7827    1.0000 </r>
       <r>   -3.6172    1.0000 </r>
       <r>   -2.4166    1.0000 </r>
       <r>   -1.1621    1.0000 </r>
       <r>   -1.1320    1.0000 </r>
       <r>   -0.8571    1.0000 </r>
       <r>    0.0694    1.0000 </r>
       <r>    0.2089    1.0000 </r>
       <r>    0.2746    1.0000 </r>
       <r>    0.8336    1.0000 </r>
       <r>    0.9175    1.0000 </r>
       <r>    1.8089    1.0000 </r>
       <r>    5.2354    0.0000 </r>
       <r>    5.4984    0.0000 </r>
       <r>    5.5501    0.0000 </r>
       <r>    6.0626    0.0000 </r>
       <r>    6.0733    0.0000 </r>
       <r>    6.5914    0.0000 </r>
       <r>    6.9118    0.0000 </r>
       <r>    7.8524    0.0000 </r>
      </set>
      <set comment="kpoint 6">
       <r>   -8.9137    1.0000 </r>
       <r>   -8.3828    1.0000 </r>
       <r>   -8.3828    1.0000 </r>
       <r>   -8.0208    1.0000 </r>
       <r>   -3.4676    1.0000 </r>
       <r>   -2.9613    1.0000 </r>
       <r>   -2.9613    1.0000 </r>
       <r>   -2.0870    1.0000 </r>
       <r>   -1.1084    1.0000 </r>
       <r>   -0.5781    1.0000 </r>
       <r>   -0.5781    1.0000 </r>
       <r>    0.0729    1.0000 </r>
       <r>    1.0434    1.0000 </r>
       <r>    1.1060    1.0000 </r>
       <r>    1.1060    1.0000 </r>
       <r>    1.9269    1.0000 </r>
       <r>    5.1885    0.0000 </r>
       <r>    5.4448    0.0000 </r>
       <r>    5.9975    0.0000 </r>
       <r>    5.9975    0.0000 </r>
       <r>    7.1534    0.0000 </r>
       <r>    7.1534    0.0000 </r>
       <r>    7.6472    0.0000 </r>
       <r>    7.6746    0.0000 </r>
      </set>
      <set comment="kpoint 7">
       <r>   -9.5456    1.0000 </r>
       <r>   -7.9435    1.0000 </r>
       <r>   -7.9435    1.0000 </r>
       <r>   -7.9435    1.0000 </r>
       <r>   -3.5733    1.0000 </r>
       <r>   -3.5733    1.0000 </r>
       <r>   -3.5733    1.0000 </r>
       <r>   -0.5961    1.0000 </r>
       <r>   -0.5961    1.0000 </r>
       <r>   -0.5961    1.0000 </r>
       <r>   -0.5895    1.0000 </r>
       <r>    0.4702    1.0000 </r>
       <r>    0.4702    1.0000 </r>
       <r>    0.4702    1.0000 </r>
       <r>    2.2013    1.0000 </r>
       <r>    2.2013    1.0000 </r>
       <r>    4.2998    0.0000 </r>
       <r>    4.7067    0.0000 </r>
       <r>    4.7067    0.0000 </r>
       <r>    4.7067    0.0000 </r>
       <r>    6.6258    0.0000 </r>
       <r>    6.6258    0.0000 </r>
       <r>    6.6258    0.0000 </r>
       <r>    7.1491    0.0000 </r>
      </set>
      <set comment="kpoint 8">
       <r>   -9.1565    1.0000 </r>
       <r>   -8.5709    1.0000 </r>
       <r>   -7.9011    1.0000 </r>
       <r>   -7.9011    1.0000 </r>
       <r>   -3.6959    1.0000 </r>
       <r>   -3.6959    1.0000 </r>
       <r>   -2.7581    1.0000 </r>
       <r>   -1.7363    1.0000 </r>
       <r>   -0.7878    1.0000 </r>
       <r>   -0.7878    1.0000 </r>
       <r>    0.2891    1.0000 </r>
       <r>    0.5015    1.0000 </r>
       <r>    0.5015    1.0000 </r>
       <r>    0.8956    1.0000 </r>
       <r>    1.4796    1.0000 </r>
       <r>    1.5306    1.0000 </r>
       <r>    4.9074    0.0000 </r>
       <r>    5.0986    0.0000 </r>
       <r>    5.5953    0.0000 </r>
       <r>    5.5953    0.0000 </r>
       <r>    6.7003    0.0000 </r>
       <r>    6.8237    0.0000 </r>
       <r>    7.4900    0.0000 </r>
       <r>    7.4900    0.0000 </r>
      </set>
      <set comment="kpoint 9">
       <r>   -8.8220    1.0000 </r>
       <r>   -8.3491    1.0000 </r>
       <r>   -8.3491    1.0000 </r>
       <r>   -8.0868    1.0000 </r>
       <r>   -3.6814    1.0000 </r>
       <r>   -3.3334    1.0000 </r>
       <r>   -3.3334    1.0000 </r>
       <r>   -2.6438    1.0000 </r>
       <r>   -0.4735    1.0000 </r>
       <r>   -0.0028    1.0000 </r>
       <r>   -0.0028    1.0000 </r>
       <r>    0.8080    1.0000 </r>
       <r>    1.1328    1.0000 </r>
       <r>    1.1732    1.0000 </r>
       <r>    1.1732    1.0000 </r>
       <r>    1.8558    1.0000 </r>
       <r>    4.6900    0.0000 </r>
       <r>    5.1584    0.0000 </r>
       <r>    5.3948    0.0000 </r>
       <r>    5.3948    0.0000 </r>
       <r>    6.9286    0.0000 </r>
       <r>    6.9286    0.0000 </r>
       <r>    7.4523    0.0000 </r>
       <r>    7.4769    0.0000 </r>
      </set>
      <set comment="kpoint 10">
       <r>   -8.5806    1.0000 </r>
       <r>   -8.2918    1.0000 </r>
       <r>   -8.2918    1.0000 </r>
       <r>   -8.2918    1.0000 </r>
       <r>   -3.7747    1.0000 </r>
       <r>   -3.7747    1.0000 </r>
       <r>   -3.7747    1.0000 </r>
       <r>   -3.3944    1.0000 </r>
       <r>    0.7993    1.0000 </r>
       <r>    0.7993    1.0000 </r>
       <r>    0.7993    1.0000 </r>
       <r>    1.3670    1.0000 </r>
       <r>    1.3670    1.0000 </r>
       <r>    1.3670    1.0000 </r>
       <r>    1.6482    1.0000 </r>
       <r>    1.6482    1.0000 </r>
       <r>    3.7982    0.0000 </r>
       <r>    4.5281    0.0000 </r>
       <r>    4.5281    0.0000 </r>
       <r>    4.5281    0.0000 </r>
       <r>    7.0918    0.0000 </r>
       <r>    7.0918    0.0000 </r>
       <r>    7.0918    0.0000 </r>
       <r>    7.3924    0.0000 </r>
      </set>
     </set>
    </set>
   </array>
  </eigenvalues>
  <separator name="orbital magnetization" >
   <v name="MAGDIPOLOUT">      0.00000000      0.00000000      0.00000000</v>
  </separator>
  <dielectricfunction comment="density-density">
   <imag>
    <array>
     <dimension dim="1">gridpoints</dimension>
     <field>energy</field>
     <field>xx</field>
     <field>yy</field>
     <field>zz</field>
     <field>xy</field>
     <field>yz</field>
     <field>zx</field>
     <set>
      <r>     0.0000     0.0000     0.0000     0.0000     0.0000     0.0000     0.0000 </r>
      <r>     0.0214     0.0107     0.0107     0.0107     0.0000    -0.0000     0.0000 </r>
      <r>     0.0428     0.0215     0.0215     0.0215     0.0000    -0.0000     0.0000 </r>
      <r>     0.0642     0.0323     0.0323     0.0323     0.0000    -0.0000     0.0000 </r>
      <r>     0.0856     0.0432     0.0432     0.0432     0.0000    -0.0000     0.0000 </r>
      <r>     0.1070     0.0542     0.0542     0.0542     0.0000    -0.0000     0.0000 </r>
      <r>     0.1284     0.0653     0.0653     0.0653     0.0000    -0.0000     0.0000 </r>
      <r>     0.1498     0.0766     0.0766     0.0766     0.0000    -0.0000     0.0000 </r>
      <r>     0.1712     0.0880     0.0880     0.0880     0.0000    -0.0000     0.0000 </r>
      <r>     0.1926     0.0997     0.0997     0.0997     0.0000    -0.0000     0.0000 </r>
      <r>     0.2140     0.1117     0.1117     0.1117     0.0000    -0.0000     0.0000 </r>
      <r>     0.2354     0.1239     0.1239     0.1239     0.0000    -0.0000     0.0000 </r>
      <r>     0.2568     0.1365     0.1365     0.1365     0.0000    -0.0000     0.0000 </r>
      <r>     0.2782     0.1494     0.1494     0.1494     0.0000    -0.0000     0.0000 </r>
      <r>     0.2996     0.1628     0.1628     0.1628     0.0000    -0.0000     0.0000 </r>
      <r>     0.3210     0.1768     0.1768     0.1768     0.0000    -0.0000     0.0000 </r>
      <r>     0.3424     0.1913     0.1913     0.1913     0.0000    -0.0000     0.0000 </r>
      <r>     0.3638     0.2065     0.2065     0.2065     0.0000    -0.0000     0.0000 </r>
      <r>     0.3852     0.2224     0.2224     0.2224     0.0000    -0.0000     0.0000 </r>
      <r>     0.4066     0.2393     0.2393     0.2393     0.0000    -0.0000     0.0000 </r>
      <r>     0.4280     0.2572     0.2572     0.2572     0.0000    -0.0000     0.0000 </r>
      <r>     0.4494     0.2764     0.2764     0.2764     0.0000    -0.0000     0.0000 </r>
      <r>     0.4708     0.2971     0.2971     0.2971     0.0000    -0.0000     0.0000 </r>
      <r>     0.4922     0.3196     0.3196     0.3196     0.0000    -0.0000     0.0000 </r>
      <r>     0.5136     0.3442     0.3442     0.3442     0.0000    -0.0000     0.0000 </r>
      <r>     0.5350     0.3713     0.3713     0.3713     0.0000    -0.0000     0.0000 </r>
      <r>     0.5564     0.4015     0.4015     0.4015     0.0000    -0.0000     0.0000 </r>
      <r>     0.5778     0.4350     0.4350     0.4350     0.0000    -0.0000     0.0000 </r>
      <r>     0.5992     0.4723     0.4723     0.4723     0.0000    -0.0000     0.0000 </r>
      <r>     0.6206     0.5137     0.5137     0.5137     0.0000    -0.0000     0.0000 </r>
      <r>     0.6420     0.5595     0.5595     0.5595     0.0000    -0.0000     0.0000 </r>
      <r>     0.6634     0.6098     0.6098     0.6098     0.0000    -0.0000     0.0000 </r>
      <r>     0.6848     0.6650     0.6650     0.6650     0.0000    -0.0000     0.0000 </r>
      <r>     0.7062     0.7250     0.7250     0.7250     0.0000    -0.0000     0.0000 </r>
      <r>     0.7276     0.7901     0.7901     0.7901     0.0000    -0.0000     0.0000 </r>
      <r>     0.7490     0.8603     0.8603     0.8603     0.0000    -0.0000     0.0000 </r>
      <r>     0.7704     0.9356     0.9356     0.9356     0.0000     0.0000     0.0000 </r>
      <r>     0.7918     1.0162     1.0162     1.0162     0.0000     0.0000     0.0000 </r>
      <r>     0.8132     1.1021     1.1021     1.1021     0.0000     0.0000     0.0000 </r>
      <r>     0.8346     1.1933     1.1933     1.1933     0.0000     0.0000     0.0000 </r>
      <r>     0.8560     1.2899     1.2899     1.2899     0.0000     0.0000     0.0000 </r>
      <r>     0.8774     1.3919     1.3919     1.3919     0.0000     0.0000     0.0000 </r>
      <r>     0.8988     1.4993     1.4993     1.4993     0.0000     0.0000     0.0000 </r>
      <r>     0.9202     1.6122     1.6122     1.6122     0.0000     0.0000     0.0000 </r>
      <r>     0.9416     1.7305     1.7305     1.7305     0.0000     0.0000     0.0000 </r>
      <r>     0.9630     1.8542     1.8542     1.8542     0.0000     0.0000     0.0000 </r>
      <r>     0.9844     1.9834     1.9834     1.9834     0.0000    -0.0000     0.0000 </r>
      <r>     1.0058     2.1180     2.1180     2.1180     0.0000    -0.0000     0.0000 </r>
      <r>     1.0272     2.2582     2.2582     2.2582     0.0000    -0.0000     0.0000 </r>
      <r>     1.0486     2.4037     2.4037     2.4037     0.0000    -0.0000     0.0000 </r>
      <r>     1.0700     2.5547     2.5547     2.5547     0.0000    -0.0000     0.0000 </r>
      <r>     1.0914     2.7111     2.7111     2.7111     0.0000    -0.0000     0.0000 </r>
      <r>     1.1128     2.8729     2.8729     2.8729     0.0000    -0.0000     0.0000 </r>
      <r>     1.1342     3.0401     3.0401     3.0401     0.0000    -0.0000     0.0000 </r>
      <r>     1.1556     3.2127     3.2127     3.2127     0.0000    -0.0000     0.0000 </r>
      <r>     1.1770     3.3906     3.3906     3.3906     0.0000    -0.0000     0.0000 </r>
      <r>     1.1984     3.5738     3.5738     3.5738    -0.0000    -0.0000     0.0000 </r>
      <r>     1.2198     3.7623     3.7623     3.7623    -0.0000    -0.0000     0.0000 </r>
      <r>     1.2412     3.9560     3.9560     3.9560    -0.0000    -0.0000     0.0000 </r>
      <r>     1.2626     4.1548     4.1548     4.1548    -0.0000    -0.0000    -0.0000 </r>
      <r>     1.2840     4.3588     4.3588     4.3588    -0.0000    -0.0000     0.0000 </r>
      <r>     1.3054     4.5679     4.5679     4.5679    -0.0000    -0.0000     0.0000 </r>
      <r>     1.3268     4.7819     4.7819     4.7819    -0.0000    -0.0000     0.0000 </r>
      <r>     1.3482     5.0009     5.0009     5.0009    -0.0000    -0.0000    -0.0000 </r>
      <r>     1.3696     5.2247     5.2247     5.2247    -0.0000    -0.0000    -0.0000 </r>
      <r>     1.3910     5.4533     5.4533     5.4533    -0.0000    -0.0000    -0.0000 </r>
      <r>     1.4124     5.6865     5.6865     5.6865    -0.0000    -0.0000    -0.0000 </r>
      <r>     1.4338     5.9243     5.9243     5.9243    -0.0000    -0.0000    -0.0000 </r>
      <r>     1.4552     6.1665     6.1665     6.1665    -0.0000    -0.0000    -0.0000 </r>
      <r>     1.4766     6.4130     6.4130     6.4130    -0.0000    -0.0000    -0.0000 </r>
      <r>     1.4980     6.6636     6.6636     6.6636    -0.0000    -0.0000    -0.0000 </r>
      <r>     1.5194     6.9181     6.9181     6.9181    -0.0000    -0.0000    -0.0000 </r>
      <r>     1.5408     7.1762     7.1762     7.1762    -0.0000    -0.0000    -0.0000 </r>
      <r>     1.5622     7.4376     7.4376     7.4376    -0.0000    -0.0000    -0.0000 </r>
      <r>     1.5836     7.7017     7.7017     7.7017    -0.0000    -0.0000     0.0000 </r>
      <r>     1.6050     7.9680     7.9680     7.9680    -0.0000    -0.0000     0.0000 </r>
      <r>     1.6264     8.2358     8.2358     8.2358    -0.0000    -0.0000     0.0000 </r>
      <r>     1.6478     8.5041     8.5041     8.5041    -0.0000    -0.0000     0.0000 </r>
      <r>     1.6692     8.7717     8.7717     8.7717     0.0000    -0.0000     0.0000 </r>
      <r>     1.6906     9.0371     9.0371     9.0371     0.0000    -0.0000     0.0000 </r>
      <r>     1.7120     9.2983     9.2983     9.2983     0.0000    -0.0000     0.0000 </r>
      <r>     1.7334     9.5527     9.5527     9.5527     0.0000    -0.0000     0.0000 </r>
      <r>     1.7548     9.7972     9.7972     9.7972     0.0000    -0.0000     0.0000 </r>
      <r>     1.7762    10.0274    10.0274    10.0274     0.0000    -0.0000     0.0000 </r>
      <r>     1.7976    10.2377    10.2377    10.2377    -0.0000    -0.0000     0.0000 </r>
      <r>     1.8190    10.4209    10.4209    10.4209    -0.0000    -0.0000     0.0000 </r>
      <r>     1.8404    10.5684    10.5684    10.5684    -0.0000    -0.0000     0.0000 </r>
      <r>     1.8618    10.6709    10.6709    10.6709    -0.0000    -0.0000     0.0000 </r>
      <r>     1.8832    10.7207    10.7207    10.7207    -0.0000    -0.0000     0.0000 </r>
      <r>     1.9046    10.7153    10.7153    10.7153    -0.0000    -0.0000     0.0000 </r>
      <r>     1.9260    10.6607    10.6607    10.6607    -0.0000    -0.0000     0.0000 </r>
      <r>     1.9474    10.5712    10.5712    10.5712    -0.0000    -0.0000     0.0000 </r>
      <r>     1.9688    10.4657    10.4657    10.4657     0.0000    -0.0000     0.0000 </r>
      <r>     1.9902    10.3634    10.3634    10.3634     0.0000    -0.0000     0.0000 </r>
      <r>     2.0116    10.2841    10.2841    10.2841     0.0000    -0.0000     0.0000 </r>
      <r>     2.0330    10.2504    10.2504    10.2504     0.0000    -0.0000     0.0000 </r>
      <r>     2.0544    10.2885    10.2885    10.2885     0.0000    -0.0000     0.0000 </r>
      <r>     2.0758    10.4227    10.4227    10.4227     0.0000    -0.0000    -0.0000 </r>
      <r>     2.0972    10.6653    10.6653    10.6653     0.0000    -0.0000    -0.0000 </r>
      <r>     2.1186    11.0007    11.0007    11.0007     0.0000    -0.0000    -0.0000 </r>
      <r>     2.1400    11.3731    11.3731    11.3731     0.0000    -0.0000    -0.0000 </r>
      <r>     2.1614    11.7005    11.7005    11.7005     0.0000    -0.0000    -0.0000 </r>
      <r>     2.1828    11.9314    11.9314    11.9314     0.0000    -0.0000    -0.0000 </r>
      <r>     2.2042    12.0859    12.0859    12.0859     0.0000    -0.0000    -0.0000 </r>
      <r>     2.2256    12.2266    12.2266    12.2266     0.0000     0.0000    -0.0000 </r>
      <r>     2.2470    12.4028    12.4028    12.4028     0.0000     0.0000    -0.0000 </r>
      <r>     2.2684    12.6299    12.6299    12.6299     0.0000     0.0000    -0.0000 </r>
      <r>     2.2898    12.8948    12.8948    12.8948     0.0000     0.0000    -0.0000 </r>
      <r>     2.3112    13.1713    13.1713    13.1713     0.0000     0.0000    -0.0000 </r>
      <r>     2.3326    13.4317    13.4317    13.4317     0.0000     0.0000     0.0000 </r>
      <r>     2.3540    13.6544    13.6544    13.6544     0.0000     0.0000     0.0000 </r>
      <r>     2.3754    13.8270    13.8270    13.8270     0.0000     0.0000     0.0000 </r>
      <r>     2.3968    13.9470    13.9470    13.9470     0.0000     0.0000     0.0000 </r>
      <r>     2.4182    14.0212    14.0212    14.0212     0.0000     0.0000     0.0000 </r>
      <r>     2.4396    14.0644    14.0644    14.0644     0.0000     0.0000     0.0000 </r>
      <r>     2.4610    14.0960    14.0960    14.0960     0.0000     0.0000     0.0000 </r>
      <r>     2.4824    14.1347    14.1347    14.1347     0.0000     0.0000     0.0000 </r>
      <r>     2.5038    14.1941    14.1941    14.1941     0.0000     0.0000     0.0000 </r>
      <r>     2.5252    14.2801    14.2801    14.2801     0.0000     0.0000     0.0000 </r>
      <r>     2.5466    14.3924    14.3924    14.3924     0.0000     0.0000     0.0000 </r>
      <r>     2.5680    14.5271    14.5271    14.5271     0.0000     0.0000     0.0000 </r>
      <r>     2.5894    14.6798    14.6798    14.6798     0.0000     0.0000     0.0000 </r>
      <r>     2.6108    14.8460    14.8460    14.8460     0.0000     0.0000     0.0000 </r>
      <r>     2.6322    15.0222    15.0222    15.0222     0.0000     0.0000     0.0000 </r>
      <r>     2.6536    15.2057    15.2057    15.2057     0.0000     0.0000     0.0000 </r>
      <r>     2.6750    15.3943    15.3943    15.3943     0.0000     0.0000     0.0000 </r>
      <r>     2.6964    15.5865    15.5865    15.5865     0.0000     0.0000     0.0000 </r>
      <r>     2.7178    15.7809    15.7809    15.7809     0.0000     0.0000     0.0000 </r>
      <r>     2.7392    15.9763    15.9763    15.9763    -0.0000     0.0000     0.0000 </r>
      <r>     2.7605    16.1717    16.1717    16.1717    -0.0000     0.0000     0.0000 </r>
      <r>     2.7819    16.3662    16.3662    16.3662    -0.0000     0.0000     0.0000 </r>
      <r>     2.8033    16.5588    16.5588    16.5588    -0.0000     0.0000     0.0000 </r>
      <r>     2.8247    16.7486    16.7486    16.7486    -0.0000     0.0000     0.0000 </r>
      <r>     2.8461    16.9346    16.9346    16.9346    -0.0000     0.0000     0.0000 </r>
      <r>     2.8675    17.1160    17.1160    17.1160    -0.0000     0.0000     0.0000 </r>
      <r>     2.8889    17.2921    17.2921    17.2921    -0.0000     0.0000     0.0000 </r>
      <r>     2.9103    17.4628    17.4628    17.4628    -0.0000    -0.0000     0.0000 </r>
      <r>     2.9317    17.6283    17.6283    17.6283    -0.0000    -0.0000     0.0000 </r>
      <r>     2.9531    17.7901    17.7901    17.7901    -0.0000    -0.0000     0.0000 </r>
      <r>     2.9745    17.9505    17.9505    17.9505     0.0000    -0.0000     0.0000 </r>
      <r>     2.9959    18.1133    18.1133    18.1133     0.0000    -0.0000     0.0000 </r>
      <r>     3.0173    18.2836    18.2836    18.2836     0.0000    -0.0000     0.0000 </r>
      <r>     3.0387    18.4679    18.4679    18.4679     0.0000    -0.0000     0.0000 </r>
      <r>     3.0601    18.6735    18.6735    18.6735    -0.0000    -0.0000     0.0000 </r>
      <r>     3.0815    18.9065    18.9065    18.9065    -0.0000    -0.0000     0.0000 </r>
      <r>     3.1029    19.1673    19.1673    19.1673    -0.0000    -0.0000     0.0000 </r>
      <r>     3.1243    19.4410    19.4410    19.4410    -0.0000    -0.0000    -0.0000 </r>
      <r>     3.1457    19.6884    19.6884    19.6884    -0.0000    -0.0000    -0.0000 </r>
      <r>     3.1671    19.8549    19.8549    19.8549    -0.0000    -0.0000    -0.0000 </r>
      <r>     3.1885    19.9068    19.9068    19.9068    -0.0000    -0.0000    -0.0000 </r>
      <r>     3.2099    19.8592    19.8592    19.8592    -0.0000    -0.0000    -0.0000 </r>
      <r>     3.2313    19.7560    19.7560    19.7560    -0.0000    -0.0000    -0.0000 </r>
      <r>     3.2527    19.6355    19.6355    19.6355    -0.0000    -0.0000    -0.0000 </r>
      <r>     3.2741    19.5172    19.5172    19.5172     0.0000    -0.0000    -0.0000 </r>
      <r>     3.2955    19.4045    19.4045    19.4045     0.0000    -0.0000    -0.0000 </r>
      <r>     3.3169    19.2884    19.2884    19.2884     0.0000    -0.0000    -0.0000 </r>
      <r>     3.3383    19.1513    19.1513    19.1513     0.0000    -0.0000    -0.0000 </r>
      <r>     3.3597    18.9746    18.9746    18.9746     0.0000    -0.0000    -0.0000 </r>
      <r>     3.3811    18.7467    18.7467    18.7467     0.0000    -0.0000    -0.0000 </r>
      <r>     3.4025    18.4693    18.4693    18.4693     0.0000    -0.0000    -0.0000 </r>
      <r>     3.4239    18.1584    18.1584    18.1584     0.0000    -0.0000    -0.0000 </r>
      <r>     3.4453    17.8366    17.8366    17.8366     0.0000    -0.0000    -0.0000 </r>
      <r>     3.4667    17.5218    17.5218    17.5218     0.0000    -0.0000    -0.0000 </r>
      <r>     3.4881    17.2213    17.2213    17.2213     0.0000    -0.0000    -0.0000 </r>
      <r>     3.5095    16.9367    16.9367    16.9367     0.0000    -0.0000     0.0000 </r>
      <r>     3.5309    16.6723    16.6723    16.6723     0.0000    -0.0000     0.0000 </r>
      <r>     3.5523    16.4348    16.4348    16.4348     0.0000    -0.0000     0.0000 </r>
      <r>     3.5737    16.2257    16.2257    16.2257     0.0000    -0.0000     0.0000 </r>
      <r>     3.5951    16.0379    16.0379    16.0379     0.0000    -0.0000     0.0000 </r>
      <r>     3.6165    15.8610    15.8610    15.8610     0.0000    -0.0000     0.0000 </r>
      <r>     3.6379    15.6908    15.6908    15.6908    -0.0000    -0.0000     0.0000 </r>
      <r>     3.6593    15.5357    15.5357    15.5357     0.0000    -0.0000     0.0000 </r>
      <r>     3.6807    15.4167    15.4167    15.4167     0.0000    -0.0000     0.0000 </r>
      <r>     3.7021    15.3582    15.3582    15.3582     0.0000    -0.0000     0.0000 </r>
      <r>     3.7235    15.3745    15.3745    15.3745     0.0000    -0.0000     0.0000 </r>
      <r>     3.7449    15.4615    15.4615    15.4615     0.0000    -0.0000     0.0000 </r>
      <r>     3.7663    15.6025    15.6025    15.6025     0.0000    -0.0000     0.0000 </r>
      <r>     3.7877    15.7813    15.7813    15.7813     0.0000    -0.0000     0.0000 </r>
      <r>     3.8091    15.9882    15.9882    15.9882     0.0000    -0.0000     0.0000 </r>
      <r>     3.8305    16.2182    16.2182    16.2182     0.0000    -0.0000     0.0000 </r>
      <r>     3.8519    16.4684    16.4684    16.4684     0.0000    -0.0000     0.0000 </r>
      <r>     3.8733    16.7367    16.7367    16.7367     0.0000    -0.0000     0.0000 </r>
      <r>     3.8947    17.0217    17.0217    17.0217     0.0000    -0.0000     0.0000 </r>
      <r>     3.9161    17.3232    17.3232    17.3232     0.0000    -0.0000     0.0000 </r>
      <r>     3.9375    17.6420    17.6420    17.6420     0.0000    -0.0000     0.0000 </r>
      <r>     3.9589    17.9793    17.9793    17.9793     0.0000    -0.0000     0.0000 </r>
      <r>     3.9803    18.3355    18.3355    18.3355    -0.0000    -0.0000     0.0000 </r>
      <r>     4.0017    18.7086    18.7086    18.7086    -0.0000    -0.0000     0.0000 </r>
      <r>     4.0231    19.0930    19.0930    19.0930    -0.0000    -0.0000     0.0000 </r>
      <r>     4.0445    19.4811    19.4811    19.4811    -0.0000    -0.0000     0.0000 </r>
      <r>     4.0659    19.8652    19.8652    19.8652    -0.0000    -0.0000     0.0000 </r>
      <r>     4.0873    20.2394    20.2394    20.2394    -0.0000    -0.0000     0.0000 </r>
      <r>     4.1087    20.5989    20.5989    20.5989    -0.0000    -0.0000    -0.0000 </r>
      <r>     4.1301    20.9362    20.9362    20.9362    -0.0000    -0.0000    -0.0000 </r>
      <r>     4.1515    21.2398    21.2398    21.2398    -0.0000    -0.0000    -0.0000 </r>
      <r>     4.1729    21.4957    21.4957    21.4957    -0.0000    -0.0000    -0.0000 </r>
      <r>     4.1943    21.6914    21.6914    21.6914    -0.0000    -0.0000    -0.0000 </r>
      <r>     4.2157    21.8215    21.8215    21.8215    -0.0000    -0.0000    -0.0000 </r>
      <r>     4.2371    21.8900    21.8900    21.8900    -0.0000    -0.0000    -0.0000 </r>
      <r>     4.2585    21.9075    21.9075    21.9075    -0.0000    -0.0000    -0.0000 </r>
      <r>     4.2799    21.8828    21.8828    21.8828    -0.0000    -0.0000    -0.0000 </r>
      <r>     4.3013    21.8200    21.8200    21.8200    -0.0000    -0.0000    -0.0000 </r>
      <r>     4.3227    21.7200    21.7200    21.7200    -0.0000    -0.0000    -0.0000 </r>
      <r>     4.3441    21.5840    21.5840    21.5840    -0.0000    -0.0000    -0.0000 </r>
      <r>     4.3655    21.4155    21.4155    21.4155    -0.0000    -0.0000    -0.0000 </r>
      <r>     4.3869    21.2223    21.2223    21.2223    -0.0000    -0.0000    -0.0000 </r>
      <r>     4.4083    21.0153    21.0153    21.0153    -0.0000    -0.0000    -0.0000 </r>
      <r>     4.4297    20.8053    20.8053    20.8053    -0.0000    -0.0000    -0.0000 </r>
      <r>     4.4511    20.5984    20.5984    20.5984    -0.0000    -0.0000    -0.0000 </r>
      <r>     4.4725    20.3954    20.3954    20.3954    -0.0000    -0.0000    -0.0000 </r>
      <r>     4.4939    20.1931    20.1931    20.1931    -0.0000    -0.0000    -0.0000 </r>
      <r>     4.5153    19.9876    19.9876    19.9876    -0.0000    -0.0000    -0.0000 </r>
      <r>     4.5367    19.7751    19.7751    19.7751    -0.0000    -0.0000    -0.0000 </r>
      <r>     4.5581    19.5530    19.5530    19.5530    -0.0000    -0.0000    -0.0000 </r>
      <r>     4.5795    19.3198    19.3198    19.3198    -0.0000    -0.0000    -0.0000 </r>
      <r>     4.6009    19.0745    19.0745    19.0745    -0.0000    -0.0000    -0.0000 </r>
      <r>     4.6223    18.8159    18.8159    18.8159     0.0000     0.0000    -0.0000 </r>
      <r>     4.6437    18.5436    18.5436    18.5436     0.0000     0.0000    -0.0000 </r>
      <r>     4.6651    18.2575    18.2575    18.2575     0.0000     0.0000    -0.0000 </r>
      <r>     4.6865    17.9590    17.9590    17.9590     0.0000     0.0000    -0.0000 </r>
      <r>     4.7079    17.6496    17.6496    17.6496     0.0000    -0.0000    -0.0000 </r>
      <r>     4.7293    17.3306    17.3306    17.3306    -0.0000    -0.0000    -0.0000 </r>
      <r>     4.7507    17.0035    17.0035    17.0035    -0.0000    -0.0000    -0.0000 </r>
      <r>     4.7721    16.6696    16.6696    16.6696    -0.0000    -0.0000    -0.0000 </r>
      <r>     4.7935    16.3309    16.3309    16.3309    -0.0000    -0.0000    -0.0000 </r>
      <r>     4.8149    15.9896    15.9896    15.9896    -0.0000    -0.0000    -0.0000 </r>
      <r>     4.8363    15.6479    15.6479    15.6479    -0.0000    -0.0000    -0.0000 </r>
      <r>     4.8577    15.3075    15.3075    15.3075    -0.0000    -0.0000     0.0000 </r>
      <r>     4.8791    14.9710    14.9710    14.9710    -0.0000    -0.0000     0.0000 </r>
      <r>     4.9005    14.6425    14.6425    14.6425    -0.0000    -0.0000     0.0000 </r>
      <r>     4.9219    14.3275    14.3275    14.3275    -0.0000    -0.0000     0.0000 </r>
      <r>     4.9433    14.0297    14.0297    14.0297    -0.0000    -0.0000    -0.0000 </r>
      <r>     4.9647    13.7497    13.7497    13.7497    -0.0000    -0.0000    -0.0000 </r>
      <r>     4.9861    13.4847    13.4847    13.4847    -0.0000    -0.0000    -0.0000 </r>
      <r>     5.0075    13.2311    13.2311    13.2311    -0.0000    -0.0000    -0.0000 </r>
      <r>     5.0289    12.9877    12.9877    12.9877    -0.0000    -0.0000    -0.0000 </r>
      <r>     5.0503    12.7565    12.7565    12.7565    -0.0000    -0.0000    -0.0000 </r>
      <r>     5.0717    12.5389    12.5389    12.5389    -0.0000    -0.0000    -0.0000 </r>
      <r>     5.0931    12.3304    12.3304    12.3304    -0.0000    -0.0000    -0.0000 </r>
      <r>     5.1145    12.1194    12.1194    12.1194     0.0000    -0.0000    -0.0000 </r>
      <r>     5.1359    11.8885    11.8885    11.8885     0.0000    -0.0000    -0.0000 </r>
      <r>     5.1573    11.6187    11.6187    11.6187     0.0000    -0.0000    -0.0000 </r>
      <r>     5.1787    11.2972    11.2972    11.2972     0.0000    -0.0000    -0.0000 </r>
      <r>     5.2001    10.9267    10.9267    10.9267     0.0000    -0.0000    -0.0000 </r>
      <r>     5.2215    10.5270    10.5270    10.5270     0.0000    -0.0000    -0.0000 </r>
      <r>     5.2429    10.1259    10.1259    10.1259     0.0000    -0.0000    -0.0000 </r>
      <r>     5.2643     9.7479     9.7479     9.7479     0.0000    -0.0000    -0.0000 </r>
      <r>     5.2857     9.4086     9.4086     9.4086     0.0000    -0.0000    -0.0000 </r>
      <r>     5.3071     9.1155     9.1155     9.1155     0.0000    -0.0000    -0.0000 </r>
      <r>     5.3285     8.8700     8.8700     8.8700     0.0000    -0.0000    -0.0000 </r>
      <r>     5.3499     8.6707     8.6707     8.6707     0.0000    -0.0000    -0.0000 </r>
      <r>     5.3713     8.5152     8.5152     8.5152     0.0000    -0.0000    -0.0000 </r>
      <r>     5.3927     8.4022     8.4022     8.4022     0.0000    -0.0000    -0.0000 </r>
      <r>     5.4141     8.3304     8.3304     8.3304     0.0000    -0.0000    -0.0000 </r>
      <r>     5.4355     8.2984     8.2984     8.2984     0.0000    -0.0000    -0.0000 </r>
      <r>     5.4569     8.3043     8.3043     8.3043     0.0000    -0.0000    -0.0000 </r>
      <r>     5.4783     8.3453     8.3453     8.3453     0.0000    -0.0000    -0.0000 </r>
      <r>     5.4997     8.4196     8.4196     8.4196     0.0000    -0.0000    -0.0000 </r>
      <r>     5.5211     8.5266     8.5266     8.5266     0.0000     0.0000    -0.0000 </r>
      <r>     5.5425     8.6674     8.6674     8.6674     0.0000     0.0000    -0.0000 </r>
      <r>     5.5639     8.8434     8.8434     8.8434     0.0000     0.0000    -0.0000 </r>
      <r>     5.5853     9.0540     9.0540     9.0540     0.0000     0.0000    -0.0000 </r>
      <r>     5.6067     9.2918     9.2918     9.2918     0.0000     0.0000    -0.0000 </r>
      <r>     5.6281     9.5406     9.5406     9.5406     0.0000     0.0000    -0.0000 </r>
      <r>     5.6495     9.7787     9.7787     9.7787    -0.0000     0.0000    -0.0000 </r>
      <r>     5.6709     9.9861     9.9861     9.9861    -0.0000     0.0000    -0.0000 </r>
      <r>     5.6923    10.1450    10.1450    10.1450    -0.0000     0.0000    -0.0000 </r>
      <r>     5.7137    10.2316    10.2316    10.2316    -0.0000     0.0000    -0.0000 </r>
      <r>     5.7351    10.2154    10.2154    10.2154    -0.0000     0.0000    -0.0000 </r>
      <r>     5.7565    10.0745    10.0745    10.0745    -0.0000     0.0000    -0.0000 </r>
      <r>     5.7779     9.8155     9.8155     9.8155    -0.0000     0.0000    -0.0000 </r>
      <r>     5.7993     9.4707     9.4707     9.4707    -0.0000     0.0000    -0.0000 </r>
      <r>     5.8207     9.0780     9.0780     9.0780    -0.0000    -0.0000    -0.0000 </r>
      <r>     5.8421     8.6658     8.6658     8.6658    -0.0000    -0.0000    -0.0000 </r>
      <r>     5.8635     8.2505     8.2505     8.2505    -0.0000    -0.0000    -0.0000 </r>
      <r>     5.8849     7.8408     7.8408     7.8408    -0.0000    -0.0000    -0.0000 </r>
      <r>     5.9063     7.4417     7.4417     7.4417    -0.0000    -0.0000    -0.0000 </r>
      <r>     5.9277     7.0570     7.0570     7.0570    -0.0000    -0.0000    -0.0000 </r>
      <r>     5.9491     6.6893     6.6893     6.6893    -0.0000    -0.0000    -0.0000 </r>
      <r>     5.9705     6.3405     6.3405     6.3405    -0.0000    -0.0000    -0.0000 </r>
      <r>     5.9919     6.0117     6.0117     6.0117    -0.0000    -0.0000    -0.0000 </r>
      <r>     6.0133     5.7046     5.7046     5.7046    -0.0000    -0.0000    -0.0000 </r>
      <r>     6.0347     5.4217     5.4217     5.4217    -0.0000    -0.0000    -0.0000 </r>
      <r>     6.0561     5.1658     5.1658     5.1658    -0.0000    -0.0000    -0.0000 </r>
      <r>     6.0775     4.9393     4.9393     4.9393    -0.0000    -0.0000    -0.0000 </r>
      <r>     6.0989     4.7422     4.7422     4.7422    -0.0000    -0.0000    -0.0000 </r>
      <r>     6.1203     4.5725     4.5725     4.5725    -0.0000    -0.0000    -0.0000 </r>
      <r>     6.1417     4.4275     4.4275     4.4275    -0.0000    -0.0000    -0.0000 </r>
      <r>     6.1631     4.3050     4.3050     4.3050    -0.0000    -0.0000    -0.0000 </r>
      <r>     6.1845     4.2037     4.2037     4.2037    -0.0000    -0.0000    -0.0000 </r>
      <r>     6.2059     4.1225     4.1225     4.1225     0.0000    -0.0000    -0.0000 </r>
      <r>     6.2273     4.0606     4.0606     4.0606     0.0000    -0.0000    -0.0000 </r>
      <r>     6.2487     4.0167     4.0167     4.0167     0.0000     0.0000    -0.0000 </r>
      <r>     6.2701     3.9876     3.9876     3.9876     0.0000     0.0000    -0.0000 </r>
      <r>     6.2915     3.9674     3.9674     3.9674     0.0000     0.0000    -0.0000 </r>
      <r>     6.3129     3.9485     3.9485     3.9485     0.0000     0.0000    -0.0000 </r>
      <r>     6.3343     3.9265     3.9265     3.9265     0.0000     0.0000    -0.0000 </r>
      <r>     6.3557     3.9042     3.9042     3.9042     0.0000     0.0000    -0.0000 </r>
      <r>     6.3771     3.8884     3.8884     3.8884     0.0000     0.0000    -0.0000 </r>
      <r>     6.3985     3.8848     3.8848     3.8848     0.0000     0.0000    -0.0000 </r>
      <r>     6.4199     3.8967     3.8967     3.8967     0.0000     0.0000    -0.0000 </r>
      <r>     6.4413     3.9255     3.9255     3.9255     0.0000     0.0000    -0.0000 </r>
      <r>     6.4627     3.9710     3.9710     3.9710     0.0000     0.0000    -0.0000 </r>
      <r>     6.4841     4.0296     4.0296     4.0296     0.0000     0.0000    -0.0000 </r>
      <r>     6.5055     4.0931     4.0931     4.0931    -0.0000     0.0000    -0.0000 </r>
      <r>     6.5269     4.1492     4.1492     4.1492    -0.0000     0.0000    -0.0000 </r>
      <r>     6.5483     4.1889     4.1889     4.1889    -0.0000     0.0000    -0.0000 </r>
      <r>     6.5697     4.2119     4.2119     4.2119    -0.0000     0.0000    -0.0000 </r>
      <r>     6.5911     4.2246     4.2246     4.2246    -0.0000     0.0000    -0.0000 </r>
      <r>     6.6125     4.2331     4.2331     4.2331     0.0000     0.0000    -0.0000 </r>
      <r>     6.6339     4.2403     4.2403     4.2403     0.0000     0.0000    -0.0000 </r>
      <r>     6.6553     4.2456     4.2456     4.2456     0.0000     0.0000    -0.0000 </r>
      <r>     6.6767     4.2469     4.2469     4.2469     0.0000     0.0000    -0.0000 </r>
      <r>     6.6981     4.2413     4.2413     4.2413     0.0000     0.0000    -0.0000 </r>
      <r>     6.7195     4.2271     4.2271     4.2271     0.0000     0.0000    -0.0000 </r>
      <r>     6.7409     4.2034     4.2034     4.2034     0.0000     0.0000    -0.0000 </r>
      <r>     6.7623     4.1708     4.1708     4.1708     0.0000    -0.0000     0.0000 </r>
      <r>     6.7837     4.1302     4.1302     4.1302     0.0000    -0.0000     0.0000 </r>
      <r>     6.8051     4.0824     4.0824     4.0824     0.0000    -0.0000     0.0000 </r>
      <r>     6.8265     4.0278     4.0278     4.0278     0.0000    -0.0000     0.0000 </r>
      <r>     6.8479     3.9661     3.9661     3.9661     0.0000    -0.0000     0.0000 </r>
      <r>     6.8693     3.8969     3.8969     3.8969     0.0000    -0.0000     0.0000 </r>
      <r>     6.8907     3.8205     3.8205     3.8205     0.0000    -0.0000    -0.0000 </r>
      <r>     6.9121     3.7385     3.7385     3.7385     0.0000     0.0000    -0.0000 </r>
      <r>     6.9335     3.6537     3.6537     3.6537     0.0000     0.0000    -0.0000 </r>
      <r>     6.9549     3.5692     3.5692     3.5692     0.0000     0.0000    -0.0000 </r>
      <r>     6.9763     3.4878     3.4878     3.4878     0.0000     0.0000    -0.0000 </r>
      <r>     6.9977     3.4114     3.4114     3.4114     0.0000     0.0000    -0.0000 </r>
      <r>     7.0191     3.3404     3.3404     3.3404     0.0000     0.0000    -0.0000 </r>
      <r>     7.0405     3.2749     3.2749     3.2749     0.0000     0.0000    -0.0000 </r>
      <r>     7.0619     3.2143     3.2143     3.2143     0.0000     0.0000    -0.0000 </r>
      <r>     7.0833     3.1579     3.1579     3.1579     0.0000     0.0000    -0.0000 </r>
      <r>     7.1047     3.1053     3.1053     3.1053     0.0000     0.0000    -0.0000 </r>
      <r>     7.1261     3.0559     3.0559     3.0559     0.0000     0.0000    -0.0000 </r>
      <r>     7.1475     3.0095     3.0095     3.0095     0.0000     0.0000    -0.0000 </r>
      <r>     7.1689     2.9656     2.9656     2.9656     0.0000     0.0000    -0.0000 </r>
      <r>     7.1903     2.9234     2.9234     2.9234     0.0000     0.0000    -0.0000 </r>
      <r>     7.2117     2.8818     2.8818     2.8818     0.0000     0.0000    -0.0000 </r>
      <r>     7.2331     2.8393     2.8393     2.8393     0.0000     0.0000    -0.0000 </r>
      <r>     7.2545     2.7949     2.7949     2.7949     0.0000     0.0000    -0.0000 </r>
      <r>     7.2759     2.7476     2.7476     2.7476     0.0000     0.0000    -0.0000 </r>
      <r>     7.2973     2.6968     2.6968     2.6968     0.0000     0.0000    -0.0000 </r>
      <r>     7.3187     2.6426     2.6426     2.6426     0.0000     0.0000    -0.0000 </r>
      <r>     7.3401     2.5854     2.5854     2.5854     0.0000     0.0000    -0.0000 </r>
      <r>     7.3615     2.5263     2.5263     2.5263     0.0000     0.0000     0.0000 </r>
      <r>     7.3829     2.4660     2.4660     2.4660     0.0000     0.0000     0.0000 </r>
      <r>     7.4043     2.4048     2.4048     2.4048     0.0000     0.0000     0.0000 </r>
      <r>     7.4257     2.3428     2.3428     2.3428     0.0000     0.0000    -0.0000 </r>
      <r>     7.4471     2.2797     2.2797     2.2797     0.0000     0.0000    -0.0000 </r>
      <r>     7.4685     2.2155     2.2155     2.2155     0.0000     0.0000    -0.0000 </r>
      <r>     7.4899     2.1504     2.1504     2.1504     0.0000     0.0000    -0.0000 </r>
      <r>     7.5113     2.0842     2.0842     2.0842     0.0000     0.0000    -0.0000 </r>
      <r>     7.5327     2.0169     2.0169     2.0169     0.0000     0.0000    -0.0000 </r>
      <r>     7.5541     1.9487     1.9487     1.9487     0.0000     0.0000    -0.0000 </r>
      <r>     7.5755     1.8797     1.8797     1.8797     0.0000     0.0000    -0.0000 </r>
      <r>     7.5969     1.8105     1.8105     1.8105     0.0000     0.0000    -0.0000 </r>
      <r>     7.6183     1.7421     1.7421     1.7421     0.0000     0.0000    -0.0000 </r>
      <r>     7.6397     1.6754     1.6754     1.6754     0.0000     0.0000    -0.0000 </r>
      <r>     7.6611     1.6112     1.6112     1.6112     0.0000     0.0000    -0.0000 </r>
      <r>     7.6825     1.5499     1.5499     1.5499     0.0000     0.0000    -0.0000 </r>
      <r>     7.7039     1.4918     1.4918     1.4918     0.0000     0.0000    -0.0000 </r>
      <r>     7.7253     1.4372     1.4372     1.4372     0.0000     0.0000    -0.0000 </r>
      <r>     7.7467     1.3863     1.3863     1.3863     0.0000     0.0000    -0.0000 </r>
      <r>     7.7681     1.3398     1.3398     1.3398     0.0000     0.0000    -0.0000 </r>
      <r>     7.7895     1.2979     1.2979     1.2979     0.0000     0.0000     0.0000 </r>
      <r>     7.8109     1.2610     1.2610     1.2610     0.0000     0.0000     0.0000 </r>
      <r>     7.8323     1.2291     1.2291     1.2291     0.0000     0.0000     0.0000 </r>
      <r>     7.8537     1.2016     1.2016     1.2016     0.0000     0.0000     0.0000 </r>
      <r>     7.8751     1.1776     1.1776     1.1776     0.0000     0.0000    -0.0000 </r>
      <r>     7.8965     1.1560     1.1560     1.1560     0.0000     0.0000    -0.0000 </r>
      <r>     7.9179     1.1358     1.1358     1.1358     0.0000     0.0000    -0.0000 </r>
      <r>     7.9393     1.1165     1.1165     1.1165     0.0000     0.0000    -0.0000 </r>
      <r>     7.9607     1.0974     1.0974     1.0974    -0.0000     0.0000    -0.0000 </r>
      <r>     7.9821     1.0786     1.0786     1.0786    -0.0000     0.0000    -0.0000 </r>
      <r>     8.0035     1.0600     1.0600     1.0600    -0.0000     0.0000    -0.0000 </r>
      <r>     8.0249     1.0416     1.0416     1.0416    -0.0000     0.0000    -0.0000 </r>
      <r>     8.0463     1.0236     1.0236     1.0236    -0.0000     0.0000    -0.0000 </r>
      <r>     8.0677     1.0061     1.0061     1.0061    -0.0000     0.0000    -0.0000 </r>
      <r>     8.0891     0.9891     0.9891     0.9891    -0.0000     0.0000    -0.0000 </r>
      <r>     8.1105     0.9731     0.9731     0.9731    -0.0000     0.0000    -0.0000 </r>
      <r>     8.1319     0.9582     0.9582     0.9582    -0.0000     0.0000    -0.0000 </r>
      <r>     8.1533     0.9448     0.9448     0.9448    -0.0000     0.0000    -0.0000 </r>
      <r>     8.1747     0.9333     0.9333     0.9333    -0.0000     0.0000    -0.0000 </r>
      <r>     8.1961     0.9242     0.9242     0.9242    -0.0000     0.0000    -0.0000 </r>
      <r>     8.2175     0.9178     0.9178     0.9178    -0.0000     0.0000    -0.0000 </r>
      <r>     8.2389     0.9145     0.9145     0.9145    -0.0000     0.0000    -0.0000 </r>
      <r>     8.2603     0.9140     0.9140     0.9140    -0.0000     0.0000    -0.0000 </r>
      <r>     8.2816     0.9159     0.9159     0.9159    -0.0000     0.0000    -0.0000 </r>
      <r>     8.3030     0.9188     0.9188     0.9188    -0.0000     0.0000    -0.0000 </r>
      <r>     8.3244     0.9210     0.9210     0.9210    -0.0000     0.0000    -0.0000 </r>
      <r>     8.3458     0.9210     0.9210     0.9210    -0.0000     0.0000    -0.0000 </r>
      <r>     8.3672     0.9177     0.9177     0.9177    -0.0000     0.0000    -0.0000 </r>
      <r>     8.3886     0.9104     0.9104     0.9104    -0.0000     0.0000    -0.0000 </r>
      <r>     8.4100     0.8983     0.8983     0.8983    -0.0000     0.0000    -0.0000 </r>
      <r>     8.4314     0.8812     0.8812     0.8812    -0.0000     0.0000    -0.0000 </r>
      <r>     8.4528     0.8596     0.8596     0.8596    -0.0000     0.0000    -0.0000 </r>
      <r>     8.4742     0.8350     0.8350     0.8350    -0.0000     0.0000    -0.0000 </r>
      <r>     8.4956     0.8092     0.8092     0.8092    -0.0000     0.0000    -0.0000 </r>
      <r>     8.5170     0.7842     0.7842     0.7842    -0.0000     0.0000    -0.0000 </r>
      <r>     8.5384     0.7609     0.7609     0.7609    -0.0000     0.0000    -0.0000 </r>
      <r>     8.5598     0.7396     0.7396     0.7396    -0.0000     0.0000    -0.0000 </r>
      <r>     8.5812     0.7201     0.7201     0.7201    -0.0000     0.0000    -0.0000 </r>
      <r>     8.6026     0.7019     0.7019     0.7019    -0.0000    -0.0000    -0.0000 </r>
      <r>     8.6240     0.6845     0.6845     0.6845    -0.0000    -0.0000    -0.0000 </r>
      <r>     8.6454     0.6676     0.6676     0.6676    -0.0000    -0.0000    -0.0000 </r>
      <r>     8.6668     0.6511     0.6511     0.6511    -0.0000    -0.0000    -0.0000 </r>
      <r>     8.6882     0.6351     0.6351     0.6351    -0.0000    -0.0000    -0.0000 </r>
      <r>     8.7096     0.6197     0.6197     0.6197    -0.0000    -0.0000    -0.0000 </r>
      <r>     8.7310     0.6054     0.6054     0.6054    -0.0000    -0.0000    -0.0000 </r>
      <r>     8.7524     0.5924     0.5924     0.5924    -0.0000    -0.0000    -0.0000 </r>
      <r>     8.7738     0.5806     0.5806     0.5806    -0.0000    -0.0000    -0.0000 </r>
      <r>     8.7952     0.5699     0.5699     0.5699    -0.0000    -0.0000    -0.0000 </r>
      <r>     8.8166     0.5597     0.5597     0.5597    -0.0000    -0.0000    -0.0000 </r>
      <r>     8.8380     0.5493     0.5493     0.5493    -0.0000    -0.0000    -0.0000 </r>
      <r>     8.8594     0.5383     0.5383     0.5383    -0.0000    -0.0000    -0.0000 </r>
      <r>     8.8808     0.5264     0.5264     0.5264    -0.0000     0.0000    -0.0000 </r>
      <r>     8.9022     0.5135     0.5135     0.5135    -0.0000     0.0000    -0.0000 </r>
      <r>     8.9236     0.4999     0.4999     0.4999    -0.0000     0.0000    -0.0000 </r>
      <r>     8.9450     0.4859     0.4859     0.4859     0.0000     0.0000    -0.0000 </r>
      <r>     8.9664     0.4717     0.4717     0.4717     0.0000     0.0000    -0.0000 </r>
      <r>     8.9878     0.4580     0.4580     0.4580     0.0000     0.0000    -0.0000 </r>
      <r>     9.0092     0.4450     0.4450     0.4450     0.0000     0.0000    -0.0000 </r>
      <r>     9.0306     0.4329     0.4329     0.4329     0.0000     0.0000    -0.0000 </r>
      <r>     9.0520     0.4217     0.4217     0.4217     0.0000     0.0000    -0.0000 </r>
      <r>     9.0734     0.4113     0.4113     0.4113     0.0000     0.0000    -0.0000 </r>
      <r>     9.0948     0.4014     0.4014     0.4014     0.0000     0.0000    -0.0000 </r>
      <r>     9.1162     0.3920     0.3920     0.3920     0.0000     0.0000    -0.0000 </r>
      <r>     9.1376     0.3829     0.3829     0.3829     0.0000     0.0000    -0.0000 </r>
      <r>     9.1590     0.3740     0.3740     0.3740     0.0000     0.0000    -0.0000 </r>
      <r>     9.1804     0.3652     0.3652     0.3652     0.0000     0.0000    -0.0000 </r>
      <r>     9.2018     0.3565     0.3565     0.3565     0.0000     0.0000    -0.0000 </r>
      <r>     9.2232     0.3477     0.3477     0.3477     0.0000     0.0000    -0.0000 </r>
      <r>     9.2446     0.3391     0.3391     0.3391     0.0000     0.0000    -0.0000 </r>
      <r>     9.2660     0.3306     0.3306     0.3306     0.0000    -0.0000    -0.0000 </r>
      <r>     9.2874     0.3223     0.3223     0.3223    -0.0000    -0.0000    -0.0000 </r>
      <r>     9.3088     0.3142     0.3142     0.3142    -0.0000    -0.0000    -0.0000 </r>
      <r>     9.3302     0.3064     0.3064     0.3064    -0.0000    -0.0000    -0.0000 </r>
      <r>     9.3516     0.2988     0.2988     0.2988    -0.0000    -0.0000    -0.0000 </r>
      <r>     9.3730     0.2914     0.2914     0.2914    -0.0000     0.0000    -0.0000 </r>
      <r>     9.3944     0.2844     0.2844     0.2844    -0.0000     0.0000    -0.0000 </r>
      <r>     9.4158     0.2779     0.2779     0.2779    -0.0000     0.0000    -0.0000 </r>
      <r>     9.4372     0.2718     0.2718     0.2718    -0.0000     0.0000    -0.0000 </r>
      <r>     9.4586     0.2662     0.2662     0.2662    -0.0000     0.0000    -0.0000 </r>
      <r>     9.4800     0.2611     0.2611     0.2611    -0.0000     0.0000    -0.0000 </r>
      <r>     9.5014     0.2565     0.2565     0.2565    -0.0000     0.0000    -0.0000 </r>
      <r>     9.5228     0.2523     0.2523     0.2523    -0.0000     0.0000    -0.0000 </r>
      <r>     9.5442     0.2485     0.2485     0.2485    -0.0000     0.0000    -0.0000 </r>
      <r>     9.5656     0.2451     0.2451     0.2451    -0.0000     0.0000    -0.0000 </r>
      <r>     9.5870     0.2420     0.2420     0.2420    -0.0000     0.0000    -0.0000 </r>
      <r>     9.6084     0.2392     0.2392     0.2392    -0.0000     0.0000    -0.0000 </r>
      <r>     9.6298     0.2366     0.2366     0.2366    -0.0000     0.0000    -0.0000 </r>
      <r>     9.6512     0.2343     0.2343     0.2343    -0.0000     0.0000    -0.0000 </r>
      <r>     9.6726     0.2323     0.2323     0.2323    -0.0000     0.0000    -0.0000 </r>
      <r>     9.6940     0.2305     0.2305     0.2305    -0.0000     0.0000    -0.0000 </r>
      <r>     9.7154     0.2289     0.2289     0.2289    -0.0000     0.0000    -0.0000 </r>
      <r>     9.7368     0.2275     0.2275     0.2275     0.0000     0.0000    -0.0000 </r>
[...]
     <r>     7.3234     0.0686     0.0686     0.0686     0.0000     0.0000     0.0000 </r>
     <r>     7.3334     0.0692     0.0692     0.0692    -0.0000    -0.0000    -0.0000 </r>
     <r>     7.3434     0.0698     0.0698     0.0698    -0.0000     0.0000    -0.0000 </r>
     <r>     7.3535     0.0704     0.0704     0.0704    -0.0000    -0.0000    -0.0000 </r>
     <r>     7.3635     0.0711     0.0711     0.0711    -0.0000     0.0000     0.0000 </r>
     <r>     7.3735     0.0717     0.0717     0.0717    -0.0000     0.0000     0.0000 </r>
     <r>     7.3835     0.0724     0.0724     0.0724    -0.0000     0.0000    -0.0000 </r>
     <r>     7.3935     0.0759     0.0759     0.0759     0.0000     0.0000    -0.0000 </r>
     <r>     7.4035     0.0790     0.0790     0.0790     0.0000    -0.0000     0.0000 </r>
     <r>     7.4135     0.0834     0.0834     0.0834    -0.0000    -0.0000     0.0000 </r>
     <r>     7.4235     0.0882     0.0882     0.0882     0.0000     0.0000     0.0000 </r>
     <r>     7.4335     0.0936     0.0936     0.0936     0.0000    -0.0000     0.0000 </r>
     <r>     7.4435     0.0995     0.0995     0.0995     0.0000     0.0000    -0.0000 </r>
     <r>     7.4536     0.1336     0.1336     0.1336    -0.0000    -0.0000     0.0000 </r>
     <r>     7.4636     0.1531     0.1531     0.1531    -0.0000    -0.0000    -0.0000 </r>
     <r>     7.4736     0.1558     0.1558     0.1558    -0.0000     0.0000    -0.0000 </r>
     <r>     7.4836     0.2561     0.2561     0.2561     0.0000     0.0000    -0.0000 </r>
     <r>     7.4936     0.0987     0.0987     0.0987     0.0000     0.0000    -0.0000 </r>
     <r>     7.5036     0.0956     0.0956     0.0956     0.0000     0.0000     0.0000 </r>
     <r>     7.5136     0.0927     0.0927     0.0927    -0.0000    -0.0000    -0.0000 </r>
     <r>     7.5236     0.0898     0.0898     0.0898    -0.0000    -0.0000     0.0000 </r>
     <r>     7.5336     0.0869     0.0869     0.0869     0.0000     0.0000     0.0000 </r>
     <r>     7.5436     0.0841     0.0841     0.0841     0.0000     0.0000    -0.0000 </r>
     <r>     7.5537     0.0814     0.0814     0.0814    -0.0000     0.0000    -0.0000 </r>
     <r>     7.5637     0.0788     0.0788     0.0788     0.0000    -0.0000    -0.0000 </r>
     <r>     7.5737     0.0762     0.0762     0.0762    -0.0000     0.0000    -0.0000 </r>
     <r>     7.5837     0.0737     0.0737     0.0737     0.0000    -0.0000     0.0000 </r>
     <r>     7.5937     0.0712     0.0712     0.0712     0.0000     0.0000    -0.0000 </r>
     <r>     7.6037     0.0688     0.0688     0.0688     0.0000    -0.0000     0.0000 </r>
     <r>     7.6137     0.0665     0.0665     0.0665    -0.0000    -0.0000     0.0000 </r>
     <r>     7.6237     0.0642     0.0642     0.0642    -0.0000     0.0000    -0.0000 </r>
     <r>     7.6337     0.0620     0.0620     0.0620     0.0000    -0.0000     0.0000 </r>
     <r>     7.6437     0.0599     0.0599     0.0599    -0.0000     0.0000    -0.0000 </r>
     <r>     7.6538     0.0534     0.0534     0.0534    -0.0000     0.0000     0.0000 </r>
     <r>     7.6638     0.0528     0.0528     0.0528     0.0000     0.0000     0.0000 </r>
     <r>     7.6738     0.0522     0.0522     0.0522     0.0000     0.0000    -0.0000 </r>
     <r>     7.6838     0.0462     0.0462     0.0462    -0.0000    -0.0000    -0.0000 </r>
     <r>     7.6938     0.0443     0.0443     0.0443    -0.0000     0.0000    -0.0000 </r>
     <r>     7.7038     0.0424     0.0424     0.0424    -0.0000     0.0000    -0.0000 </r>
     <r>     7.7138     0.0405     0.0405     0.0405    -0.0000     0.0000    -0.0000 </r>
    </set>
   </array>
  </conductivity>
  <dos>
   <i name="efermi">      2.71381660 </i>
   <total>
    <array>
     <dimension dim="1">gridpoints</dimension>
     <dimension dim="2">spin</dimension>
     <field>energy</field>
     <field>total</field>
     <field>integrated</field>
     <set>
      <set comment="spin 1">
       <r>   -10.9628     0.0000     0.0000 </r>
       <r>   -10.8967     0.0000     0.0000 </r>
       <r>   -10.8307     0.0000     0.0000 </r>
       <r>   -10.7646     0.0000     0.0000 </r>
       <r>   -10.6986     0.0000     0.0000 </r>
       <r>   -10.6325     0.0000     0.0000 </r>
       <r>   -10.5665     0.0000     0.0000 </r>
       <r>   -10.5004     0.0000     0.0000 </r>
       <r>   -10.4344     0.0000     0.0000 </r>
       <r>   -10.3683     0.0000     0.0000 </r>
       <r>   -10.3023     0.0000     0.0000 </r>
       <r>   -10.2362     0.0000     0.0000 </r>
       <r>   -10.1702     0.0000     0.0000 </r>
       <r>   -10.1041     0.0000     0.0000 </r>
       <r>   -10.0381     0.0000     0.0000 </r>
       <r>    -9.9720     0.0000     0.0000 </r>
       <r>    -9.9060     0.0719     0.0014 </r>
       <r>    -9.8399     0.3364     0.0138 </r>
       <r>    -9.7739     0.7126     0.0489 </r>
       <r>    -9.7078     0.9135     0.1037 </r>
       <r>    -9.6418     0.9543     0.1656 </r>
       <r>    -9.5757     1.0454     0.2312 </r>
       <r>    -9.5097     1.2069     0.3054 </r>
       <r>    -9.4436     1.3874     0.3910 </r>
       <r>    -9.3776     1.8579     0.4924 </r>
       <r>    -9.3115     2.6339     0.6421 </r>
       <r>    -9.2455     2.7585     0.8293 </r>
       <r>    -9.1794     2.3015     0.9959 </r>
       <r>    -9.1134     2.1661     1.1406 </r>
       <r>    -9.0473     2.1376     1.2829 </r>
       <r>    -8.9813     2.0779     1.4223 </r>
       <r>    -8.9152     1.9868     1.5567 </r>
       <r>    -8.8492     2.1946     1.7277 </r>
       <r>    -8.7831     1.1578     1.8314 </r>
       <r>    -8.7171     1.6947     1.9140 </r>
       <r>    -8.6510     3.1376     2.0696 </r>
       <r>    -8.5850     3.4416     2.2882 </r>
       <r>    -8.5189     3.8058     2.5228 </r>
       <r>    -8.4529     4.0476     2.7747 </r>
       <r>    -8.3868     4.4234     3.0551 </r>
       <r>    -8.3208    11.3526     3.6692 </r>
       <r>    -8.2547     4.5972     4.0757 </r>
       <r>    -8.1887     4.1905     4.3415 </r>
       <r>    -8.1226     4.5818     4.6308 </r>
       <r>    -8.0566     6.6481     4.9879 </r>
       <r>    -7.9905     7.8813     5.4664 </r>
       <r>    -7.9245     8.6661     5.9904 </r>
       <r>    -7.8584     8.2393     6.5753 </r>
       <r>    -7.7924     6.0639     7.0205 </r>
       <r>    -7.7263     5.4863     7.4018 </r>
       <r>    -7.6603     4.7082     7.7465 </r>
       <r>    -7.5942     1.1244     7.9996 </r>
       <r>    -7.5282     0.0000     8.0000 </r>
       <r>    -7.4621     0.0000     8.0000 </r>
       <r>    -7.3961     0.0000     8.0000 </r>
       <r>    -7.3300     0.0000     8.0000 </r>
       <r>    -7.2640     0.0000     8.0000 </r>
       <r>    -7.1979     0.0000     8.0000 </r>
       <r>    -7.1318     0.0000     8.0000 </r>
       <r>    -7.0658     0.0000     8.0000 </r>
       <r>    -6.9997     0.0000     8.0000 </r>
       <r>    -6.9337     0.0000     8.0000 </r>
       <r>    -6.8676     0.0000     8.0000 </r>
       <r>    -6.8016     0.0000     8.0000 </r>
       <r>    -6.7355     0.0000     8.0000 </r>
       <r>    -6.6695     0.0000     8.0000 </r>
       <r>    -6.6034     0.0000     8.0000 </r>
       <r>    -6.5374     0.0000     8.0000 </r>
       <r>    -6.4713     0.0000     8.0000 </r>
       <r>    -6.4053     0.0000     8.0000 </r>
       <r>    -6.3392     0.0000     8.0000 </r>
       <r>    -6.2732     0.0000     8.0000 </r>
       <r>    -6.2071     0.0000     8.0000 </r>
       <r>    -6.1411     0.0000     8.0000 </r>
       <r>    -6.0750     0.0000     8.0000 </r>
       <r>    -6.0090     0.0000     8.0000 </r>
       <r>    -5.9429     0.0000     8.0000 </r>
       <r>    -5.8769     0.0000     8.0000 </r>
       <r>    -5.8108     0.0000     8.0000 </r>
       <r>    -5.7448     0.0000     8.0000 </r>
       <r>    -5.6787     0.0000     8.0000 </r>
       <r>    -5.6127     0.0000     8.0000 </r>
       <r>    -5.5466     0.0000     8.0000 </r>
       <r>    -5.4806     0.0000     8.0000 </r>
       <r>    -5.4145     0.0000     8.0000 </r>
       <r>    -5.3485     0.0000     8.0000 </r>
       <r>    -5.2824     0.0000     8.0000 </r>
       <r>    -5.2164     0.0000     8.0000 </r>
       <r>    -5.1503     0.0000     8.0000 </r>
       <r>    -5.0843     0.0000     8.0000 </r>
       <r>    -5.0182     0.0000     8.0000 </r>
       <r>    -4.9522     0.0000     8.0000 </r>
       <r>    -4.8861     0.0000     8.0000 </r>
       <r>    -4.8201     0.0000     8.0000 </r>
       <r>    -4.7540     0.0000     8.0000 </r>
       <r>    -4.6880     0.0000     8.0000 </r>
       <r>    -4.6219     0.0000     8.0000 </r>
       <r>    -4.5559     0.0000     8.0000 </r>
       <r>    -4.4898     0.0000     8.0000 </r>
       <r>    -4.4238     0.0000     8.0000 </r>
       <r>    -4.3577     0.0000     8.0000 </r>
       <r>    -4.2917     0.0000     8.0000 </r>
       <r>    -4.2256     0.0000     8.0000 </r>
       <r>    -4.1596     0.0000     8.0000 </r>
       <r>    -4.0935     0.0000     8.0000 </r>
       <r>    -4.0275     0.2826     8.0030 </r>
       <r>    -3.9614     1.7198     8.0740 </r>
       <r>    -3.8954     2.4268     8.2030 </r>
       <r>    -3.8293     4.8257     8.4372 </r>
       <r>    -3.7633     9.6152     8.8988 </r>
       <r>    -3.6972    15.1321     9.6732 </r>
       <r>    -3.6312    12.2936    10.5077 </r>
       <r>    -3.5651     7.5235    11.1141 </r>
       <r>    -3.4991     6.0608    11.5416 </r>
       <r>    -3.4330     3.5925    11.8454 </r>
       <r>    -3.3670     3.7535    12.0949 </r>
       <r>    -3.3009     2.9334    12.3071 </r>
       <r>    -3.2349     2.8623    12.4985 </r>
       <r>    -3.1688     2.7968    12.6854 </r>
       <r>    -3.1028     2.7367    12.8681 </r>
       <r>    -3.0367     2.6822    13.0470 </r>
       <r>    -2.9707     2.6331    13.2225 </r>
       <r>    -2.9046     2.0762    13.3659 </r>
       <r>    -2.8386     2.0284    13.5015 </r>
       <r>    -2.7725     1.9722    13.6336 </r>
       <r>    -2.7065     1.8857    13.7612 </r>
       <r>    -2.6404     1.8038    13.8825 </r>
       <r>    -2.5744     1.6962    13.9981 </r>
       <r>    -2.5083     1.5773    14.1063 </r>
       <r>    -2.4423     1.4470    14.2062 </r>
       <r>    -2.3762     1.3605    14.3001 </r>
       <r>    -2.3102     1.1795    14.3838 </r>
       <r>    -2.2441     1.0219    14.4564 </r>
       <r>    -2.1781     0.8877    14.5193 </r>
       <r>    -2.1120     0.8930    14.5769 </r>
       <r>    -2.0460     0.7519    14.6302 </r>
       <r>    -1.9799     0.7629    14.6802 </r>
       <r>    -1.9139     0.7723    14.7310 </r>
       <r>    -1.8478     0.7802    14.7822 </r>
       <r>    -1.7818     0.7866    14.8340 </r>
       <r>    -1.7157     0.7943    14.8861 </r>
       <r>    -1.6497     0.8109    14.9391 </r>
       <r>    -1.5836     0.8321    14.9934 </r>
       <r>    -1.5175     0.8578    15.0491 </r>
       <r>    -1.4515     0.8881    15.1068 </r>
       <r>    -1.3854     0.9231    15.1666 </r>
       <r>    -1.3194     0.9626    15.2288 </r>
       <r>    -1.2533     1.0067    15.2938 </r>
       <r>    -1.1873     1.0554    15.3619 </r>
       <r>    -1.1212     2.2556    15.4438 </r>
       <r>    -1.0552     3.1105    15.6389 </r>
       <r>    -0.9891     3.2929    15.8501 </r>
       <r>    -0.9231     3.5101    16.0746 </r>
       <r>    -0.8570     5.3357    16.3105 </r>
       <r>    -0.7910     6.9599    16.7156 </r>
       <r>    -0.7249     6.3305    17.1562 </r>
       <r>    -0.6589     5.8051    17.5585 </r>
       <r>    -0.5928     5.0109    17.9171 </r>
       <r>    -0.5268     4.9606    18.2479 </r>
       <r>    -0.4607     4.5175    18.5664 </r>
       <r>    -0.3947     4.5069    18.8643 </r>
       <r>    -0.3286     4.5154    19.1622 </r>
       <r>    -0.2626     5.0734    19.4668 </r>
       <r>    -0.1965     4.8920    19.8288 </r>
       <r>    -0.1305     4.4736    20.1220 </r>
       <r>    -0.0644     4.5486    20.4199 </r>
       <r>     0.0016     5.0127    20.7247 </r>
       <r>     0.0677     5.6028    21.0740 </r>
       <r>     0.1337     7.3610    21.5088 </r>
       <r>     0.1998     7.4913    22.0180 </r>
       <r>     0.2658     7.5410    22.5508 </r>
       <r>     0.3319     6.9134    23.0254 </r>
       <r>     0.3979     6.5384    23.4695 </r>
       <r>     0.4640     6.1850    23.8896 </r>
       <r>     0.5300     5.4700    24.2745 </r>
       <r>     0.5961     5.0016    24.6197 </r>
       <r>     0.6621     4.6556    24.9379 </r>
       <r>     0.7282     4.9505    25.2482 </r>
       <r>     0.7942     5.4960    25.5939 </r>
       <r>     0.8603     6.5120    26.0125 </r>
       <r>     0.9263     5.3362    26.3600 </r>
       <r>     0.9924     5.6826    26.7238 </r>
       <r>     1.0584     7.0350    27.1266 </r>
       <r>     1.1245     9.3448    27.6391 </r>
       <r>     1.1905     5.9361    28.1499 </r>
       <r>     1.2566     5.1887    28.5174 </r>
       <r>     1.3226     4.4260    28.8350 </r>
       <r>     1.3887     3.4673    29.1283 </r>
       <r>     1.4547     2.3772    29.2983 </r>
       <r>     1.5208     2.2693    29.4473 </r>
       <r>     1.5868     3.1158    29.6214 </r>
       <r>     1.6529     4.8730    29.8940 </r>
       <r>     1.7189     5.1545    30.2101 </r>
       <r>     1.7850     5.7617    30.5712 </r>
       <r>     1.8510     5.8455    30.9478 </r>
       <r>     1.9171     3.6715    31.2723 </r>
       <r>     1.9831     1.7583    31.4109 </r>
       <r>     2.0492     1.5317    31.5195 </r>
       <r>     2.1152     1.3090    31.6133 </r>
       <r>     2.1813     1.0902    31.6925 </r>
       <r>     2.2473     0.9410    31.7583 </r>
       <r>     2.3134     1.0494    31.8250 </r>
       <r>     2.3794     0.9801    31.8930 </r>
       <r>     2.4455     0.7333    31.9506 </r>
       <r>     2.5115     0.3089    31.9860 </r>
       <r>     2.5776     0.0888    31.9965 </r>
       <r>     2.6436     0.0172    31.9997 </r>
       <r>     2.7097     0.0000    32.0000 </r>
       <r>     2.7757     0.0000    32.0000 </r>
       <r>     2.8418     0.0000    32.0000 </r>
       <r>     2.9078     0.0000    32.0000 </r>
       <r>     2.9739     0.0000    32.0000 </r>
       <r>     3.0399     0.0000    32.0000 </r>
       <r>     3.1060     0.0000    32.0000 </r>
       <r>     3.1720     0.0000    32.0000 </r>
       <r>     3.2381     0.0000    32.0000 </r>
       <r>     3.3041     0.0010    32.0000 </r>
       <r>     3.3702     0.0033    32.0002 </r>
       <r>     3.4362     0.0071    32.0005 </r>
       <r>     3.5023     0.0123    32.0011 </r>
       <r>     3.5683     0.0188    32.0021 </r>
       <r>     3.6344     0.0268    32.0036 </r>
       <r>     3.7004     0.0362    32.0057 </r>
       <r>     3.7665     0.0470    32.0085 </r>
       <r>     3.8325     0.4203    32.0319 </r>
       <r>     3.8986     0.2152    32.0448 </r>
       <r>     3.9646     0.2564    32.0604 </r>
       <r>     4.0307     0.3016    32.0788 </r>
       <r>     4.0968     0.3508    32.1003 </r>
       <r>     4.1628     0.4202    32.1253 </r>
       <r>     4.2289     0.5929    32.1582 </r>
       <r>     4.2949     0.8693    32.2060 </r>
       <r>     4.3610     1.1682    32.2737 </r>
       <r>     4.4270     1.3828    32.3584 </r>
       <r>     4.4931     1.5943    32.4566 </r>
       <r>     4.5591     2.9996    32.6299 </r>
       <r>     4.6252     2.7223    32.7947 </r>
       <r>     4.6912     3.6295    32.9908 </r>
       <r>     4.7573     5.9350    33.3130 </r>
       <r>     4.8233     5.8296    33.6778 </r>
       <r>     4.8894     6.9496    34.1086 </r>
       <r>     4.9554     6.9099    34.5805 </r>
       <r>     5.0215     6.7396    35.0152 </r>
       <r>     5.0875     7.3723    35.4795 </r>
       <r>     5.1536     9.8125    36.0633 </r>
       <r>     5.2196     7.0983    36.5904 </r>
       <r>     5.2857     6.1721    37.0087 </r>
       <r>     5.3517     6.1420    37.4156 </r>
       <r>     5.4178     7.1945    37.8417 </r>
       <r>     5.4838     6.4981    38.3062 </r>
       <r>     5.5499     6.1707    38.7063 </r>
       <r>     5.6159     6.3540    39.2139 </r>
       <r>     5.6820     3.9106    39.4978 </r>
       <r>     5.7480     3.7132    39.7494 </r>
       <r>     5.8141     3.5411    39.9889 </r>
       <r>     5.8801     3.3942    40.2178 </r>
       <r>     5.9462     3.2727    40.4378 </r>
       <r>     6.0122     2.8937    40.6458 </r>
       <r>     6.0783     1.7365    40.8249 </r>
       <r>     6.1443     1.8933    40.9448 </r>
       <r>     6.2104     2.0489    41.0750 </r>
       <r>     6.2764     2.2031    41.2154 </r>
       <r>     6.3425     2.3561    41.3660 </r>
       <r>     6.4085     2.5079    41.5266 </r>
       <r>     6.4746     2.6724    41.6973 </r>
       <r>     6.5406     2.9371    41.8825 </r>
       <r>     6.6067     5.5947    42.1273 </r>
       <r>     6.6727     4.8084    42.4560 </r>
       <r>     6.7388     5.1443    42.7819 </r>
       <r>     6.8048     5.8462    43.1434 </r>
       <r>     6.8709     7.2592    43.5718 </r>
       <r>     6.9369     9.0555    44.0843 </r>
       <r>     7.0030     6.8964    44.6090 </r>
       <r>     7.0690     5.1089    45.0035 </r>
       <r>     7.1351     4.1748    45.3155 </r>
       <r>     7.2011     2.7300    45.5029 </r>
       <r>     7.2672     3.0818    45.6945 </r>
       <r>     7.3332     3.4965    45.9114 </r>
       <r>     7.3993     5.6085    46.1825 </r>
       <r>     7.4653    11.3969    46.6803 </r>
       <r>     7.5314     6.2089    47.2085 </r>
       <r>     7.5974     4.0386    47.5066 </r>
       <r>     7.6635     2.7892    47.7364 </r>
       <r>     7.7295     1.6752    47.8751 </r>
       <r>     7.7956     0.9686    47.9624 </r>
       <r>     7.8616     0.0000    48.0000 </r>
       <r>     7.9277     0.0000    48.0000 </r>
       <r>     7.9937     0.0000    48.0000 </r>
       <r>     8.0598     0.0000    48.0000 </r>
       <r>     8.1258     0.0000    48.0000 </r>
       <r>     8.1919     0.0000    48.0000 </r>
       <r>     8.2579     0.0000    48.0000 </r>
       <r>     8.3240     0.0000    48.0000 </r>
       <r>     8.3900     0.0000    48.0000 </r>
       <r>     8.4561     0.0000    48.0000 </r>
       <r>     8.5221     0.0000    48.0000 </r>
       <r>     8.5882     0.0000    48.0000 </r>
       <r>     8.6542     0.0000    48.0000 </r>
       <r>     8.7203     0.0000    48.0000 </r>
       <r>     8.7863     0.0000    48.0000 </r>
       <r>     8.8524     0.0000    48.0000 </r>
      </set>
     </set>
    </array>
   </total>
  </dos>
 </calculation>
 <structure name="finalpos" >
  <crystal>
   <varray name="basis" >
    <v>       5.66559983       0.00000000       0.00000000 </v>
    <v>       0.00000000       5.66559983       0.00000000 </v>
    <v>       0.00000000       0.00000000       5.66559983 </v>
   </varray>
   <i name="volume">    181.86021033 </i>
   <varray name="rec_basis" >
    <v>       0.17650382       0.00000000       0.00000000 </v>
    <v>       0.00000000       0.17650382       0.00000000 </v>
    <v>       0.00000000       0.00000000       0.17650382 </v>
   </varray>
  </crystal>
  <varray name="positions" >
   <v>       0.00000000       0.00000000       0.00000000 </v>
   <v>       0.50000000       0.50000000       0.00000000 </v>
   <v>       0.50000000       0.00000000       0.50000000 </v>
   <v>       0.00000000       0.50000000       0.50000000 </v>
   <v>       0.25000000       0.25000000       0.25000000 </v>
   <v>       0.75000000       0.25000000       0.75000000 </v>
   <v>       0.75000000       0.75000000       0.25000000 </v>
   <v>       0.25000000       0.75000000       0.75000000 </v>
  </varray>
 </structure>
</modeling>
