  64  64   0   0
  0.2404191E+02  0.1167088E-08  0.1148213E-08  0.1148213E-08  0.1000000E-15
  1.000000000000000E-004
  CAR 
 GaAs                                    
      7.50385868    -11.02539947  301      2.32338692      1.00000000
    -11.025  0.0000E+00  0.0000E+00
    -10.964  0.0000E+00  0.0000E+00
    -10.902  0.0000E+00  0.0000E+00
    -10.840  0.0000E+00  0.0000E+00
    -10.778  0.0000E+00  0.0000E+00
    -10.717  0.0000E+00  0.0000E+00
    -10.655  0.0000E+00  0.0000E+00
    -10.593  0.0000E+00  0.0000E+00
    -10.531  0.0000E+00  0.0000E+00
    -10.470  0.0000E+00  0.0000E+00
    -10.408  0.0000E+00  0.0000E+00
    -10.346  0.0000E+00  0.0000E+00
    -10.284  0.0000E+00  0.0000E+00
    -10.222  0.0000E+00  0.0000E+00
    -10.161  0.0000E+00  0.0000E+00
    -10.099  0.0000E+00  0.0000E+00
    -10.037  0.0000E+00  0.0000E+00
     -9.975  0.3370E-01  0.6651E-03
     -9.914  0.5023E-01  0.3210E-02
     -9.852  0.1125E+00  0.8167E-02
     -9.790  0.7521E-01  0.1330E-01
     -9.728  0.5540E-01  0.1785E-01
     -9.667  0.1141E+00  0.2300E-01
     -9.605  0.1307E+00  0.2984E-01
     -9.543  0.1394E+00  0.3850E-01
     -9.481  0.1242E+00  0.4613E-01
     -9.420  0.1971E+00  0.5570E-01
     -9.358  0.1036E+00  0.6573E-01
     -9.296  0.1518E+00  0.7365E-01
     -9.234  0.1473E+00  0.8290E-01
     -9.172  0.2698E+00  0.9618E-01
     -9.111  0.3384E+00  0.1135E+00
     -9.049  0.1222E+00  0.1268E+00
     -8.987  0.2745E+00  0.1346E+00
     -8.925  0.2355E+00  0.1519E+00
     -8.864  0.1683E+00  0.1636E+00
     -8.802  0.4296E+00  0.1832E+00
     -8.740  0.2964E+00  0.2041E+00
     -8.678  0.3246E+00  0.2226E+00
     -8.617  0.4040E+00  0.2445E+00
     -8.555  0.5051E+00  0.2692E+00
     -8.493  0.5982E+00  0.3043E+00
     -8.431  0.5426E+00  0.3391E+00
     -8.370  0.5739E+00  0.3728E+00
     -8.308  0.5319E+00  0.4043E+00
     -8.246  0.4539E+00  0.4261E+00
     -8.184  0.8057E+00  0.4578E+00
     -8.122  0.7265E+00  0.4969E+00
     -8.061  0.5317E+00  0.5279E+00
     -7.999  0.6481E+00  0.5618E+00
     -7.937  0.7965E+00  0.6086E+00
     -7.875  0.1834E+00  0.6390E+00
     -7.814  0.0000E+00  0.6400E+00
     -7.752  0.0000E+00  0.6400E+00
     -7.690  0.0000E+00  0.6400E+00
     -7.628  0.0000E+00  0.6400E+00
     -7.567  0.0000E+00  0.6400E+00
     -7.505  0.0000E+00  0.6400E+00
     -7.443  0.0000E+00  0.6400E+00
     -7.381  0.0000E+00  0.6400E+00
     -7.320  0.0000E+00  0.6400E+00
     -7.258  0.0000E+00  0.6400E+00
     -7.196  0.0000E+00  0.6400E+00
     -7.134  0.0000E+00  0.6400E+00
     -7.072  0.0000E+00  0.6400E+00
     -7.011  0.0000E+00  0.6400E+00
     -6.949  0.0000E+00  0.6400E+00
     -6.887  0.0000E+00  0.6400E+00
     -6.825  0.0000E+00  0.6400E+00
     -6.764  0.0000E+00  0.6400E+00
     -6.702  0.0000E+00  0.6400E+00
     -6.640  0.0000E+00  0.6400E+00
     -6.578  0.0000E+00  0.6400E+00
     -6.517  0.0000E+00  0.6400E+00
     -6.455  0.0000E+00  0.6400E+00
     -6.393  0.0000E+00  0.6400E+00
     -6.331  0.0000E+00  0.6400E+00
     -6.270  0.0000E+00  0.6400E+00
     -6.208  0.0000E+00  0.6400E+00
     -6.146  0.0000E+00  0.6400E+00
     -6.084  0.0000E+00  0.6400E+00
     -6.022  0.0000E+00  0.6400E+00
     -5.961  0.0000E+00  0.6400E+00
     -5.899  0.0000E+00  0.6400E+00
     -5.837  0.0000E+00  0.6400E+00
     -5.775  0.0000E+00  0.6400E+00
     -5.714  0.0000E+00  0.6400E+00
     -5.652  0.0000E+00  0.6400E+00
     -5.590  0.0000E+00  0.6400E+00
     -5.528  0.0000E+00  0.6400E+00
     -5.467  0.0000E+00  0.6400E+00
     -5.405  0.0000E+00  0.6400E+00
     -5.343  0.0000E+00  0.6400E+00
     -5.281  0.0000E+00  0.6400E+00
     -5.220  0.0000E+00  0.6400E+00
     -5.158  0.0000E+00  0.6400E+00
     -5.096  0.0000E+00  0.6400E+00
     -5.034  0.0000E+00  0.6400E+00
     -4.973  0.0000E+00  0.6400E+00
     -4.911  0.0000E+00  0.6400E+00
     -4.849  0.0000E+00  0.6400E+00
     -4.787  0.0000E+00  0.6400E+00
     -4.725  0.0000E+00  0.6400E+00
     -4.664  0.0000E+00  0.6400E+00
     -4.602  0.0000E+00  0.6400E+00
     -4.540  0.0000E+00  0.6400E+00
     -4.478  0.0000E+00  0.6400E+00
     -4.417  0.0000E+00  0.6400E+00
     -4.355  0.0000E+00  0.6400E+00
     -4.293  0.1091E-01  0.6401E+00
     -4.231  0.5649E-01  0.6420E+00
     -4.170  0.1852E+00  0.6484E+00
     -4.108  0.3544E+00  0.6640E+00
     -4.046  0.7308E+00  0.6988E+00
     -3.984  0.7828E+00  0.7394E+00
     -3.923  0.1363E+01  0.7978E+00
     -3.861  0.8394E+00  0.8569E+00
     -3.799  0.1172E+01  0.8875E+00
     -3.737  0.7818E+00  0.9319E+00
     -3.675  0.2010E+00  0.9475E+00
     -3.614  0.2546E+00  0.9594E+00
     -3.552  0.4787E+00  0.9827E+00
     -3.490  0.2671E+00  0.1003E+01
     -3.428  0.1818E+00  0.1017E+01
     -3.367  0.1622E+00  0.1026E+01
     -3.305  0.3871E+00  0.1040E+01
     -3.243  0.2475E+00  0.1066E+01
     -3.181  0.1337E+00  0.1075E+01
     -3.120  0.1057E+00  0.1083E+01
     -3.058  0.8113E-01  0.1088E+01
     -2.996  0.1264E+00  0.1095E+01
     -2.934  0.1254E+00  0.1103E+01
     -2.873  0.1678E+00  0.1113E+01
     -2.811  0.1382E+00  0.1122E+01
     -2.749  0.1315E+00  0.1130E+01
     -2.687  0.1305E+00  0.1138E+01
     -2.625  0.1351E+00  0.1146E+01
     -2.564  0.1168E+00  0.1154E+01
     -2.502  0.5901E-01  0.1159E+01
     -2.440  0.6664E-01  0.1163E+01
     -2.378  0.7404E-01  0.1167E+01
     -2.317  0.8512E-01  0.1172E+01
     -2.255  0.1180E+00  0.1178E+01
     -2.193  0.1080E+00  0.1185E+01
     -2.131  0.7032E-01  0.1191E+01
     -2.070  0.9764E-01  0.1196E+01
     -2.008  0.4338E-01  0.1200E+01
     -1.946  0.4660E-01  0.1203E+01
     -1.884  0.4065E-01  0.1205E+01
     -1.823  0.3756E-01  0.1208E+01
     -1.761  0.3848E-01  0.1210E+01
     -1.699  0.4465E-01  0.1213E+01
     -1.637  0.7983E-01  0.1217E+01
     -1.575  0.9551E-01  0.1222E+01
     -1.514  0.8181E-01  0.1228E+01
     -1.452  0.6686E-01  0.1232E+01
     -1.390  0.6369E-01  0.1236E+01
     -1.328  0.1322E+00  0.1242E+01
     -1.267  0.2939E+00  0.1256E+01
     -1.205  0.4293E+00  0.1275E+01
     -1.143  0.4866E+00  0.1305E+01
     -1.081  0.4266E+00  0.1332E+01
     -1.020  0.5985E+00  0.1363E+01
     -0.958  0.4260E+00  0.1392E+01
     -0.896  0.3783E+00  0.1416E+01
     -0.834  0.3613E+00  0.1438E+01
     -0.773  0.3782E+00  0.1458E+01
     -0.711  0.3270E+00  0.1476E+01
     -0.649  0.3145E+00  0.1497E+01
     -0.587  0.4457E+00  0.1519E+01
     -0.525  0.3999E+00  0.1545E+01
     -0.464  0.4780E+00  0.1570E+01
     -0.402  0.5077E+00  0.1600E+01
     -0.340  0.5175E+00  0.1630E+01
     -0.278  0.4890E+00  0.1662E+01
     -0.217  0.4514E+00  0.1691E+01
     -0.155  0.4966E+00  0.1719E+01
     -0.093  0.5399E+00  0.1753E+01
     -0.031  0.6115E+00  0.1790E+01
      0.030  0.5415E+00  0.1823E+01
      0.092  0.4634E+00  0.1853E+01
      0.154  0.5825E+00  0.1886E+01
      0.216  0.4130E+00  0.1920E+01
      0.277  0.4152E+00  0.1942E+01
      0.339  0.5432E+00  0.1973E+01
      0.401  0.4720E+00  0.2004E+01
      0.463  0.6022E+00  0.2038E+01
      0.525  0.6743E+00  0.2076E+01
      0.586  0.5317E+00  0.2106E+01
      0.648  0.5010E+00  0.2134E+01
      0.710  0.4480E+00  0.2164E+01
      0.772  0.5164E+00  0.2194E+01
      0.833  0.3352E+00  0.2218E+01
      0.895  0.5519E+00  0.2249E+01
      0.957  0.3516E+00  0.2276E+01
      1.019  0.3966E+00  0.2299E+01
      1.080  0.4570E+00  0.2325E+01
      1.142  0.3878E+00  0.2353E+01
      1.204  0.6141E+00  0.2384E+01
      1.266  0.4231E+00  0.2411E+01
      1.327  0.2970E+00  0.2433E+01
      1.389  0.2175E+00  0.2449E+01
      1.451  0.2392E+00  0.2463E+01
      1.513  0.2201E+00  0.2476E+01
      1.574  0.2069E+00  0.2490E+01
      1.636  0.1334E+00  0.2501E+01
      1.698  0.1152E+00  0.2509E+01
      1.760  0.1929E+00  0.2517E+01
      1.822  0.1553E+00  0.2528E+01
      1.883  0.7709E-01  0.2535E+01
      1.945  0.8492E-01  0.2539E+01
      2.007  0.1396E+00  0.2547E+01
      2.069  0.7963E-01  0.2554E+01
      2.130  0.3691E-01  0.2557E+01
      2.192  0.3107E-01  0.2559E+01
      2.254  0.1669E-02  0.2560E+01
      2.316  0.0000E+00  0.2560E+01
      2.377  0.8179E-06  0.2560E+01
      2.439  0.1809E-04  0.2560E+01
      2.501  0.5779E-04  0.2560E+01
      2.563  0.1199E-03  0.2560E+01
      2.624  0.2045E-03  0.2560E+01
      2.686  0.3115E-03  0.2560E+01
      2.748  0.4409E-03  0.2560E+01
      2.810  0.5927E-03  0.2560E+01
      2.872  0.7670E-03  0.2560E+01
      2.933  0.9637E-03  0.2560E+01
      2.995  0.1183E-02  0.2560E+01
      3.057  0.1424E-02  0.2560E+01
      3.119  0.1696E-02  0.2560E+01
      3.180  0.4016E-02  0.2561E+01
      3.242  0.1190E-01  0.2561E+01
      3.304  0.1945E-01  0.2562E+01
      3.366  0.2651E-01  0.2563E+01
      3.427  0.6298E-01  0.2567E+01
      3.489  0.6283E-01  0.2570E+01
      3.551  0.8418E-01  0.2575E+01
      3.613  0.6712E-01  0.2579E+01
      3.674  0.8192E-01  0.2584E+01
      3.736  0.1070E+00  0.2590E+01
      3.798  0.1241E+00  0.2597E+01
      3.860  0.3299E+00  0.2609E+01
      3.922  0.2459E+00  0.2621E+01
      3.983  0.2942E+00  0.2638E+01
      4.045  0.3203E+00  0.2658E+01
      4.107  0.1956E+00  0.2673E+01
      4.169  0.2272E+00  0.2686E+01
      4.230  0.2836E+00  0.2701E+01
      4.292  0.5656E+00  0.2727E+01
      4.354  0.3898E+00  0.2753E+01
      4.416  0.5486E+00  0.2779E+01
      4.477  0.4783E+00  0.2808E+01
      4.539  0.6052E+00  0.2843E+01
      4.601  0.6308E+00  0.2879E+01
      4.663  0.6536E+00  0.2921E+01
      4.724  0.6681E+00  0.2958E+01
      4.786  0.5497E+00  0.2997E+01
      4.848  0.4529E+00  0.3027E+01
      4.910  0.3957E+00  0.3053E+01
      4.972  0.4253E+00  0.3079E+01
      5.033  0.3591E+00  0.3103E+01
      5.095  0.3342E+00  0.3124E+01
      5.157  0.3530E+00  0.3144E+01
      5.219  0.3088E+00  0.3165E+01
      5.280  0.2117E+00  0.3181E+01
      5.342  0.3142E+00  0.3194E+01
      5.404  0.3569E+00  0.3215E+01
      5.466  0.3555E+00  0.3233E+01
      5.527  0.3154E+00  0.3253E+01
      5.589  0.2859E+00  0.3270E+01
      5.651  0.1817E+00  0.3284E+01
      5.713  0.2207E+00  0.3295E+01
      5.774  0.2239E+00  0.3309E+01
      5.836  0.1885E+00  0.3321E+01
      5.898  0.1423E+00  0.3331E+01
      5.960  0.1155E+00  0.3339E+01
      6.022  0.9442E-01  0.3345E+01
      6.083  0.7469E-01  0.3351E+01
      6.145  0.4387E-01  0.3354E+01
      6.207  0.3351E-01  0.3357E+01
      6.269  0.1899E-01  0.3358E+01
      6.330  0.1345E-01  0.3359E+01
      6.392  0.7550E-02  0.3359E+01
      6.454  0.5277E-02  0.3360E+01
      6.516  0.0000E+00  0.3360E+01
      6.577  0.0000E+00  0.3360E+01
      6.639  0.0000E+00  0.3360E+01
      6.701  0.0000E+00  0.3360E+01
      6.763  0.0000E+00  0.3360E+01
      6.824  0.0000E+00  0.3360E+01
      6.886  0.0000E+00  0.3360E+01
      6.948  0.0000E+00  0.3360E+01
      7.010  0.0000E+00  0.3360E+01
      7.072  0.0000E+00  0.3360E+01
      7.133  0.0000E+00  0.3360E+01
      7.195  0.0000E+00  0.3360E+01
      7.257  0.0000E+00  0.3360E+01
      7.319  0.0000E+00  0.3360E+01
      7.380  0.0000E+00  0.3360E+01
      7.442  0.0000E+00  0.3360E+01
      7.504  0.0000E+00  0.3360E+01
