 vasp.6.4.3 19Mar24 (build Aug 29 2024 15:27:20) complex                        
  
 executed on             LinuxIFC date 2025.03.24  12:04:51
 running    8 mpi-ranks, on    1 nodes
 distrk:  each k-point on    8 cores,    1 groups
 distr:  one band on NCORE=   1 cores,    8 groups


--------------------------------------------------------------------------------------------------------


 INCAR:
   SYSTEM = GaAs
   PREC = Normal
   ENCUT = 400
   ISMEAR = -5
   SIGMA = 0.1
   IBRION = 2
   POTIM = 0.1
   NFREE = 2
   NSW = 100
   ISIF = 2
   LEPSILON = .TRUE.
   LOPTICS = .TRUE.

 POTCAR:    PAW_PBE As 22Sep2009                  
 POTCAR:    PAW_PBE Ga 08Apr2002                  
 -----------------------------------------------------------------------------
|                                                                             |
|           W    W    AA    RRRRR   N    N  II  N    N   GGGG   !!!           |
|           W    W   A  A   R    R  NN   N  II  NN   N  G    G  !!!           |
|           W    W  A    A  R    R  N N  N  II  N N  N  G       !!!           |
|           W WW W  AAAAAA  RRRRR   N  N N  II  N  N N  G  GGG   !            |
|           WW  WW  A    A  R   R   N   NN  II  N   NN  G    G                |
|           W    W  A    A  R    R  N    N  II  N    N   GGGG   !!!           |
|                                                                             |
|     For optimal performance we recommend to set                             |
|       NCORE = 2 up to number-of-cores-per-socket                            |
|     NCORE specifies how many cores store one orbital (NPAR=cpu/NCORE).      |
|     This setting can greatly improve the performance of VASP for DFT.       |
|     The default, NCORE=1 might be grossly inefficient on modern             |
|     multi-core architectures or massively parallel machines. Do your        |
|     own testing! More info at https://www.vasp.at/wiki/index.php/NCORE      |
|     Unfortunately you need to use the default for GW and RPA                |
|     calculations (for HF NCORE is supported but not extensively tested      |
|     yet).                                                                   |
|                                                                             |
 -----------------------------------------------------------------------------

 POTCAR:    PAW_PBE As 22Sep2009                  
   VRHFIN =As: s2p3                                                                                 
   LEXCH  = PE                                                                                      
   EATOM  =   170.1867 eV,   12.5084 Ry                                                             
                                                                                                    
   TITEL  = PAW_PBE As 22Sep2009                                                                    
   LULTRA =        F    use ultrasoft PP ?                                                          
   IUNSCR =        1    unscreen: 0-lin 1-nonlin 2-no                                               
   RPACOR =    1.900    partial core radius                                                         
   POMASS =   74.922; ZVAL   =    5.000    mass and valenz                                          
   RCORE  =    2.100    outmost cutoff radius                                                       
   RWIGS  =    2.300; RWIGS  =    1.217    wigner-seitz radius (au A)                               
   ENMAX  =  208.702; ENMIN  =  156.526 eV                                                          
   ICORE  =        3    local potential                                                             
   LCOR   =        T    correct aug charges                                                         
   LPAW   =        T    paw PP                                                                      
   EAUG   =  462.758                                                                                
   DEXC   =    0.000                                                                                
   RMAX   =    2.144    core radius for proj-oper                                                   
   RAUG   =    1.300    factor for augmentation sphere                                              
   RDEP   =    2.140    radius for radial grids                                                     
   RDEPT  =    1.956    core radius for aug-charge                                                  
                                                                                                    
   Atomic configuration                                                                             
   10 entries                                                                                       
     n  l   j            E        occ.                                                              
     1  0  0.50    -11718.0418   2.0000                                                             
     2  0  0.50     -1486.5454   2.0000                                                             
     2  1  1.50     -1303.3889   6.0000                                                             
     3  0  0.50      -190.2849   2.0000                                                             
     3  1  1.50      -133.6555   6.0000                                                             
     3  2  2.50       -40.6443  10.0000                                                             
     4  0  0.50       -14.4936   2.0000                                                             
     4  1  0.50        -5.1947   3.0000                                                             
     4  2  1.50        -5.4423   0.0000                                                             
     4  3  2.50        -5.4423   0.0000                                                             
   Description                                                                                      
     l       E           TYP  RCUT    TYP  RCUT                                                     
     0    -14.4935570     23  2.100                                                                 
     0    -11.9212055     23  2.100                                                                 
     1     -5.1947127     23  2.100                                                                 
     1     27.2116520     23  2.100                                                                 
     2     -5.4423304     23  2.100                                                                 
     3     -1.3605826      7  2.100                                                                 
  local pseudopotential read in
  partial core-charges read in
  partial kinetic energy density read in
  atomic valenz-charges read in
  non local Contribution for L=           0  read in
    real space projection operators read in
  non local Contribution for L=           0  read in
    real space projection operators read in
  non local Contribution for L=           1  read in
    real space projection operators read in
  non local Contribution for L=           1  read in
    real space projection operators read in
  non local Contribution for L=           2  read in
    real space projection operators read in
    PAW grid and wavefunctions read in
 
   number of l-projection  operators is LMAX  =           5
   number of lm-projection operators is LMMAX =          13
 
 POTCAR:    PAW_PBE Ga 08Apr2002                  
   VRHFIN =Ga: s2p1                                                                                 
   LEXCH  = PE                                                                                      
   EATOM  =    58.8688 eV,    4.3267 Ry                                                             
                                                                                                    
   TITEL  = PAW_PBE Ga 08Apr2002                                                                    
   LULTRA =        F    use ultrasoft PP ?                                                          
   IUNSCR =        1    unscreen: 0-lin 1-nonlin 2-no                                               
   RPACOR =    2.170    partial core radius                                                         
   POMASS =   69.723; ZVAL   =    3.000    mass and valenz                                          
   RCORE  =    2.600    outmost cutoff radius                                                       
   RWIGS  =    2.650; RWIGS  =    1.402    wigner-seitz radius (au A)                               
   ENMAX  =  134.678; ENMIN  =  101.009 eV                                                          
   ICORE  =        3    local potential                                                             
   LCOR   =        T    correct aug charges                                                         
   LPAW   =        T    paw PP                                                                      
   EAUG   =  320.264                                                                                
   DEXC   =    0.000                                                                                
   RMAX   =    2.658    core radius for proj-oper                                                   
   RAUG   =    1.300    factor for augmentation sphere                                              
   RDEP   =    2.684    radius for radial grids                                                     
   RDEPT  =    2.308    core radius for aug-charge                                                  
                                                                                                    
   Atomic configuration                                                                             
   10 entries                                                                                       
     n  l   j            E        occ.                                                              
     1  0  0.50    -10228.7830   2.0000                                                             
     2  0  0.50     -1262.1604   2.0000                                                             
     2  1  1.50     -1098.6333   6.0000                                                             
     3  0  0.50      -148.1110   2.0000                                                             
     3  1  1.50       -98.8436   6.0000                                                             
     3  2  2.50       -19.1549  10.0000                                                             
     4  0  0.50        -8.9483   2.0000                                                             
     4  1  0.50        -2.5791   1.0000                                                             
     4  2  1.50         5.4423   0.0000                                                             
     4  3  2.50        -2.7416   0.0000                                                             
   Description                                                                                      
     l       E           TYP  RCUT    TYP  RCUT                                                     
     0     -8.9483097     23  2.600                                                                 
     0     -5.8232215     23  2.600                                                                 
     1     -2.5790793     23  2.600                                                                 
     1      5.2230115     23  2.600                                                                 
     2      1.3605826     23  2.600                                                                 
     3     -1.3605826      7  2.600                                                                 
  local pseudopotential read in
  partial core-charges read in
  partial kinetic energy density read in
  atomic valenz-charges read in
  non local Contribution for L=           0  read in
    real space projection operators read in
  non local Contribution for L=           0  read in
    real space projection operators read in
  non local Contribution for L=           1  read in
    real space projection operators read in
  non local Contribution for L=           1  read in
    real space projection operators read in
  non local Contribution for L=           2  read in
    real space projection operators read in
    PAW grid and wavefunctions read in
 
   number of l-projection  operators is LMAX  =           5
   number of lm-projection operators is LMMAX =          13
 
 -----------------------------------------------------------------------------
|                                                                             |
|               ----> ADVICE to this user running VASP <----                  |
|                                                                             |
|     You have a (more or less) 'large supercell' and for larger cells it     |
|     might be more efficient to use real-space projection operators.         |
|     Therefore, try LREAL= Auto in the INCAR file.                           |
|     Mind: For very accurate calculation, you might also keep the            |
|     reciprocal projection scheme (i.e. LREAL=.FALSE.).                      |
|                                                                             |
 -----------------------------------------------------------------------------

  PAW_PBE As 22Sep2009                  :
 energy of atom  1       EATOM= -170.1867
 kinetic energy error for atom=    0.0013 (will be added to EATOM!!)
  PAW_PBE Ga 08Apr2002                  :
 energy of atom  2       EATOM=  -58.8688
 kinetic energy error for atom=    0.0001 (will be added to EATOM!!)
 
 
 POSCAR: cubic gallium arsenide
  positions in direct lattice
  velocities in cartesian coordinates


 exchange-correlation table for PE
   RHO(1)=    0.500       N(1)  =     2000
   RHO(2)=  100.500       N(2)  =     4000
 


--------------------------------------------------------------------------------------------------------


 ion  position               nearest neighbor table
   1  0.000  0.000  0.000-  33 2.50  46 2.50  55 2.50  60 2.50
   2  0.000  0.000  0.500-  34 2.50  45 2.50  56 2.50  59 2.50
   3  0.000  0.500  0.000-  35 2.50  48 2.50  53 2.50  58 2.50
   4  0.000  0.500  0.500-  36 2.50  47 2.50  54 2.50  57 2.50
   5  0.500  0.000  0.000-  37 2.50  42 2.50  51 2.50  64 2.50
   6  0.500  0.000  0.500-  38 2.50  41 2.50  52 2.50  63 2.50
   7  0.500  0.500  0.000-  39 2.50  44 2.50  49 2.50  62 2.50
   8  0.500  0.500  0.500-  40 2.50  43 2.50  50 2.50  61 2.50
   9  0.250  0.250  0.000-  33 2.50  42 2.50  49 2.50  58 2.50
  10  0.250  0.250  0.500-  34 2.50  41 2.50  50 2.50  57 2.50
  11  0.250  0.750  0.000-  35 2.50  44 2.50  51 2.50  60 2.50
  12  0.250  0.750  0.500-  36 2.50  43 2.50  52 2.50  59 2.50
  13  0.750  0.250  0.000-  37 2.50  46 2.50  53 2.50  62 2.50
  14  0.750  0.250  0.500-  38 2.50  45 2.50  54 2.50  61 2.50
  15  0.750  0.750  0.000-  39 2.50  48 2.50  55 2.50  64 2.50
  16  0.750  0.750  0.500-  40 2.50  47 2.50  56 2.50  63 2.50
  17  0.250  0.000  0.250-  33 2.50  41 2.50  51 2.50  59 2.50
  18  0.250  0.000  0.750-  34 2.50  42 2.50  52 2.50  60 2.50
  19  0.250  0.500  0.250-  35 2.50  43 2.50  49 2.50  57 2.50
  20  0.250  0.500  0.750-  36 2.50  44 2.50  50 2.50  58 2.50
  21  0.750  0.000  0.250-  37 2.50  45 2.50  55 2.50  63 2.50
  22  0.750  0.000  0.750-  38 2.50  46 2.50  56 2.50  64 2.50
  23  0.750  0.500  0.250-  39 2.50  47 2.50  53 2.50  61 2.50
  24  0.750  0.500  0.750-  40 2.50  48 2.50  54 2.50  62 2.50
  25  0.000  0.250  0.250-  33 2.50  45 2.50  53 2.50  57 2.50
  26  0.000  0.250  0.750-  34 2.50  46 2.50  54 2.50  58 2.50
  27  0.000  0.750  0.250-  35 2.50  47 2.50  55 2.50  59 2.50
  28  0.000  0.750  0.750-  36 2.50  48 2.50  56 2.50  60 2.50
  29  0.500  0.250  0.250-  37 2.50  41 2.50  49 2.50  61 2.50
  30  0.500  0.250  0.750-  38 2.50  42 2.50  50 2.50  62 2.50
  31  0.500  0.750  0.250-  39 2.50  43 2.50  51 2.50  63 2.50
  32  0.500  0.750  0.750-  40 2.50  44 2.50  52 2.50  64 2.50
  33  0.125  0.125  0.125-   1 2.50   9 2.50  17 2.50  25 2.50
  34  0.125  0.125  0.625-   2 2.50  10 2.50  18 2.50  26 2.50
  35  0.125  0.625  0.125-   3 2.50  11 2.50  19 2.50  27 2.50
  36  0.125  0.625  0.625-   4 2.50  12 2.50  20 2.50  28 2.50
  37  0.625  0.125  0.125-   5 2.50  13 2.50  21 2.50  29 2.50
  38  0.625  0.125  0.625-   6 2.50  14 2.50  22 2.50  30 2.50
  39  0.625  0.625  0.125-   7 2.50  15 2.50  23 2.50  31 2.50
  40  0.625  0.625  0.625-   8 2.50  16 2.50  24 2.50  32 2.50
  41  0.375  0.125  0.375-   6 2.50  10 2.50  17 2.50  29 2.50
  42  0.375  0.125  0.875-   5 2.50   9 2.50  18 2.50  30 2.50
  43  0.375  0.625  0.375-   8 2.50  12 2.50  19 2.50  31 2.50
  44  0.375  0.625  0.875-   7 2.50  11 2.50  20 2.50  32 2.50
  45  0.875  0.125  0.375-   2 2.50  14 2.50  21 2.50  25 2.50
  46  0.875  0.125  0.875-   1 2.50  13 2.50  22 2.50  26 2.50
  47  0.875  0.625  0.375-   4 2.50  16 2.50  23 2.50  27 2.50
  48  0.875  0.625  0.875-   3 2.50  15 2.50  24 2.50  28 2.50
  49  0.375  0.375  0.125-   7 2.50   9 2.50  19 2.50  29 2.50
  50  0.375  0.375  0.625-   8 2.50  10 2.50  20 2.50  30 2.50
  51  0.375  0.875  0.125-   5 2.50  11 2.50  17 2.50  31 2.50
  52  0.375  0.875  0.625-   6 2.50  12 2.50  18 2.50  32 2.50
  53  0.875  0.375  0.125-   3 2.50  13 2.50  23 2.50  25 2.50
  54  0.875  0.375  0.625-   4 2.50  14 2.50  24 2.50  26 2.50
  55  0.875  0.875  0.125-   1 2.50  15 2.50  21 2.50  27 2.50
  56  0.875  0.875  0.625-   2 2.50  16 2.50  22 2.50  28 2.50
  57  0.125  0.375  0.375-   4 2.50  10 2.50  19 2.50  25 2.50
  58  0.125  0.375  0.875-   3 2.50   9 2.50  20 2.50  26 2.50
  59  0.125  0.875  0.375-   2 2.50  12 2.50  17 2.50  27 2.50
  60  0.125  0.875  0.875-   1 2.50  11 2.50  18 2.50  28 2.50
  61  0.625  0.375  0.375-   8 2.50  14 2.50  23 2.50  29 2.50
  62  0.625  0.375  0.875-   7 2.50  13 2.50  24 2.50  30 2.50
  63  0.625  0.875  0.375-   6 2.50  16 2.50  21 2.50  31 2.50
  64  0.625  0.875  0.875-   5 2.50  15 2.50  22 2.50  32 2.50
 
  LATTYP: Found a simple tetragonal cell.
 ALAT       =    11.4821334842
 C/A-ratio  =     1.0164387000
  
  Lattice vectors:
  
 A1 = (   0.0000000000,  11.4821334842,   0.0000000000)
 A2 = (   0.0000000000,   0.0000000000,  11.4821334842)
 A3 = (  11.6708848315,   0.0000000000,   0.0000000000)


Analysis of symmetry for initial positions (statically):
=====================================================================
 Subroutine PRICEL returns following result:
 
  LATTYP: Found a body centered tetragonal cell.
 ALAT       =     4.0595472246
 C/A-ratio  =     1.4374613948
  
  Lattice vectors:
  
 A1 = (   2.9177212079,   0.0000000000,   2.8705333711)
 A2 = (   2.9177212079,   0.0000000000,  -2.8705333711)
 A3 = (  -2.9177212079,   2.8705333711,   0.0000000000)
 
  32 primitive cells build up your supercell.
 

 Routine SETGRP: Setting up the symmetry group for a 
 simple tetragonal supercell.


 Subroutine GETGRP returns: Found  8 space group operations
 (whereof  8 operations were pure point group operations)
 out of a pool of 16 trial point group operations.


The static configuration has the point symmetry D_2d.


Analysis of symmetry for dynamics (positions and initial velocities):
=====================================================================
 Subroutine PRICEL returns following result:
 
  LATTYP: Found a body centered tetragonal cell.
 ALAT       =     4.0595472246
 C/A-ratio  =     1.4374613948
  
  Lattice vectors:
  
 A1 = (   2.9177212079,   0.0000000000,   2.8705333711)
 A2 = (   2.9177212079,   0.0000000000,  -2.8705333711)
 A3 = (  -2.9177212079,   2.8705333711,   0.0000000000)
 
  32 primitive cells build up your supercell.
 

 Routine SETGRP: Setting up the symmetry group for a 
 simple tetragonal supercell.


 Subroutine GETGRP returns: Found  8 space group operations
 (whereof  8 operations were pure point group operations)
 out of a pool of 16 trial point group operations.


The dynamic configuration has the point symmetry D_2d.


 Subroutine INISYM returns: Found  8 space group operations
 (whereof  8 operations are pure point group operations),
 and found    32 'primitive' translations


----------------------------------------------------------------------------------------

                                     Primitive cell                                     

  volume of cell :      48.0838

  direct lattice vectors                    reciprocal lattice vectors
     2.917721208  0.000000000  2.870533371     0.171366613  0.174183657  0.174183657
     2.917721208  0.000000000 -2.870533371     0.171366613  0.174183657 -0.174183657
    -2.917721208  2.870533371  0.000000000     0.000000000  0.348367314  0.000000000

  length of vectors
     4.093050071  4.093050071  4.093050071     0.300077338  0.300077338  0.348367314

  position of ions in fractional coordinates (direct lattice)
     0.000000000  0.000000000  0.000000000
     0.750000000  0.250000000  0.500000000

  ion indices of the primitive-cell ions
   primitive index   ion index
                 1           1
                 2          33

----------------------------------------------------------------------------------------

 
 
 KPOINTS: Automatic mesh                          

Automatic generation of k-mesh.
 Grid dimensions read from file:
 generate k-points for:    5    5    5

 Generating k-lattice:

  Cartesian coordinates                     Fractional coordinates (reciprocal lattice)
     0.017136661  0.000000000  0.000000000     0.200000000  0.000000000  0.000000000
     0.000000000  0.017418366  0.000000000     0.000000000  0.200000000  0.000000000
     0.000000000  0.000000000  0.017418366     0.000000000  0.000000000  0.200000000

  Length of vectors
     0.017136661  0.017418366  0.017418366

  Shift w.r.t. Gamma in fractional coordinates (k-lattice)
     0.000000000  0.000000000  0.000000000

 TETIRR: Found    177 inequivalent tetrahedra from      750
 
 Subroutine IBZKPT returns following result:
 ===========================================
 
 Found     18 irreducible k-points:
 
 Following reciprocal coordinates:
            Coordinates               Weight
  0.000000  0.000000  0.000000      1.000000
  0.200000  0.000000  0.000000      2.000000
  0.400000  0.000000  0.000000      2.000000
  0.000000  0.200000  0.000000      4.000000
  0.200000  0.200000  0.000000      8.000000
  0.400000  0.200000  0.000000      8.000000
  0.000000  0.400000  0.000000      4.000000
  0.200000  0.400000  0.000000      8.000000
  0.400000  0.400000  0.000000      8.000000
  0.000000  0.200000  0.200000      4.000000
  0.200000  0.200000  0.200000      8.000000
  0.400000  0.200000  0.200000      8.000000
  0.000000  0.400000  0.200000      8.000000
  0.200000  0.400000  0.200000     16.000000
  0.400000  0.400000  0.200000     16.000000
  0.000000  0.400000  0.400000      4.000000
  0.200000  0.400000  0.400000      8.000000
  0.400000  0.400000  0.400000      8.000000
 
 Following cartesian coordinates:
            Coordinates               Weight
  0.000000  0.000000  0.000000      1.000000
  0.017137  0.000000  0.000000      2.000000
  0.034273  0.000000  0.000000      2.000000
  0.000000  0.017418  0.000000      4.000000
  0.017137  0.017418  0.000000      8.000000
  0.034273  0.017418  0.000000      8.000000
  0.000000  0.034837  0.000000      4.000000
  0.017137  0.034837  0.000000      8.000000
  0.034273  0.034837  0.000000      8.000000
  0.000000  0.017418  0.017418      4.000000
  0.017137  0.017418  0.017418      8.000000
  0.034273  0.017418  0.017418      8.000000
  0.000000  0.034837  0.017418      8.000000
  0.017137  0.034837  0.017418     16.000000
  0.034273  0.034837  0.017418     16.000000
  0.000000  0.034837  0.034837      4.000000
  0.017137  0.034837  0.034837      8.000000
  0.034273  0.034837  0.034837      8.000000
 
 
 Subroutine IBZKPT_HF returns following result:
 ==============================================
 
 Found    125 k-points in 1st BZ
 the following    125 k-points will be used (e.g. in the exchange kernel)
 Following reciprocal coordinates:   # in IRBZ
  0.000000  0.000000  0.000000    0.00800000   1 t-inv F
  0.200000  0.000000  0.000000    0.00800000   2 t-inv F
  0.400000  0.000000  0.000000    0.00800000   3 t-inv F
  0.000000  0.200000  0.000000    0.00800000   4 t-inv F
  0.200000  0.200000  0.000000    0.00800000   5 t-inv F
  0.400000  0.200000  0.000000    0.00800000   6 t-inv F
  0.000000  0.400000  0.000000    0.00800000   7 t-inv F
  0.200000  0.400000  0.000000    0.00800000   8 t-inv F
  0.400000  0.400000  0.000000    0.00800000   9 t-inv F
  0.000000  0.200000  0.200000    0.00800000  10 t-inv F
  0.200000  0.200000  0.200000    0.00800000  11 t-inv F
  0.400000  0.200000  0.200000    0.00800000  12 t-inv F
  0.000000  0.400000  0.200000    0.00800000  13 t-inv F
  0.200000  0.400000  0.200000    0.00800000  14 t-inv F
  0.400000  0.400000  0.200000    0.00800000  15 t-inv F
  0.000000  0.400000  0.400000    0.00800000  16 t-inv F
  0.200000  0.400000  0.400000    0.00800000  17 t-inv F
  0.400000  0.400000  0.400000    0.00800000  18 t-inv F
 -0.200000  0.000000  0.000000    0.00800000   2 t-inv F
 -0.400000  0.000000  0.000000    0.00800000   3 t-inv F
  0.000000  0.000000 -0.200000    0.00800000   4 t-inv F
  0.000000 -0.200000  0.000000    0.00800000   4 t-inv F
  0.000000  0.000000  0.200000    0.00800000   4 t-inv F
 -0.200000  0.000000 -0.200000    0.00800000   5 t-inv F
  0.200000 -0.200000  0.000000    0.00800000   5 t-inv F
 -0.200000  0.000000  0.200000    0.00800000   5 t-inv F
 -0.200000 -0.200000  0.000000    0.00800000   5 t-inv F
  0.200000  0.000000 -0.200000    0.00800000   5 t-inv F
 -0.200000  0.200000  0.000000    0.00800000   5 t-inv F
  0.200000  0.000000  0.200000    0.00800000   5 t-inv F
 -0.400000  0.000000 -0.200000    0.00800000   6 t-inv F
  0.400000 -0.200000  0.000000    0.00800000   6 t-inv F
 -0.400000  0.000000  0.200000    0.00800000   6 t-inv F
 -0.400000 -0.200000  0.000000    0.00800000   6 t-inv F
  0.400000  0.000000 -0.200000    0.00800000   6 t-inv F
 -0.400000  0.200000  0.000000    0.00800000   6 t-inv F
  0.400000  0.000000  0.200000    0.00800000   6 t-inv F
  0.000000  0.000000 -0.400000    0.00800000   7 t-inv F
  0.000000 -0.400000  0.000000    0.00800000   7 t-inv F
  0.000000  0.000000  0.400000    0.00800000   7 t-inv F
 -0.200000  0.000000 -0.400000    0.00800000   8 t-inv F
  0.200000 -0.400000  0.000000    0.00800000   8 t-inv F
 -0.200000  0.000000  0.400000    0.00800000   8 t-inv F
 -0.200000 -0.400000  0.000000    0.00800000   8 t-inv F
  0.200000  0.000000 -0.400000    0.00800000   8 t-inv F
 -0.200000  0.400000  0.000000    0.00800000   8 t-inv F
  0.200000  0.000000  0.400000    0.00800000   8 t-inv F
 -0.400000  0.000000 -0.400000    0.00800000   9 t-inv F
  0.400000 -0.400000  0.000000    0.00800000   9 t-inv F
 -0.400000  0.000000  0.400000    0.00800000   9 t-inv F
 -0.400000 -0.400000  0.000000    0.00800000   9 t-inv F
  0.400000  0.000000 -0.400000    0.00800000   9 t-inv F
 -0.400000  0.400000  0.000000    0.00800000   9 t-inv F
  0.400000  0.000000  0.400000    0.00800000   9 t-inv F
  0.000000  0.200000 -0.200000    0.00800000  10 t-inv F
  0.000000 -0.200000 -0.200000    0.00800000  10 t-inv F
  0.000000 -0.200000  0.200000    0.00800000  10 t-inv F
 -0.200000  0.200000 -0.200000    0.00800000  11 t-inv F
  0.200000 -0.200000 -0.200000    0.00800000  11 t-inv F
 -0.200000 -0.200000  0.200000    0.00800000  11 t-inv F
 -0.400000  0.200000 -0.200000    0.00800000  12 t-inv F
  0.400000 -0.200000 -0.200000    0.00800000  12 t-inv F
 -0.400000 -0.200000  0.200000    0.00800000  12 t-inv F
  0.000000  0.200000 -0.400000    0.00800000  13 t-inv F
  0.000000 -0.400000 -0.200000    0.00800000  13 t-inv F
  0.000000 -0.200000  0.400000    0.00800000  13 t-inv F
  0.000000 -0.400000  0.200000    0.00800000  13 t-inv F
  0.000000 -0.200000 -0.400000    0.00800000  13 t-inv F
  0.000000  0.400000 -0.200000    0.00800000  13 t-inv F
  0.000000  0.200000  0.400000    0.00800000  13 t-inv F
 -0.200000  0.200000 -0.400000    0.00800000  14 t-inv F
  0.200000 -0.400000 -0.200000    0.00800000  14 t-inv F
 -0.200000 -0.200000  0.400000    0.00800000  14 t-inv F
 -0.200000 -0.400000  0.200000    0.00800000  14 t-inv F
  0.200000 -0.200000 -0.400000    0.00800000  14 t-inv F
 -0.200000  0.400000 -0.200000    0.00800000  14 t-inv F
  0.200000  0.200000  0.400000    0.00800000  14 t-inv F
 -0.400000  0.200000 -0.400000    0.00800000  15 t-inv F
  0.400000 -0.400000 -0.200000    0.00800000  15 t-inv F
 -0.400000 -0.200000  0.400000    0.00800000  15 t-inv F
 -0.400000 -0.400000  0.200000    0.00800000  15 t-inv F
  0.400000 -0.200000 -0.400000    0.00800000  15 t-inv F
 -0.400000  0.400000 -0.200000    0.00800000  15 t-inv F
  0.400000  0.200000  0.400000    0.00800000  15 t-inv F
  0.000000  0.400000 -0.400000    0.00800000  16 t-inv F
  0.000000 -0.400000 -0.400000    0.00800000  16 t-inv F
  0.000000 -0.400000  0.400000    0.00800000  16 t-inv F
 -0.200000  0.400000 -0.400000    0.00800000  17 t-inv F
  0.200000 -0.400000 -0.400000    0.00800000  17 t-inv F
 -0.200000 -0.400000  0.400000    0.00800000  17 t-inv F
 -0.400000  0.400000 -0.400000    0.00800000  18 t-inv F
  0.400000 -0.400000 -0.400000    0.00800000  18 t-inv F
 -0.400000 -0.400000  0.400000    0.00800000  18 t-inv F
 -0.200000 -0.200000 -0.200000    0.00800000  11 t-inv T
  0.200000 -0.200000  0.200000    0.00800000  11 t-inv T
 -0.200000  0.200000  0.200000    0.00800000  11 t-inv T
  0.200000  0.200000 -0.200000    0.00800000  11 t-inv T
 -0.400000 -0.200000 -0.200000    0.00800000  12 t-inv T
  0.400000 -0.200000  0.200000    0.00800000  12 t-inv T
 -0.400000  0.200000  0.200000    0.00800000  12 t-inv T
  0.400000  0.200000 -0.200000    0.00800000  12 t-inv T
 -0.200000 -0.400000 -0.200000    0.00800000  14 t-inv T
  0.200000 -0.200000  0.400000    0.00800000  14 t-inv T
 -0.200000  0.400000  0.200000    0.00800000  14 t-inv T
  0.200000  0.200000 -0.400000    0.00800000  14 t-inv T
  0.200000  0.400000 -0.200000    0.00800000  14 t-inv T
 -0.200000  0.200000  0.400000    0.00800000  14 t-inv T
  0.200000 -0.400000  0.200000    0.00800000  14 t-inv T
 -0.200000 -0.200000 -0.400000    0.00800000  14 t-inv T
 -0.400000 -0.400000 -0.200000    0.00800000  15 t-inv T
  0.400000 -0.200000  0.400000    0.00800000  15 t-inv T
 -0.400000  0.400000  0.200000    0.00800000  15 t-inv T
  0.400000  0.200000 -0.400000    0.00800000  15 t-inv T
  0.400000  0.400000 -0.200000    0.00800000  15 t-inv T
 -0.400000  0.200000  0.400000    0.00800000  15 t-inv T
  0.400000 -0.400000  0.200000    0.00800000  15 t-inv T
 -0.400000 -0.200000 -0.400000    0.00800000  15 t-inv T
 -0.200000 -0.400000 -0.400000    0.00800000  17 t-inv T
  0.200000 -0.400000  0.400000    0.00800000  17 t-inv T
 -0.200000  0.400000  0.400000    0.00800000  17 t-inv T
  0.200000  0.400000 -0.400000    0.00800000  17 t-inv T
 -0.400000 -0.400000 -0.400000    0.00800000  18 t-inv T
  0.400000 -0.400000  0.400000    0.00800000  18 t-inv T
 -0.400000  0.400000  0.400000    0.00800000  18 t-inv T
  0.400000  0.400000 -0.400000    0.00800000  18 t-inv T


--------------------------------------------------------------------------------------------------------




 Dimension of arrays:
   k-points           NKPTS =     18   k-points in BZ     NKDIM =     18   number of bands    NBANDS=    168
   number of dos      NEDOS =    301   number of ions     NIONS =     64
   non local maximal  LDIM  =      5   non local SUM 2l+1 LMDIM =     13
   total plane-waves  NPLWV = 188160
   max r-space proj   IRMAX =      1   max aug-charges    IRDMAX=   8987
   dimension x,y,z NGX =    60 NGY =   56 NGZ =   56
   dimension x,y,z NGXF=   120 NGYF=  112 NGZF=  112
   support grid    NGXF=   120 NGYF=  112 NGZF=  112
   ions per type =              32  32
   NGX,Y,Z   is equivalent  to a cutoff of   8.55,  8.11,  8.11 a.u.
   NGXF,Y,Z  is equivalent  to a cutoff of  17.09, 16.22, 16.22 a.u.

 SYSTEM =  GaAs                                    
 POSCAR =  cubic gallium arsenide                  

 Startparameter for this run:
   NWRITE =      2    write-flag & timer
   PREC   = normal    normal or accurate (medium, high low for compatibility)
   ISTART =      0    job   : 0-new  1-cont  2-samecut
   ICHARG =      2    charge: 1-file 2-atom 10-const
   ISPIN  =      1    spin polarized calculation?
   LNONCOLLINEAR =      F non collinear calculations
   LSORBIT =      F    spin-orbit coupling
   INIWAV =      1    electr: 0-lowe 1-rand  2-diag
   LASPH  =      F    aspherical Exc in radial PAW
 Electronic Relaxation 1
   ENCUT  =  400.0 eV  29.40 Ry    5.42 a.u.  19.03 18.72 18.72*2*pi/ulx,y,z
   ENINI  =  400.0     initial cutoff
   ENAUG  =  462.8 eV  augmentation charge cutoff
   NELM   =     60;   NELMIN=  2; NELMDL= -5     # of ELM steps 
   EDIFF  = 0.1E-05   stopping-criterion for ELM
   LREAL  =      F    real-space projection
   NLSPLINE    = F    spline interpolate recip. space projectors
   LCOMPAT=      F    compatible to vasp.4.4
   GGA_COMPAT  = T    GGA compatible to vasp.4.4-vasp.4.6
   LMAXPAW     = -100 max onsite density
   LMAXMIX     =    2 max onsite mixed and CHGCAR
   VOSKOWN=      0    Vosko Wilk Nusair interpolation
   ROPT   =    0.00000   0.00000
 Ionic relaxation
   EDIFFG = 0.1E-02   stopping-criterion for IOM
   NSW    =    100    number of steps for IOM
   NBLOCK =      1;   KBLOCK =    100    inner block; outer block 
   IBRION =      2    ionic relax: 0-MD 1-quasi-New 2-CG
   NFREE  =      2    steps in history (QN), initial steepest desc. (CG)
   ISIF   =      2    stress and relaxation
   IWAVPR =     11    prediction:  0-non 1-charg 2-wave 3-comb
   ISYM   =      2    0-nonsym 1-usesym 2-fastsym
   LCORR  =      T    Harris-Foulkes like correction to forces

   POTIM  = 0.1000    time-step for ionic-motion
   TEIN   =    0.0    initial temperature
   TEBEG  =    0.0;   TEEND  =   0.0 temperature during run
   SMASS  =  -3.00    Nose mass-parameter (am)
   estimated Nose-frequenzy (Omega)   =  0.10E-29 period in steps = 0.63E+47 mass=  -0.311E-26a.u.
   SCALEE = 1.0000    scale energy and forces
   NPACO  =    256;   APACO  = 10.0  distance and # of slots for P.C.
   PSTRESS=    0.0 pullay stress

  Mass of Ions in am
   POMASS =  74.92 69.72
  Ionic Valenz
   ZVAL   =   5.00  3.00
  Atomic Wigner-Seitz radii
   RWIGS  =  -1.00 -1.00
  virtual crystal weights 
   VCA    =   1.00  1.00
   NELECT =     256.0000    total number of electrons
   NUPDOWN=      -1.0000    fix difference up-down

 DOS related values:
   EMIN   =  10.00;   EMAX   =-10.00  energy-range for DOS
   EFERMI =   0.00;   METHOD = LEGACY      
   ISMEAR =    -5;   SIGMA  =   0.10  broadening in eV -4-tet -1-fermi 0-gaus

 Electronic relaxation 2 (details)
   IALGO  =     38    algorithm
   LDIAG  =      T    sub-space diagonalisation (order eigenvalues)
   LSUBROT=      F    optimize rotation matrix (better conditioning)
   TURBO    =      0    0=normal 1=particle mesh
   IRESTART =      0    0=no restart 2=restart with 2 vectors
   NREBOOT  =      0    no. of reboots
   NMIN     =      0    reboot dimension
   EREF     =   0.00    reference energy to select bands
   IMIX   =      4    mixing-type and parameters
     AMIX     =   0.40;   BMIX     =  1.00
     AMIX_MAG =   1.60;   BMIX_MAG =  1.00
     AMIN     =   0.10
     WC   =   100.;   INIMIX=   1;  MIXPRE=   1;  MAXMIX= -45

 Intra band minimization:
   WEIMIN = 0.0010     energy-eigenvalue tresh-hold
   EBREAK =  0.15E-08  absolut break condition
   DEPER  =   0.30     relativ break condition  

   TIME   =   0.40     timestep for ELM

  volume/ion in A,a.u.               =      24.04       162.24
  Fermi-wavevector in a.u.,A,eV,Ry     =   0.900406  1.701521 11.030670  0.810731
  Thomas-Fermi vector in A             =   2.023360
 
 Write flags
   LWAVE        =      T    write WAVECAR
   LDOWNSAMPLE  =      F    k-point downsampling of WAVECAR
   LCHARG       =      T    write CHGCAR
   LVTOT        =      F    write LOCPOT, total local potential
   LVHAR        =      F    write LOCPOT, Hartree potential only
   WRT_POTENTIAL= false  ! write potential to hdf5 file
   LELF         =      F    write electronic localiz. function (ELF)
   LORBIT       =      0    0 simple, 1 ext, 2 COOP (PROOUT), +10 PAW based schemes


 Dipole corrections
   LMONO      =      F    monopole corrections only (constant potential shift)
   LDIPOL     =      F    correct potential (dipole corrections)
   IDIPOL     =      0    1-x, 2-y, 3-z, 4-all directions 
   EPSILON    =  1.0000000 bulk dielectric constant
   LVACPOTAV  =      F  vacuum potentials using an averaging scheme for the charge density
   VACPOTFLAT =  0.1000000 required flatness to determine vacuum potential
 Exchange correlation treatment:
   GGA     = PE    functional components
   XC_C    = 1    coefficients multiplying the functional components
   LIBXC   =     F    Libxc                    
   VOSKOWN =     0    Vosko Wilk Nusair interpolation
   LHFCALC =     F    Hartree Fock is set to
   LHFONE  =     F    Hartree Fock one center treatment
   AEXX    =    0.0000 exact exchange contribution

 Parameters of functionals:
   PE:
     No parameter
 
 Van der Waals corrections
   IVDW    =     0    specifies the selected vdW correction

 Linear response parameters
   LEPSILON=     T    determine dielectric tensor
   LRPA    =     F    only Hartree local field effects (RPA)
   LNABLA  =     F    use nabla operator in PAW spheres
   LVEL    =     F    velocity operator in full k-point grid
   CSHIFT  =0.1000    complex shift for real part using Kramers Kronig
   OMEGAMAX=  -1.0    maximum frequency
   DEG_THRESHOLD= 0.2000000E-02 threshold for treating states as degnerate
   RTIME   =   -0.100 relaxation time in fs
  (WPLASMAI=    0.000 imaginary part of plasma frequency in eV, 0.658/RTIME)
   DFIELD  = 0.0000000 0.0000000 0.0000000 field for delta impulse in time
 
  Optional k-point grid parameters
   LKPOINTS_OPT  =     F    use optional k-point grid
   KPOINTS_OPT_MODE=     1    mode for optional k-point grid
 
 Orbital magnetization related:
   ORBITALMAG=     F  switch on orbital magnetization
   LCHIMAG   =     F  perturbation theory with respect to B field
   DQ        =  0.001000  dq finite difference perturbation B field
   LLRAUG    =     F  two centre corrections for induced B field
   LBONE     =     F  B-component reconstruction in AE one-centre
   LVGVCALC  =     T  calculate vGv susceptibility
   LVGVAPPL  =     F  apply vGv susceptibility instead of pGv for G=0

 Random number generation:
   RANDOM_GENERATOR = DEFAULT
   PCG_SEED         = not used


--------------------------------------------------------------------------------------------------------


 conjugate gradient relaxation of ions
 charge density and potential will be updated during run
 non-spin polarized calculation
 Variant of blocked Davidson
 Davidson routine will perform the subspace rotation
 perform sub-space diagonalisation
    after iterative eigenvector-optimisation
 modified Broyden-mixing scheme, WC =      100.0
 initial mixing is a Kerker type mixing with AMIX =  0.4000 and BMIX =      1.0000
 Hartree-type preconditioning will be used
 using additional bands           40
 reciprocal scheme for non local part
 use partial core corrections
 calculate Harris-corrections to forces 
   (improved forces if not selfconsistent)
 use gradient corrections 
 use of overlap-Matrix (Vanderbilt PP)
 Fermi weights with tetrahedron method with Bloechl corrections


--------------------------------------------------------------------------------------------------------


  energy-cutoff  :      400.00
  volume of cell :     1538.68
      direct lattice vectors                 reciprocal lattice vectors
    11.670884831  0.000000000  0.000000000     0.085683306  0.000000000  0.000000000
     0.000000000 11.482133484  0.000000000     0.000000000  0.087091828  0.000000000
     0.000000000  0.000000000 11.482133484     0.000000000  0.000000000  0.087091828

  length of vectors
    11.670884831 11.482133484 11.482133484     0.085683306  0.087091828  0.087091828


 
 k-points in units of 2pi/SCALE and weight: Automatic mesh                          
   0.00000000  0.00000000  0.00000000       0.008
   0.01713666  0.00000000  0.00000000       0.016
   0.03427332  0.00000000  0.00000000       0.016
   0.00000000  0.01741837  0.00000000       0.032
   0.01713666  0.01741837  0.00000000       0.064
   0.03427332  0.01741837  0.00000000       0.064
   0.00000000  0.03483673  0.00000000       0.032
   0.01713666  0.03483673  0.00000000       0.064
   0.03427332  0.03483673  0.00000000       0.064
   0.00000000  0.01741837  0.01741837       0.032
   0.01713666  0.01741837  0.01741837       0.064
   0.03427332  0.01741837  0.01741837       0.064
   0.00000000  0.03483673  0.01741837       0.064
   0.01713666  0.03483673  0.01741837       0.128
   0.03427332  0.03483673  0.01741837       0.128
   0.00000000  0.03483673  0.03483673       0.032
   0.01713666  0.03483673  0.03483673       0.064
   0.03427332  0.03483673  0.03483673       0.064
 
 k-points in reciprocal lattice and weights: Automatic mesh                          
   0.00000000  0.00000000  0.00000000       0.008
   0.20000000  0.00000000  0.00000000       0.016
   0.40000000  0.00000000  0.00000000       0.016
   0.00000000  0.20000000  0.00000000       0.032
   0.20000000  0.20000000  0.00000000       0.064
   0.40000000  0.20000000  0.00000000       0.064
   0.00000000  0.40000000  0.00000000       0.032
   0.20000000  0.40000000  0.00000000       0.064
   0.40000000  0.40000000  0.00000000       0.064
   0.00000000  0.20000000  0.20000000       0.032
   0.20000000  0.20000000  0.20000000       0.064
   0.40000000  0.20000000  0.20000000       0.064
   0.00000000  0.40000000  0.20000000       0.064
   0.20000000  0.40000000  0.20000000       0.128
   0.40000000  0.40000000  0.20000000       0.128
   0.00000000  0.40000000  0.40000000       0.032
   0.20000000  0.40000000  0.40000000       0.064
   0.40000000  0.40000000  0.40000000       0.064
 
 position of ions in fractional coordinates (direct lattice) 
   0.00000000  0.00000000  0.00000000
   0.00000000  0.00000000  0.50000000
   0.00000000  0.50000000  0.00000000
   0.00000000  0.50000000  0.50000000
   0.50000000  0.00000000  0.00000000
   0.50000000  0.00000000  0.50000000
   0.50000000  0.50000000  0.00000000
   0.50000000  0.50000000  0.50000000
   0.25000000  0.25000000  0.00000000
   0.25000000  0.25000000  0.50000000
   0.25000000  0.75000000  0.00000000
   0.25000000  0.75000000  0.50000000
   0.75000000  0.25000000  0.00000000
   0.75000000  0.25000000  0.50000000
   0.75000000  0.75000000  0.00000000
   0.75000000  0.75000000  0.50000000
   0.25000000  0.00000000  0.25000000
   0.25000000  0.00000000  0.75000000
   0.25000000  0.50000000  0.25000000
   0.25000000  0.50000000  0.75000000
   0.75000000  0.00000000  0.25000000
   0.75000000  0.00000000  0.75000000
   0.75000000  0.50000000  0.25000000
   0.75000000  0.50000000  0.75000000
   0.00000000  0.25000000  0.25000000
   0.00000000  0.25000000  0.75000000
   0.00000000  0.75000000  0.25000000
   0.00000000  0.75000000  0.75000000
   0.50000000  0.25000000  0.25000000
   0.50000000  0.25000000  0.75000000
   0.50000000  0.75000000  0.25000000
   0.50000000  0.75000000  0.75000000
   0.12500000  0.12500000  0.12500000
   0.12500000  0.12500000  0.62500000
   0.12500000  0.62500000  0.12500000
   0.12500000  0.62500000  0.62500000
   0.62500000  0.12500000  0.12500000
   0.62500000  0.12500000  0.62500000
   0.62500000  0.62500000  0.12500000
   0.62500000  0.62500000  0.62500000
   0.37500000  0.12500000  0.37500000
   0.37500000  0.12500000  0.87500000
   0.37500000  0.62500000  0.37500000
   0.37500000  0.62500000  0.87500000
   0.87500000  0.12500000  0.37500000
   0.87500000  0.12500000  0.87500000
   0.87500000  0.62500000  0.37500000
   0.87500000  0.62500000  0.87500000
   0.37500000  0.37500000  0.12500000
   0.37500000  0.37500000  0.62500000
   0.37500000  0.87500000  0.12500000
   0.37500000  0.87500000  0.62500000
   0.87500000  0.37500000  0.12500000
   0.87500000  0.37500000  0.62500000
   0.87500000  0.87500000  0.12500000
   0.87500000  0.87500000  0.62500000
   0.12500000  0.37500000  0.37500000
   0.12500000  0.37500000  0.87500000
   0.12500000  0.87500000  0.37500000
   0.12500000  0.87500000  0.87500000
   0.62500000  0.37500000  0.37500000
   0.62500000  0.37500000  0.87500000
   0.62500000  0.87500000  0.37500000
   0.62500000  0.87500000  0.87500000
 
 position of ions in cartesian coordinates  (Angst):
   0.00000000  0.00000000  0.00000000
   0.00000000  0.00000000  5.74106674
   0.00000000  5.74106674  0.00000000
   0.00000000  5.74106674  5.74106674
   5.83544242  0.00000000  0.00000000
   5.83544242  0.00000000  5.74106674
   5.83544242  5.74106674  0.00000000
   5.83544242  5.74106674  5.74106674
   2.91772121  2.87053337  0.00000000
   2.91772121  2.87053337  5.74106674
   2.91772121  8.61160011  0.00000000
   2.91772121  8.61160011  5.74106674
   8.75316362  2.87053337  0.00000000
   8.75316362  2.87053337  5.74106674
   8.75316362  8.61160011  0.00000000
   8.75316362  8.61160011  5.74106674
   2.91772121  0.00000000  2.87053337
   2.91772121  0.00000000  8.61160011
   2.91772121  5.74106674  2.87053337
   2.91772121  5.74106674  8.61160011
   8.75316362  0.00000000  2.87053337
   8.75316362  0.00000000  8.61160011
   8.75316362  5.74106674  2.87053337
   8.75316362  5.74106674  8.61160011
   0.00000000  2.87053337  2.87053337
   0.00000000  2.87053337  8.61160011
   0.00000000  8.61160011  2.87053337
   0.00000000  8.61160011  8.61160011
   5.83544242  2.87053337  2.87053337
   5.83544242  2.87053337  8.61160011
   5.83544242  8.61160011  2.87053337
   5.83544242  8.61160011  8.61160011
   1.45886060  1.43526669  1.43526669
   1.45886060  1.43526669  7.17633343
   1.45886060  7.17633343  1.43526669
   1.45886060  7.17633343  7.17633343
   7.29430302  1.43526669  1.43526669
   7.29430302  1.43526669  7.17633343
   7.29430302  7.17633343  1.43526669
   7.29430302  7.17633343  7.17633343
   4.37658181  1.43526669  4.30580006
   4.37658181  1.43526669 10.04686680
   4.37658181  7.17633343  4.30580006
   4.37658181  7.17633343 10.04686680
  10.21202423  1.43526669  4.30580006
  10.21202423  1.43526669 10.04686680
  10.21202423  7.17633343  4.30580006
  10.21202423  7.17633343 10.04686680
   4.37658181  4.30580006  1.43526669
   4.37658181  4.30580006  7.17633343
   4.37658181 10.04686680  1.43526669
   4.37658181 10.04686680  7.17633343
  10.21202423  4.30580006  1.43526669
  10.21202423  4.30580006  7.17633343
  10.21202423 10.04686680  1.43526669
  10.21202423 10.04686680  7.17633343
   1.45886060  4.30580006  4.30580006
   1.45886060  4.30580006 10.04686680
   1.45886060 10.04686680  4.30580006
   1.45886060 10.04686680 10.04686680
   7.29430302  4.30580006  4.30580006
   7.29430302  4.30580006 10.04686680
   7.29430302 10.04686680  4.30580006
   7.29430302 10.04686680 10.04686680
 


--------------------------------------------------------------------------------------------------------


 k-point     1 :   0.0000 0.0000 0.0000  plane waves:   27979
 k-point     2 :   0.2000 0.0000 0.0000  plane waves:   27938
 k-point     3 :   0.4000 0.0000 0.0000  plane waves:   27962
 k-point     4 :   0.0000 0.2000 0.0000  plane waves:   27947
 k-point     5 :   0.2000 0.2000 0.0000  plane waves:   27975
 k-point     6 :   0.4000 0.2000 0.0000  plane waves:   27941
 k-point     7 :   0.0000 0.4000 0.0000  plane waves:   27918
 k-point     8 :   0.2000 0.4000 0.0000  plane waves:   27943
 k-point     9 :   0.4000 0.4000 0.0000  plane waves:   27971
 k-point    10 :   0.0000 0.2000 0.2000  plane waves:   27947
 k-point    11 :   0.2000 0.2000 0.2000  plane waves:   27956
 k-point    12 :   0.4000 0.2000 0.2000  plane waves:   27937
 k-point    13 :   0.0000 0.4000 0.2000  plane waves:   27929
 k-point    14 :   0.2000 0.4000 0.2000  plane waves:   27939
 k-point    15 :   0.4000 0.4000 0.2000  plane waves:   27951
 k-point    16 :   0.0000 0.4000 0.4000  plane waves:   27972
 k-point    17 :   0.2000 0.4000 0.4000  plane waves:   27963
 k-point    18 :   0.4000 0.4000 0.4000  plane waves:   27959

 maximum and minimum number of plane-waves per node :     27979    27918

 maximum number of plane-waves:     27979
 maximum index in each direction: 
   IXMAX=   19   IYMAX=   18   IZMAX=   18
   IXMIN=  -19   IYMIN=  -19   IZMIN=  -19


 serial   3D FFT for wavefunctions
 parallel 3D FFT for charge:
    minimum data exchange during FFTs selected (reduces bandwidth)


 total amount of memory used by VASP MPI-rank0   363688. kBytes
=======================================================================

   base      :      30000. kBytes
   nonl-proj :     133427. kBytes
   fftplans  :       7212. kBytes
   grid      :      18251. kBytes
   one-center:        519. kBytes
   wavefun   :     174279. kBytes
 
     INWAV:  cpu time      0.0001: real time      0.0002
 Broyden mixing: mesh for mixing (old mesh)
   NGX = 39   NGY = 37   NGZ = 37
  (NGX  =120   NGY  =112   NGZ  =112)
  gives a total of  53391 points

 initial charge density was supplied:
 charge density of overlapping atoms calculated
 number of electron     256.0000000 magnetization 
 keeping initial charge density in first step


--------------------------------------------------------------------------------------------------------


 Maximum index for augmentation-charges         1099 (set IRDMAX)


--------------------------------------------------------------------------------------------------------


 First call to EWALD:  gamma=   0.154
 Maximum number of real-space cells 3x 3x 3
 Maximum number of reciprocal cells 3x 3x 3

    FEWALD:  cpu time      0.0023: real time      0.0024


--------------------------------------- Ionic step        1  -------------------------------------------




--------------------------------------- Iteration      1(   1)  ---------------------------------------


    POTLOK:  cpu time      0.1111: real time      0.1139
    SETDIJ:  cpu time      0.0111: real time      0.0113
     EDDAV:  cpu time     68.1524: real time     69.0876
 BZINTS: Fermi energy:    9.727326;  256.000000 electrons
         Band energy: 0.377495E+03;  BLOECHL correction:   -0.019688
       DOS:  cpu time      0.0129: real time      0.0130
    --------------------------------------------
      LOOP:  cpu time     68.2875: real time     69.2257

 eigenvalue-minimisations  :  6048
 total energy-change (2. order) : 0.9368055E+03  (-0.8085418E+04)
 number of electron     256.0000000 magnetization 
 augmentation part      256.0000000 magnetization 

 Free energy of the ion-electron system (eV)
  ---------------------------------------------------
  alpha Z        PSCENC =       569.16657709
  Ewald energy   TEWEN  =     -7182.48405200
  -Hartree energ DENC   =      -604.70573747
  -exchange      EXHF   =         0.00000000
  -V(xc)+E(xc)   XCENC  =      -996.62597325
  PAW double counting   =      6692.16565901    -5247.93935635
  entropy T*S    EENTRO =         0.00000000
  eigenvalues    EBANDS =       377.49527882
  atomic energy  EATOM  =      7329.73306348
  Solvation  Ediel_sol  =         0.00000000
  ---------------------------------------------------
  free energy    TOTEN  =       936.80545932 eV

  energy without entropy =      936.80545932  energy(sigma->0) =      936.80545932


--------------------------------------------------------------------------------------------------------




--------------------------------------- Iteration      1(   2)  ---------------------------------------


     EDDAV:  cpu time     77.8754: real time     78.9910
 BZINTS: Fermi energy:    3.105555;  256.000000 electrons
         Band energy:-0.726041E+03;  BLOECHL correction:    0.000000
       DOS:  cpu time      0.0080: real time      0.0081
    --------------------------------------------
      LOOP:  cpu time     77.8834: real time     78.9991

 eigenvalue-minimisations  :  7192
 total energy-change (2. order) :-0.1103536E+04  (-0.1050833E+04)
 number of electron     256.0000000 magnetization 
 augmentation part      256.0000000 magnetization 

 Free energy of the ion-electron system (eV)
  ---------------------------------------------------
  alpha Z        PSCENC =       569.16657709
  Ewald energy   TEWEN  =     -7182.48405200
  -Hartree energ DENC   =      -604.70573747
  -exchange      EXHF   =         0.00000000
  -V(xc)+E(xc)   XCENC  =      -996.62597325
  PAW double counting   =      6692.16565901    -5247.93935635
  entropy T*S    EENTRO =         0.00000000
  eigenvalues    EBANDS =      -726.04066245
  atomic energy  EATOM  =      7329.73306348
  Solvation  Ediel_sol  =         0.00000000
  ---------------------------------------------------
  free energy    TOTEN  =      -166.73048195 eV

  energy without entropy =     -166.73048195  energy(sigma->0) =     -166.73048195


--------------------------------------------------------------------------------------------------------




--------------------------------------- Iteration      1(   3)  ---------------------------------------


     EDDAV:  cpu time     80.0048: real time     81.0909
 BZINTS: Fermi energy:    1.825225;  256.000000 electrons
         Band energy:-0.826844E+03;  BLOECHL correction:    0.000000
       DOS:  cpu time      0.0080: real time      0.0081
    --------------------------------------------
      LOOP:  cpu time     80.0128: real time     81.0990

 eigenvalue-minimisations  :  7424
 total energy-change (2. order) :-0.1008032E+03  (-0.9939393E+02)
 number of electron     256.0000000 magnetization 
 augmentation part      256.0000000 magnetization 

 Free energy of the ion-electron system (eV)
  ---------------------------------------------------
  alpha Z        PSCENC =       569.16657709
  Ewald energy   TEWEN  =     -7182.48405200
  -Hartree energ DENC   =      -604.70573747
  -exchange      EXHF   =         0.00000000
  -V(xc)+E(xc)   XCENC  =      -996.62597325
  PAW double counting   =      6692.16565901    -5247.93935635
  entropy T*S    EENTRO =         0.00000000
  eigenvalues    EBANDS =      -826.84386173
  atomic energy  EATOM  =      7329.73306348
  Solvation  Ediel_sol  =         0.00000000
  ---------------------------------------------------
  free energy    TOTEN  =      -267.53368123 eV

  energy without entropy =     -267.53368123  energy(sigma->0) =     -267.53368123


--------------------------------------------------------------------------------------------------------




--------------------------------------- Iteration      1(   4)  ---------------------------------------


     EDDAV:  cpu time     78.7632: real time     79.8230
 BZINTS: Fermi energy:    1.788743;  256.000000 electrons
         Band energy:-0.829395E+03;  BLOECHL correction:    0.000000
       DOS:  cpu time      0.0076: real time      0.0077
    --------------------------------------------
      LOOP:  cpu time     78.7708: real time     79.8306

 eigenvalue-minimisations  :  7296
 total energy-change (2. order) :-0.2550758E+01  (-0.2520434E+01)
 number of electron     256.0000000 magnetization 
 augmentation part      256.0000000 magnetization 

 Free energy of the ion-electron system (eV)
  ---------------------------------------------------
  alpha Z        PSCENC =       569.16657709
  Ewald energy   TEWEN  =     -7182.48405200
  -Hartree energ DENC   =      -604.70573747
  -exchange      EXHF   =         0.00000000
  -V(xc)+E(xc)   XCENC  =      -996.62597325
  PAW double counting   =      6692.16565901    -5247.93935635
  entropy T*S    EENTRO =         0.00000000
  eigenvalues    EBANDS =      -829.39461968
  atomic energy  EATOM  =      7329.73306348
  Solvation  Ediel_sol  =         0.00000000
  ---------------------------------------------------
  free energy    TOTEN  =      -270.08443918 eV

  energy without entropy =     -270.08443918  energy(sigma->0) =     -270.08443918


--------------------------------------------------------------------------------------------------------




--------------------------------------- Iteration      1(   5)  ---------------------------------------


     EDDAV:  cpu time     80.3713: real time     81.5087
 BZINTS: Fermi energy:    1.785002;  256.000000 electrons
         Band energy:-0.829469E+03;  BLOECHL correction:    0.000000
       DOS:  cpu time      0.0079: real time      0.0080
    CHARGE:  cpu time      0.7957: real time      0.8004
    MIXING:  cpu time      0.0031: real time      0.0031
    --------------------------------------------
      LOOP:  cpu time     81.1780: real time     82.3202

 eigenvalue-minimisations  :  7416
 total energy-change (2. order) :-0.7483644E-01  (-0.7460516E-01)
 number of electron     255.9999710 magnetization 
 augmentation part      -41.5196602 magnetization 

 Broyden mixing:
  rms(total) = 0.20052E+01    rms(broyden)= 0.20052E+01
  rms(prec ) = 0.22827E+01
  weight for this iteration     100.00

 Free energy of the ion-electron system (eV)
  ---------------------------------------------------
  alpha Z        PSCENC =       569.16657709
  Ewald energy   TEWEN  =     -7182.48405200
  -Hartree energ DENC   =      -604.70573747
  -exchange      EXHF   =         0.00000000
  -V(xc)+E(xc)   XCENC  =      -996.62597325
  PAW double counting   =      6692.16565901    -5247.93935635
  entropy T*S    EENTRO =         0.00000000
  eigenvalues    EBANDS =      -829.46945612
  atomic energy  EATOM  =      7329.73306348
  Solvation  Ediel_sol  =         0.00000000
  ---------------------------------------------------
  free energy    TOTEN  =      -270.15927562 eV

  energy without entropy =     -270.15927562  energy(sigma->0) =     -270.15927562


--------------------------------------------------------------------------------------------------------




--------------------------------------- Iteration      1(   6)  ---------------------------------------


    POTLOK:  cpu time      0.1129: real time      0.1159
    SETDIJ:  cpu time      0.0114: real time      0.0115
     EDDAV:  cpu time     76.9201: real time     77.9555
 BZINTS: Fermi energy:    2.086014;  256.000000 electrons
         Band energy:-0.777985E+03;  BLOECHL correction:    0.000000
       DOS:  cpu time      0.0081: real time      0.0081
    CHARGE:  cpu time      0.7906: real time      0.7954
    MIXING:  cpu time      0.0034: real time      0.0034
    --------------------------------------------
      LOOP:  cpu time     77.8465: real time     78.8899

 eigenvalue-minimisations  :  7040
 total energy-change (2. order) : 0.4174141E+01  (-0.6533144E+00)
 number of electron     255.9999715 magnetization 
 augmentation part      -41.3984194 magnetization 

 Broyden mixing:
  rms(total) = 0.11768E+01    rms(broyden)= 0.11768E+01
  rms(prec ) = 0.12992E+01
  weight for this iteration     100.00

 eigenvalues of (default mixing * dielectric matrix)
  average eigenvalue GAMMA=   2.2578
  2.2578

 Free energy of the ion-electron system (eV)
  ---------------------------------------------------
  alpha Z        PSCENC =       569.16657709
  Ewald energy   TEWEN  =     -7182.48405200
  -Hartree energ DENC   =      -655.33213757
  -exchange      EXHF   =         0.00000000
  -V(xc)+E(xc)   XCENC  =      -987.83689139
  PAW double counting   =      9385.35179800    -7946.59838746
  entropy T*S    EENTRO =         0.00000000
  eigenvalues    EBANDS =      -777.98510440
  atomic energy  EATOM  =      7329.73306348
  Solvation  Ediel_sol  =         0.00000000
  ---------------------------------------------------
  free energy    TOTEN  =      -265.98513426 eV

  energy without entropy =     -265.98513426  energy(sigma->0) =     -265.98513426


--------------------------------------------------------------------------------------------------------




--------------------------------------- Iteration      1(   7)  ---------------------------------------


    POTLOK:  cpu time      0.1130: real time      0.1163
    SETDIJ:  cpu time      0.0113: real time      0.0114
     EDDAV:  cpu time     78.9652: real time     80.1187
 BZINTS: Fermi energy:    2.291872;  256.000000 electrons
         Band energy:-0.729462E+03;  BLOECHL correction:    0.000000
       DOS:  cpu time      0.0080: real time      0.0082
    CHARGE:  cpu time      0.8008: real time      0.8059
    MIXING:  cpu time      0.0034: real time      0.0035
    --------------------------------------------
      LOOP:  cpu time     79.9017: real time     81.0639

 eigenvalue-minimisations  :  7304
 total energy-change (2. order) : 0.8189975E+00  (-0.4303625E+00)
 number of electron     255.9999719 magnetization 
 augmentation part      -41.2750625 magnetization 

 Broyden mixing:
  rms(total) = 0.24451E+00    rms(broyden)= 0.24451E+00
  rms(prec ) = 0.28674E+00
  weight for this iteration     100.00

 eigenvalues of (default mixing * dielectric matrix)
  average eigenvalue GAMMA=   1.9345
  1.6123  2.2567

 Free energy of the ion-electron system (eV)
  ---------------------------------------------------
  alpha Z        PSCENC =       569.16657709
  Ewald energy   TEWEN  =     -7182.48405200
  -Hartree energ DENC   =      -708.08019828
  -exchange      EXHF   =         0.00000000
  -V(xc)+E(xc)   XCENC  =      -977.04871888
  PAW double counting   =     13854.51060072   -12421.50168913
  entropy T*S    EENTRO =         0.00000000
  eigenvalues    EBANDS =      -729.46171972
  atomic energy  EATOM  =      7329.73306348
  Solvation  Ediel_sol  =         0.00000000
  ---------------------------------------------------
  free energy    TOTEN  =      -265.16613673 eV

  energy without entropy =     -265.16613673  energy(sigma->0) =     -265.16613673


--------------------------------------------------------------------------------------------------------




--------------------------------------- Iteration      1(   8)  ---------------------------------------


    POTLOK:  cpu time      0.1139: real time      0.1172
    SETDIJ:  cpu time      0.0113: real time      0.0114
     EDDAV:  cpu time     77.3429: real time     78.3661
 BZINTS: Fermi energy:    2.302818;  256.000000 electrons
         Band energy:-0.731162E+03;  BLOECHL correction:    0.000000
       DOS:  cpu time      0.0081: real time      0.0082
    CHARGE:  cpu time      0.7931: real time      0.7983
    MIXING:  cpu time      0.0035: real time      0.0035
    --------------------------------------------
      LOOP:  cpu time     78.2728: real time     79.3047

 eigenvalue-minimisations  :  7088
 total energy-change (2. order) : 0.4139170E-01  (-0.5055611E-01)
 number of electron     255.9999718 magnetization 
 augmentation part      -41.2834951 magnetization 

 Broyden mixing:
  rms(total) = 0.61441E-01    rms(broyden)= 0.61441E-01
  rms(prec ) = 0.71482E-01
  weight for this iteration     100.00

 eigenvalues of (default mixing * dielectric matrix)
  average eigenvalue GAMMA=   1.9467
  2.6792  1.5805  1.5805

 Free energy of the ion-electron system (eV)
  ---------------------------------------------------
  alpha Z        PSCENC =       569.16657709
  Ewald energy   TEWEN  =     -7182.48405200
  -Hartree energ DENC   =      -707.39218681
  -exchange      EXHF   =         0.00000000
  -V(xc)+E(xc)   XCENC  =      -975.69775858
  PAW double counting   =     14513.06437426   -13080.35312714
  entropy T*S    EENTRO =         0.00000000
  eigenvalues    EBANDS =      -731.16163532
  atomic energy  EATOM  =      7329.73306348
  Solvation  Ediel_sol  =         0.00000000
  ---------------------------------------------------
  free energy    TOTEN  =      -265.12474504 eV

  energy without entropy =     -265.12474504  energy(sigma->0) =     -265.12474504


--------------------------------------------------------------------------------------------------------




--------------------------------------- Iteration      1(   9)  ---------------------------------------


    POTLOK:  cpu time      0.1133: real time      0.1166
    SETDIJ:  cpu time      0.0112: real time      0.0113
     EDDAV:  cpu time     76.0552: real time     77.0667
 BZINTS: Fermi energy:    2.291054;  256.000000 electrons
         Band energy:-0.727230E+03;  BLOECHL correction:    0.000000
       DOS:  cpu time      0.0077: real time      0.0077
    CHARGE:  cpu time      0.7921: real time      0.7969
    MIXING:  cpu time      0.0035: real time      0.0035
    --------------------------------------------
      LOOP:  cpu time     76.9830: real time     78.0027

 eigenvalue-minimisations  :  6920
 total energy-change (2. order) :-0.1177160E-01  (-0.3583649E-02)
 number of electron     255.9999718 magnetization 
 augmentation part      -41.2847019 magnetization 

 Broyden mixing:
  rms(total) = 0.23152E-01    rms(broyden)= 0.23152E-01
  rms(prec ) = 0.24587E-01
  weight for this iteration     100.00

 eigenvalues of (default mixing * dielectric matrix)
  average eigenvalue GAMMA=   1.6615
  2.5797  1.6633  1.6633  0.7395

 Free energy of the ion-electron system (eV)
  ---------------------------------------------------
  alpha Z        PSCENC =       569.16657709
  Ewald energy   TEWEN  =     -7182.48405200
  -Hartree energ DENC   =      -712.03948849
  -exchange      EXHF   =         0.00000000
  -V(xc)+E(xc)   XCENC  =      -974.79098683
  PAW double counting   =     14703.88585820   -13271.37710671
  entropy T*S    EENTRO =         0.00000000
  eigenvalues    EBANDS =      -727.23038138
  atomic energy  EATOM  =      7329.73306348
  Solvation  Ediel_sol  =         0.00000000
  ---------------------------------------------------
  free energy    TOTEN  =      -265.13651664 eV

  energy without entropy =     -265.13651664  energy(sigma->0) =     -265.13651664


--------------------------------------------------------------------------------------------------------




--------------------------------------- Iteration      1(  10)  ---------------------------------------


    POTLOK:  cpu time      0.1130: real time      0.1164
    SETDIJ:  cpu time      0.0111: real time      0.0112
     EDDAV:  cpu time     81.6347: real time     82.8317
 BZINTS: Fermi energy:    2.317558;  256.000000 electrons
         Band energy:-0.727171E+03;  BLOECHL correction:    0.000000
       DOS:  cpu time      0.0081: real time      0.0081
    CHARGE:  cpu time      0.7928: real time      0.7977
    MIXING:  cpu time      0.0037: real time      0.0037
    --------------------------------------------
      LOOP:  cpu time     82.5633: real time     83.7688

 eigenvalue-minimisations  :  7600
 total energy-change (2. order) :-0.1088415E-02  (-0.9844134E-04)
 number of electron     255.9999718 magnetization 
 augmentation part      -41.2850587 magnetization 

 Broyden mixing:
  rms(total) = 0.10805E-01    rms(broyden)= 0.10805E-01
  rms(prec ) = 0.12552E-01
  weight for this iteration     100.00

 eigenvalues of (default mixing * dielectric matrix)
  average eigenvalue GAMMA=   1.9222
  3.1128  2.4995  1.0329  1.4829  1.4829

 Free energy of the ion-electron system (eV)
  ---------------------------------------------------
  alpha Z        PSCENC =       569.16657709
  Ewald energy   TEWEN  =     -7182.48405200
  -Hartree energ DENC   =      -712.13428705
  -exchange      EXHF   =         0.00000000
  -V(xc)+E(xc)   XCENC  =      -974.83337896
  PAW double counting   =     14622.18128750   -13189.59571475
  entropy T*S    EENTRO =         0.00000000
  eigenvalues    EBANDS =      -727.17110036
  atomic energy  EATOM  =      7329.73306348
  Solvation  Ediel_sol  =         0.00000000
  ---------------------------------------------------
  free energy    TOTEN  =      -265.13760506 eV

  energy without entropy =     -265.13760506  energy(sigma->0) =     -265.13760506


--------------------------------------------------------------------------------------------------------




--------------------------------------- Iteration      1(  11)  ---------------------------------------


    POTLOK:  cpu time      0.1130: real time      0.1163
    SETDIJ:  cpu time      0.0111: real time      0.0112
     EDDAV:  cpu time     72.8249: real time     73.8173
 BZINTS: Fermi energy:    2.307540;  256.000000 electrons
         Band energy:-0.726743E+03;  BLOECHL correction:    0.000000
       DOS:  cpu time      0.0077: real time      0.0077
    CHARGE:  cpu time      0.8012: real time      0.8061
    MIXING:  cpu time      0.0039: real time      0.0039
    --------------------------------------------
      LOOP:  cpu time     73.7619: real time     74.7626

 eigenvalue-minimisations  :  6496
 total energy-change (2. order) :-0.1318847E-02  (-0.2220036E-03)
 number of electron     255.9999718 magnetization 
 augmentation part      -41.2822934 magnetization 

 Broyden mixing:
  rms(total) = 0.50165E-02    rms(broyden)= 0.50165E-02
  rms(prec ) = 0.52675E-02
  weight for this iteration     100.00

 eigenvalues of (default mixing * dielectric matrix)
  average eigenvalue GAMMA=   1.7893
  3.0734  2.4851  1.6589  1.6589  0.9558  0.9035

 Free energy of the ion-electron system (eV)
  ---------------------------------------------------
  alpha Z        PSCENC =       569.16657709
  Ewald energy   TEWEN  =     -7182.48405200
  -Hartree energ DENC   =      -712.70109812
  -exchange      EXHF   =         0.00000000
  -V(xc)+E(xc)   XCENC  =      -974.75221457
  PAW double counting   =     14572.56231896   -13139.92083920
  entropy T*S    EENTRO =         0.00000000
  eigenvalues    EBANDS =      -726.74267955
  atomic energy  EATOM  =      7329.73306348
  Solvation  Ediel_sol  =         0.00000000
  ---------------------------------------------------
  free energy    TOTEN  =      -265.13892390 eV

  energy without entropy =     -265.13892390  energy(sigma->0) =     -265.13892390


--------------------------------------------------------------------------------------------------------




--------------------------------------- Iteration      1(  12)  ---------------------------------------


    POTLOK:  cpu time      0.1132: real time      0.1163
    SETDIJ:  cpu time      0.0112: real time      0.0113
     EDDAV:  cpu time     81.3282: real time     82.4621
 BZINTS: Fermi energy:    2.292923;  256.000000 electrons
         Band energy:-0.726697E+03;  BLOECHL correction:    0.000000
       DOS:  cpu time      0.0075: real time      0.0075
    CHARGE:  cpu time      0.8019: real time      0.8069
    MIXING:  cpu time      0.0039: real time      0.0040
    --------------------------------------------
      LOOP:  cpu time     82.2658: real time     83.4080

 eigenvalue-minimisations  :  7424
 total energy-change (2. order) :-0.7036102E-05  (-0.3153730E-05)
 number of electron     255.9999718 magnetization 
 augmentation part      -41.2822353 magnetization 

 Broyden mixing:
  rms(total) = 0.22488E-02    rms(broyden)= 0.22488E-02
  rms(prec ) = 0.25108E-02
  weight for this iteration     100.00

 eigenvalues of (default mixing * dielectric matrix)
  average eigenvalue GAMMA=   1.8853
  3.2472  2.6128  2.6128  1.3416  1.3416  1.0204  1.0204

 Free energy of the ion-electron system (eV)
  ---------------------------------------------------
  alpha Z        PSCENC =       569.16657709
  Ewald energy   TEWEN  =     -7182.48405200
  -Hartree energ DENC   =      -712.73416425
  -exchange      EXHF   =         0.00000000
  -V(xc)+E(xc)   XCENC  =      -974.75775031
  PAW double counting   =     14578.53376763   -13145.89941850
  entropy T*S    EENTRO =         0.00000000
  eigenvalues    EBANDS =      -726.69695407
  atomic energy  EATOM  =      7329.73306348
  Solvation  Ediel_sol  =         0.00000000
  ---------------------------------------------------
  free energy    TOTEN  =      -265.13893094 eV

  energy without entropy =     -265.13893094  energy(sigma->0) =     -265.13893094


--------------------------------------------------------------------------------------------------------




--------------------------------------- Iteration      1(  13)  ---------------------------------------


    POTLOK:  cpu time      0.1109: real time      0.1140
    SETDIJ:  cpu time      0.0108: real time      0.0109
     EDDAV:  cpu time     76.8686: real time     77.9193
 BZINTS: Fermi energy:    2.283909;  256.000000 electrons
         Band energy:-0.726570E+03;  BLOECHL correction:    0.000000
       DOS:  cpu time      0.0074: real time      0.0075
    CHARGE:  cpu time      0.8025: real time      0.8072
    MIXING:  cpu time      0.0040: real time      0.0041
    --------------------------------------------
      LOOP:  cpu time     77.8043: real time     78.8630

 eigenvalue-minimisations  :  6920
 total energy-change (2. order) :-0.9052321E-05  (-0.7952275E-05)
 number of electron     255.9999718 magnetization 
 augmentation part      -41.2815292 magnetization 

 Broyden mixing:
  rms(total) = 0.97636E-03    rms(broyden)= 0.97636E-03
  rms(prec ) = 0.10921E-02
  weight for this iteration     100.00

 eigenvalues of (default mixing * dielectric matrix)
  average eigenvalue GAMMA=   1.8428
  3.3782  2.7777  2.4458  1.6578  1.5893  1.1023  0.8955  0.8955

 Free energy of the ion-electron system (eV)
  ---------------------------------------------------
  alpha Z        PSCENC =       569.16657709
  Ewald energy   TEWEN  =     -7182.48405200
  -Hartree energ DENC   =      -712.86028312
  -exchange      EXHF   =         0.00000000
  -V(xc)+E(xc)   XCENC  =      -974.75278771
  PAW double counting   =     14582.27065705   -13149.64241569
  entropy T*S    EENTRO =         0.00000000
  eigenvalues    EBANDS =      -726.56969910
  atomic energy  EATOM  =      7329.73306348
  Solvation  Ediel_sol  =         0.00000000
  ---------------------------------------------------
  free energy    TOTEN  =      -265.13893999 eV

  energy without entropy =     -265.13893999  energy(sigma->0) =     -265.13893999


--------------------------------------------------------------------------------------------------------




--------------------------------------- Iteration      1(  14)  ---------------------------------------


    POTLOK:  cpu time      0.1125: real time      0.1156
    SETDIJ:  cpu time      0.0114: real time      0.0115
     EDDAV:  cpu time     68.3897: real time     69.4405
 BZINTS: Fermi energy:    2.331552;  256.000000 electrons
         Band energy:-0.726583E+03;  BLOECHL correction:    0.000000
       DOS:  cpu time      0.0076: real time      0.0077
    --------------------------------------------
      LOOP:  cpu time     68.5212: real time     69.5752

 eigenvalue-minimisations  :  5984
 total energy-change (2. order) : 0.6006776E-06  (-0.4132874E-06)
 number of electron     255.9999718 magnetization 
 augmentation part      -41.2815292 magnetization 

 Free energy of the ion-electron system (eV)
  ---------------------------------------------------
  alpha Z        PSCENC =       569.16657709
  Ewald energy   TEWEN  =     -7182.48405200
  -Hartree energ DENC   =      -712.84846170
  -exchange      EXHF   =         0.00000000
  -V(xc)+E(xc)   XCENC  =      -974.75289874
  PAW double counting   =     14582.30468417   -13149.67522298
  entropy T*S    EENTRO =         0.00000000
  eigenvalues    EBANDS =      -726.58262871
  atomic energy  EATOM  =      7329.73306348
  Solvation  Ediel_sol  =         0.00000000
  ---------------------------------------------------
  free energy    TOTEN  =      -265.13893939 eV

  energy without entropy =     -265.13893939  energy(sigma->0) =     -265.13893939


--------------------------------------------------------------------------------------------------------




 average (electrostatic) potential at core
  the test charge radii are     1.0621  1.2767
  (the norm of the test charge is              1.0000)
       1 -51.9289       2 -51.9289       3 -51.9289       4 -51.9289       5 -51.9289
       6 -51.9289       7 -51.9289       8 -51.9289       9 -51.9289      10 -51.9289
      11 -51.9289      12 -51.9289      13 -51.9289      14 -51.9289      15 -51.9289
      16 -51.9289      17 -51.9289      18 -51.9289      19 -51.9289      20 -51.9289
      21 -51.9289      22 -51.9289      23 -51.9289      24 -51.9289      25 -51.9289
      26 -51.9289      27 -51.9289      28 -51.9289      29 -51.9289      30 -51.9289
      31 -51.9289      32 -51.9289      33 -15.1048      34 -15.1048      35 -15.1048
      36 -15.1048      37 -15.1048      38 -15.1048      39 -15.1048      40 -15.1048
      41 -15.1048      42 -15.1048      43 -15.1048      44 -15.1048      45 -15.1048
      46 -15.1048      47 -15.1048      48 -15.1048      49 -15.1048      50 -15.1048
      51 -15.1048      52 -15.1048      53 -15.1048      54 -15.1048      55 -15.1048
      56 -15.1048      57 -15.1048      58 -15.1048      59 -15.1048      60 -15.1048
      61 -15.1048      62 -15.1048      63 -15.1048      64 -15.1048
 
 
 
 E-fermi :   2.3316     XC(G=0):  -8.9322     alpha+bet : -8.0425

 val. band max:        2.2794457889   @ k =   0.0000   0.0000   0.0000
 cond. band min:       2.3607783464   @ k =   0.0000   0.0000   0.0000
 fundamental gap:      0.0813325575
 Fermi energy:         2.3315518195

 k-point     1 :       0.0000    0.0000    0.0000
  band No.  band energies     occupation 
      1     -10.0253      2.00000
      2      -9.2420      2.00000
      3      -9.2420      2.00000
      4      -9.2215      2.00000
      5      -9.2215      2.00000
      6      -9.2215      2.00000
      7      -9.2215      2.00000
      8      -8.6338      2.00000
      9      -8.6338      2.00000
     10      -8.6338      2.00000
     11      -8.6338      2.00000
     12      -8.6338      2.00000
     13      -8.6338      2.00000
     14      -8.6338      2.00000
     15      -8.6338      2.00000
     16      -8.6261      2.00000
     17      -8.6261      2.00000
     18      -8.6261      2.00000
     19      -8.6261      2.00000
     20      -8.5460      2.00000
     21      -8.5460      2.00000
     22      -8.5460      2.00000
     23      -8.5460      2.00000
     24      -7.9380      2.00000
     25      -7.8882      2.00000
     26      -7.8882      2.00000
     27      -7.8774      2.00000
     28      -7.8774      2.00000
     29      -7.8774      2.00000
     30      -7.8774      2.00000
     31      -7.8566      2.00000
     32      -7.8566      2.00000
     33      -4.3172      2.00000
     34      -4.2267      2.00000
     35      -4.2267      2.00000
     36      -4.0957      2.00000
     37      -4.0957      2.00000
     38      -4.0957      2.00000
     39      -4.0957      2.00000
     40      -4.0635      2.00000
     41      -4.0635      2.00000
     42      -4.0333      2.00000
     43      -4.0333      2.00000
     44      -4.0333      2.00000
     45      -4.0333      2.00000
     46      -3.2138      2.00000
     47      -3.2138      2.00000
     48      -3.2138      2.00000
     49      -3.2138      2.00000
     50      -3.1867      2.00000
     51      -3.1867      2.00000
     52      -3.1867      2.00000
     53      -3.1867      2.00000
     54      -3.1867      2.00000
     55      -3.1867      2.00000
     56      -3.1867      2.00000
     57      -3.1867      2.00000
     58      -1.8507      2.00000
     59      -1.8507      2.00000
     60      -1.7726      2.00000
     61      -1.7726      2.00000
     62      -1.7726      2.00000
     63      -1.7726      2.00000
[...]
   15.526583    0.386244    0.406279    0.406279   -0.000000    0.000000    0.000000
   15.546438    0.388064    0.407846    0.407846   -0.000000    0.000000    0.000000
   15.566293    0.389824    0.409382    0.409382   -0.000000    0.000000    0.000000
   15.586148    0.391529    0.410901    0.410901   -0.000000    0.000000    0.000000
   15.606003    0.393192    0.412416    0.412416   -0.000000    0.000000    0.000000
   15.625858    0.394831    0.413939    0.413939   -0.000000    0.000000    0.000000
   15.645713    0.396467    0.415481    0.415481   -0.000000    0.000000    0.000000
   15.665568    0.398111    0.417048    0.417048   -0.000000    0.000000    0.000000
   15.685423    0.399768    0.418646    0.418646   -0.000000    0.000000    0.000000
   15.705278    0.401435    0.420274    0.420274   -0.000000    0.000000    0.000000
   15.725133    0.403109    0.421929    0.421929   -0.000000    0.000000    0.000000
   15.744988    0.404790    0.423607    0.423607   -0.000000    0.000000    0.000000
   15.764843    0.406476    0.425303    0.425303   -0.000000    0.000000    0.000000
   15.784698    0.408167    0.427011    0.427011   -0.000000    0.000000    0.000000
   15.804553    0.409862    0.428724    0.428724   -0.000000    0.000000    0.000000
   15.824408    0.411560    0.430439    0.430439   -0.000000    0.000000    0.000000
   15.844263    0.413261    0.432149    0.432149   -0.000000    0.000000    0.000000
   15.864117    0.414963    0.433853    0.433853   -0.000000    0.000000    0.000000
   15.883972    0.416667    0.435549    0.435549   -0.000000    0.000000    0.000000
   15.903827    0.418373    0.437242    0.437242   -0.000000    0.000000    0.000000
   15.923682    0.420083    0.438935    0.438935   -0.000000    0.000000    0.000000
   15.943537    0.421798    0.440634    0.440634   -0.000000    0.000000    0.000000
   15.963392    0.423516    0.442339    0.442339   -0.000000    0.000000    0.000000
   15.983247    0.425233    0.444047    0.444047   -0.000000    0.000000    0.000000
   16.003102    0.426943    0.445752    0.445752   -0.000000    0.000000    0.000000
   16.022957    0.428643    0.447452    0.447452   -0.000000    0.000000    0.000000
   16.042812    0.430332    0.449145    0.449145   -0.000000    0.000000    0.000000
   16.062667    0.432013    0.450834    0.450834   -0.000000    0.000000    0.000000
   16.082522    0.433690    0.452519    0.452519   -0.000000    0.000000    0.000000
   16.102377    0.435369    0.454201    0.454201   -0.000000    0.000000    0.000000
   16.122232    0.437051    0.455879    0.455879   -0.000000    0.000000    0.000000
   16.142087    0.438734    0.457551    0.457551   -0.000000    0.000000    0.000000
   16.161942    0.440416    0.459215    0.459215   -0.000000    0.000000    0.000000
   16.181797    0.442093    0.460869    0.460869   -0.000000    0.000000    0.000000
   16.201652    0.443762    0.462512    0.462512   -0.000000    0.000000    0.000000
   16.221507    0.445422    0.464143    0.464143   -0.000000    0.000000    0.000000
   16.241362    0.447070    0.465761    0.465761   -0.000000    0.000000    0.000000
   16.261217    0.448708    0.467368    0.467368   -0.000000    0.000000    0.000000
   16.281072    0.450334    0.468962    0.468962   -0.000000    0.000000    0.000000
   16.300927    0.451948    0.470544    0.470544   -0.000000    0.000000    0.000000
   16.320782    0.453552    0.472115    0.472115   -0.000000    0.000000    0.000000
   16.340637    0.455145    0.473675    0.473675   -0.000000    0.000000    0.000000
   16.360492    0.456727    0.475224    0.475224   -0.000000    0.000000    0.000000
   16.380347    0.458299    0.476762    0.476762   -0.000000    0.000000    0.000000
   16.400202    0.459861    0.478290    0.478290   -0.000000    0.000000    0.000000
   16.420057    0.461413    0.479808    0.479808   -0.000000    0.000000    0.000000
   16.439911    0.462956    0.481316    0.481316   -0.000000    0.000000    0.000000
   16.459766    0.464488    0.482814    0.482814   -0.000000    0.000000    0.000000
   16.479621    0.466012    0.484302    0.484302   -0.000000    0.000000    0.000000
   16.499476    0.467526    0.485782    0.485782   -0.000000    0.000000    0.000000
   16.519331    0.469031    0.487252    0.487252   -0.000000    0.000000    0.000000
   16.539186    0.470527    0.488713    0.488713   -0.000000    0.000000    0.000000
   16.559041    0.472014    0.490165    0.490165   -0.000000    0.000000    0.000000
   16.578896    0.473493    0.491608    0.491608   -0.000000    0.000000    0.000000
   16.598751    0.474963    0.493043    0.493043   -0.000000    0.000000    0.000000
   16.618606    0.476425    0.494469    0.494469   -0.000000    0.000000    0.000000
   16.638461    0.477879    0.495887    0.495887   -0.000000    0.000000    0.000000
   16.658316    0.479324    0.497297    0.497297   -0.000000    0.000000    0.000000
   16.678171    0.480762    0.498699    0.498699   -0.000000    0.000000    0.000000
   16.698026    0.482192    0.500094    0.500094   -0.000000    0.000000    0.000000
   16.717881    0.483614    0.501480    0.501480   -0.000000    0.000000    0.000000
   16.737736    0.485029    0.502859    0.502859   -0.000000    0.000000    0.000000
   16.757591    0.486436    0.504231    0.504231   -0.000000    0.000000    0.000000
   16.777446    0.487836    0.505595    0.505595   -0.000000    0.000000    0.000000
   16.797301    0.489229    0.506951    0.506951   -0.000000    0.000000    0.000000
   16.817156    0.490614    0.508301    0.508301   -0.000000    0.000000    0.000000
   16.837011    0.491993    0.509644    0.509644   -0.000000    0.000000    0.000000
   16.856866    0.493365    0.510980    0.510980   -0.000000    0.000000    0.000000
   16.876721    0.494730    0.512309    0.512309   -0.000000    0.000000    0.000000
   16.896576    0.496088    0.513631    0.513631   -0.000000    0.000000    0.000000
   16.916431    0.497439    0.514946    0.514946   -0.000000    0.000000    0.000000
   16.936286    0.498784    0.516255    0.516255   -0.000000    0.000000    0.000000
   16.956141    0.500122    0.517557    0.517557   -0.000000    0.000000    0.000000
   16.975996    0.501453    0.518853    0.518853   -0.000000    0.000000    0.000000
   16.995851    0.502779    0.520143    0.520143   -0.000000    0.000000    0.000000
   17.015705    0.504098    0.521426    0.521426   -0.000000    0.000000    0.000000
   17.035560    0.505410    0.522703    0.522703   -0.000000    0.000000    0.000000
   17.055415    0.506717    0.523973    0.523973   -0.000000    0.000000    0.000000
   17.075270    0.508017    0.525238    0.525238   -0.000000    0.000000    0.000000
   17.095125    0.509312    0.526497    0.526497   -0.000000    0.000000    0.000000
   17.114980    0.510600    0.527749    0.527749   -0.000000    0.000000    0.000000
   17.134835    0.511882    0.528996    0.528996   -0.000000    0.000000    0.000000
   17.154690    0.513159    0.530237    0.530237   -0.000000    0.000000    0.000000
   17.174545    0.514429    0.531472    0.531472   -0.000000    0.000000    0.000000
   17.194400    0.515694    0.532701    0.532701   -0.000000    0.000000    0.000000
   17.214255    0.516953    0.533925    0.533925   -0.000000    0.000000    0.000000
   17.234110    0.518206    0.535143    0.535143   -0.000000    0.000000    0.000000
   17.253965    0.519454    0.536355    0.536355   -0.000000    0.000000    0.000000
   17.273820    0.520696    0.537562    0.537562   -0.000000    0.000000    0.000000
   17.293675    0.521933    0.538763    0.538763   -0.000000    0.000000    0.000000
   17.313530    0.523164    0.539959    0.539959   -0.000000    0.000000    0.000000
   17.333385    0.524389    0.541150    0.541150   -0.000000    0.000000    0.000000
   17.353240    0.525610    0.542335    0.542335   -0.000000    0.000000    0.000000
   17.373095    0.526825    0.543515    0.543515   -0.000000    0.000000    0.000000
   17.392950    0.528034    0.544689    0.544689   -0.000000    0.000000    0.000000
   17.412805    0.529238    0.545859    0.545859   -0.000000    0.000000    0.000000
   17.432660    0.530437    0.547023    0.547023   -0.000000    0.000000    0.000000
   17.452515    0.531631    0.548182    0.548182   -0.000000    0.000000    0.000000
   17.472370    0.532820    0.549336    0.549336   -0.000000    0.000000    0.000000
   17.492225    0.534003    0.550485    0.550485   -0.000000    0.000000    0.000000
   17.512080    0.535182    0.551629    0.551629   -0.000000    0.000000    0.000000
   17.531935    0.536355    0.552768    0.552768   -0.000000    0.000000    0.000000
   17.551790    0.537524    0.553902    0.553902   -0.000000    0.000000    0.000000
   17.571645    0.538688    0.555031    0.555031   -0.000000    0.000000    0.000000
   17.591499    0.539846    0.556156    0.556156   -0.000000    0.000000    0.000000
   17.611354    0.541000    0.557275    0.557275   -0.000000    0.000000    0.000000
   17.631209    0.542149    0.558390    0.558390   -0.000000    0.000000    0.000000
   17.651064    0.543293    0.559500    0.559500   -0.000000    0.000000    0.000000
   17.670919    0.544432    0.560605    0.560605   -0.000000    0.000000    0.000000
   17.690774    0.545567    0.561706    0.561706   -0.000000    0.000000    0.000000
   17.710629    0.546697    0.562802    0.562802   -0.000000    0.000000    0.000000
   17.730484    0.547822    0.563894    0.563894   -0.000000    0.000000    0.000000
   17.750339    0.548942    0.564980    0.564980   -0.000000    0.000000    0.000000
   17.770194    0.550058    0.566063    0.566063   -0.000000    0.000000    0.000000
   17.790049    0.551170    0.567140    0.567140   -0.000000    0.000000    0.000000
   17.809904    0.552276    0.568214    0.568214   -0.000000    0.000000    0.000000
   17.829759    0.553379    0.569283    0.569283   -0.000000    0.000000    0.000000
   17.849614    0.554476    0.570347    0.570347   -0.000000    0.000000    0.000000
   17.869469    0.555570    0.571407    0.571407   -0.000000    0.000000    0.000000
   17.889324    0.556659    0.572463    0.572463   -0.000000    0.000000    0.000000
   17.909179    0.557743    0.573515    0.573515   -0.000000    0.000000    0.000000
   17.929034    0.558823    0.574562    0.574562   -0.000000    0.000000    0.000000
   17.948889    0.559899    0.575605    0.575605   -0.000000    0.000000    0.000000
   17.968744    0.560971    0.576643    0.576643   -0.000000    0.000000    0.000000
   17.988599    0.562038    0.577678    0.577678   -0.000000    0.000000    0.000000
   18.008454    0.563101    0.578708    0.578708   -0.000000    0.000000    0.000000
   18.028309    0.564160    0.579734    0.579734   -0.000000    0.000000    0.000000
   18.048164    0.565214    0.580756    0.580756   -0.000000    0.000000    0.000000
   18.068019    0.566265    0.581774    0.581774   -0.000000    0.000000    0.000000
   18.087874    0.567311    0.582788    0.582788   -0.000000    0.000000    0.000000
   18.107729    0.568353    0.583798    0.583798   -0.000000    0.000000    0.000000
   18.127584    0.569391    0.584804    0.584804   -0.000000    0.000000    0.000000
   18.147439    0.570425    0.585806    0.585806   -0.000000    0.000000    0.000000
   18.167293    0.571455    0.586804    0.586804   -0.000000    0.000000    0.000000
   18.187148    0.572481    0.587798    0.587798   -0.000000    0.000000    0.000000
   18.207003    0.573503    0.588788    0.588788   -0.000000    0.000000    0.000000
   18.226858    0.574521    0.589774    0.589774   -0.000000    0.000000    0.000000
   18.246713    0.575535    0.590756    0.590756   -0.000000    0.000000    0.000000
   18.266568    0.576545    0.591735    0.591735   -0.000000    0.000000    0.000000
   18.286423    0.577551    0.592709    0.592709   -0.000000    0.000000    0.000000
   18.306278    0.578553    0.593680    0.593680   -0.000000    0.000000    0.000000
   18.326133    0.579552    0.594647    0.594647   -0.000000    0.000000    0.000000
   18.345988    0.580547    0.595611    0.595611   -0.000000    0.000000    0.000000
   18.365843    0.581537    0.596570    0.596570   -0.000000    0.000000    0.000000
   18.385698    0.582524    0.597526    0.597526   -0.000000    0.000000    0.000000
   18.405553    0.583508    0.598478    0.598478   -0.000000    0.000000    0.000000
   18.425408    0.584487    0.599427    0.599427   -0.000000    0.000000    0.000000
   18.445263    0.585463    0.600372    0.600372   -0.000000    0.000000    0.000000
   18.465118    0.586435    0.601313    0.601313   -0.000000    0.000000    0.000000
   18.484973    0.587404    0.602251    0.602251   -0.000000    0.000000    0.000000
   18.504828    0.588369    0.603185    0.603185   -0.000000    0.000000    0.000000
   18.524683    0.589330    0.604116    0.604116   -0.000000    0.000000    0.000000
   18.544538    0.590288    0.605043    0.605043   -0.000000    0.000000    0.000000
   18.564393    0.591242    0.605967    0.605967   -0.000000    0.000000    0.000000
   18.584248    0.592192    0.606887    0.606887   -0.000000    0.000000    0.000000
   18.604103    0.593139    0.607804    0.607804   -0.000000    0.000000    0.000000
   18.623958    0.594083    0.608717    0.608717   -0.000000    0.000000    0.000000
   18.643813    0.595023    0.609627    0.609627   -0.000000    0.000000    0.000000
   18.663668    0.595959    0.610533    0.610533   -0.000000    0.000000    0.000000
   18.683523    0.596892    0.611436    0.611436   -0.000000    0.000000    0.000000
   18.703378    0.597821    0.612336    0.612336   -0.000000    0.000000    0.000000
   18.723233    0.598748    0.613232    0.613232   -0.000000    0.000000    0.000000
   18.743087    0.599670    0.614125    0.614125   -0.000000    0.000000    0.000000
   18.762942    0.600590    0.615015    0.615015   -0.000000    0.000000    0.000000
   18.782797    0.601505    0.615901    0.615901   -0.000000    0.000000    0.000000
   18.802652    0.602418    0.616784    0.616784   -0.000000    0.000000    0.000000
   18.822507    0.603327    0.617664    0.617664   -0.000000    0.000000    0.000000
   18.842362    0.604233    0.618541    0.618541   -0.000000    0.000000    0.000000
   18.862217    0.605136    0.619414    0.619414   -0.000000    0.000000    0.000000
   18.882072    0.606035    0.620285    0.620285   -0.000000    0.000000    0.000000
   18.901927    0.606931    0.621152    0.621152   -0.000000    0.000000    0.000000
   18.921782    0.607824    0.622016    0.622016   -0.000000    0.000000    0.000000
   18.941637    0.608714    0.622876    0.622876   -0.000000    0.000000    0.000000
   18.961492    0.609600    0.623734    0.623734   -0.000000    0.000000    0.000000
   18.981347    0.610484    0.624589    0.624589   -0.000000    0.000000    0.000000
   19.001202    0.611364    0.625440    0.625440   -0.000000    0.000000    0.000000
   19.021057    0.612241    0.626288    0.626288   -0.000000    0.000000    0.000000
   19.040912    0.613114    0.627134    0.627134   -0.000000    0.000000    0.000000
   19.060767    0.613985    0.627976    0.627976   -0.000000    0.000000    0.000000
   19.080622    0.614853    0.628815    0.628815   -0.000000    0.000000    0.000000
   19.100477    0.615717    0.629651    0.629651   -0.000000    0.000000    0.000000
   19.120332    0.616578    0.630484    0.630484   -0.000000    0.000000    0.000000
   19.140187    0.617437    0.631315    0.631315   -0.000000    0.000000    0.000000
   19.160042    0.618292    0.632142    0.632142   -0.000000    0.000000    0.000000
   19.179897    0.619144    0.632966    0.632966   -0.000000    0.000000    0.000000
   19.199752    0.619994    0.633788    0.633788   -0.000000    0.000000    0.000000
   19.219607    0.620840    0.634606    0.634606   -0.000000    0.000000    0.000000
   19.239462    0.621683    0.635422    0.635422   -0.000000    0.000000    0.000000
   19.259317    0.622523    0.636234    0.636234   -0.000000    0.000000    0.000000
   19.279172    0.623361    0.637044    0.637044   -0.000000    0.000000    0.000000
   19.299027    0.624195    0.637851    0.637851   -0.000000    0.000000    0.000000
   19.318881    0.625027    0.638655    0.638655   -0.000000    0.000000    0.000000
   19.338736    0.625855    0.639456    0.639456   -0.000000    0.000000    0.000000
   19.358591    0.626681    0.640255    0.640255   -0.000000    0.000000    0.000000
   19.378446    0.627504    0.641051    0.641051   -0.000000    0.000000    0.000000
   19.398301    0.628324    0.641843    0.641843   -0.000000    0.000000    0.000000
   19.418156    0.629141    0.642634    0.642634   -0.000000    0.000000    0.000000
   19.438011    0.629956    0.643421    0.643421   -0.000000    0.000000    0.000000
   19.457866    0.630767    0.644206    0.644206   -0.000000    0.000000    0.000000
   19.477721    0.631576    0.644987    0.644987   -0.000000    0.000000    0.000000
   19.497576    0.632382    0.645767    0.645767   -0.000000    0.000000    0.000000
   19.517431    0.633185    0.646543    0.646543   -0.000000    0.000000    0.000000
   19.537286    0.633985    0.647317    0.647317   -0.000000    0.000000    0.000000
   19.557141    0.634783    0.648088    0.648088   -0.000000    0.000000    0.000000
   19.576996    0.635578    0.648856    0.648856   -0.000000    0.000000    0.000000
   19.596851    0.636370    0.649622    0.649622   -0.000000    0.000000    0.000000
   19.616706    0.637160    0.650386    0.650386   -0.000000    0.000000    0.000000
   19.636561    0.637946    0.651146    0.651146   -0.000000    0.000000    0.000000
   19.656416    0.638731    0.651904    0.651904   -0.000000    0.000000    0.000000
   19.676271    0.639512    0.652659    0.652659   -0.000000    0.000000    0.000000
   19.696126    0.640291    0.653412    0.653412   -0.000000    0.000000    0.000000
   19.715981    0.641067    0.654162    0.654162   -0.000000    0.000000    0.000000
   19.735836    0.641841    0.654910    0.654910   -0.000000    0.000000    0.000000
   19.755691    0.642612    0.655655    0.655655   -0.000000    0.000000    0.000000
   19.775546    0.643380    0.656398    0.656398   -0.000000    0.000000    0.000000
   19.795401    0.644146    0.657138    0.657138   -0.000000    0.000000    0.000000
   19.815256    0.644909    0.657876    0.657876   -0.000000    0.000000    0.000000
   19.835111    0.645669    0.658611    0.658611   -0.000000    0.000000    0.000000
 
 The outermost node in the dielectric function lies at epsilon=  12.8


--------------------------------------------------------------------------------------------------------


    OPTICS:  cpu time     37.7543: real time     38.3240
    4ORBIT:  cpu time      0.0000: real time      0.0000
 BZINTS: Fermi energy:    2.323387;  256.000000 electrons
         Band energy:-0.726596E+03;  BLOECHL correction:    0.000000

 total amount of memory used by VASP MPI-rank0   363688. kBytes
=======================================================================

   base      :      30000. kBytes
   nonl-proj :     133427. kBytes
   fftplans  :       7212. kBytes
   grid      :      18251. kBytes
   one-center:        519. kBytes
   wavefun   :     174279. kBytes
 
  
  
 General timing and accounting informations for this job:
 ========================================================
  
                  Total CPU time used (sec):    11870.785
                            User time (sec):    11526.291
                          System time (sec):      344.494
                         Elapsed time (sec):    12022.822
  
                   Maximum memory used (kb):     1884688.
                   Average memory used (kb):          N/A
  
                          Minor page faults:       173091
                          Major page faults:          274
                 Voluntary context switches:        22531
