 running    8 mpi-ranks, on    1 nodes
 distrk:  each k-point on    8 cores,    1 groups
 distr:  one band on    1 cores,    8 groups
 vasp.6.4.3 19Mar24 (build Aug 29 2024 15:27:20) complex                        
  
 POSCAR found type information on POSCAR AsGa
 POSCAR found :  2 types and      64 ions
 scaLAPACK will be used
 -----------------------------------------------------------------------------
|                                                                             |
|           W    W    AA    RRRRR   N    N  II  N    N   GGGG   !!!           |
|           W    W   A  A   R    R  NN   N  II  NN   N  G    G  !!!           |
|           W    W  A    A  R    R  N N  N  II  N N  N  G       !!!           |
|           W WW W  AAAAAA  RRRRR   N  N N  II  N  N N  G  GGG   !            |
|           WW  WW  A    A  R   R   N   NN  II  N   NN  G    G                |
|           W    W  A    A  R    R  N    N  II  N    N   GGGG   !!!           |
|                                                                             |
|     For optimal performance we recommend to set                             |
|       NCORE = 2 up to number-of-cores-per-socket                            |
|     NCORE specifies how many cores store one orbital (NPAR=cpu/NCORE).      |
|     This setting can greatly improve the performance of VASP for DFT.       |
|     The default, NCORE=1 might be grossly inefficient on modern             |
|     multi-core architectures or massively parallel machines. Do your        |
|     own testing! More info at https://www.vasp.at/wiki/index.php/NCORE      |
|     Unfortunately you need to use the default for GW and RPA                |
|     calculations (for HF NCORE is supported but not extensively tested      |
|     yet).                                                                   |
|                                                                             |
 -----------------------------------------------------------------------------

 -----------------------------------------------------------------------------
|                                                                             |
|               ----> ADVICE to this user running VASP <----                  |
|                                                                             |
|     You have a (more or less) 'large supercell' and for larger cells it     |
|     might be more efficient to use real-space projection operators.         |
|     Therefore, try LREAL= Auto in the INCAR file.                           |
|     Mind: For very accurate calculation, you might also keep the            |
|     reciprocal projection scheme (i.e. LREAL=.FALSE.).                      |
|                                                                             |
 -----------------------------------------------------------------------------

 LDA part: xc-table for (Slater+PW92), standard interpolation
 POSCAR, INCAR and KPOINTS ok, starting setup
 FFT: planning ... GRIDC
 FFT: planning ... GRID_SOFT
 FFT: planning ... GRID
 WAVECAR not read
 entering main loop
       N       E                     dE             d eps       ncg     rms          rms(c)
DAV:   1     0.936805459318E+03    0.93681E+03   -0.80854E+04  6048   0.101E+03
DAV:   2    -0.166730481952E+03   -0.11035E+04   -0.10508E+04  7192   0.169E+02
DAV:   3    -0.267533681226E+03   -0.10080E+03   -0.99394E+02  7424   0.522E+01
DAV:   4    -0.270084439182E+03   -0.25508E+01   -0.25204E+01  7296   0.868E+00
DAV:   5    -0.270159275620E+03   -0.74836E-01   -0.74605E-01  7416   0.131E+00    0.201E+01
DAV:   6    -0.265985134259E+03    0.41741E+01   -0.65331E+00  7040   0.358E+00    0.118E+01
DAV:   7    -0.265166136735E+03    0.81900E+00   -0.43036E+00  7304   0.298E+00    0.245E+00
DAV:   8    -0.265124745038E+03    0.41392E-01   -0.50556E-01  7088   0.109E+00    0.614E-01
DAV:   9    -0.265136516642E+03   -0.11772E-01   -0.35836E-02  6920   0.392E-01    0.232E-01
DAV:  10    -0.265137605058E+03   -0.10884E-02   -0.98441E-04  7600   0.597E-02    0.108E-01
DAV:  11    -0.265138923904E+03   -0.13188E-02   -0.22200E-03  6496   0.875E-02    0.502E-02
DAV:  12    -0.265138930940E+03   -0.70361E-05   -0.31537E-05  7424   0.116E-02    0.225E-02
DAV:  13    -0.265138939993E+03   -0.90523E-05   -0.79523E-05  6920   0.134E-02    0.976E-03
DAV:  14    -0.265138939392E+03    0.60068E-06   -0.41329E-06  5984   0.392E-03
 Linear response reoptimize wavefunctions to high precision
DAV:   1    -0.265138939919E+03   -0.52736E-06   -0.21894E-06  7216   0.197E-03
DAV:   2    -0.265138939929E+03   -0.93423E-08   -0.89638E-08  6096   0.554E-04
DAV:   3    -0.265138939928E+03    0.22010E-09   -0.17185E-09  3752   0.809E-05
 Linear response G [H, r] |phi>, progress :
  Direction:   1
       N       E                     dE             d eps       ncg     rms
RMM:   1    -0.126648318595E+04   -0.12665E+04    0.18382E+03 14181   0.839E+01
RMM:   2    -0.109879498832E+04    0.16769E+03   -0.20382E+02  9782   0.227E+01
RMM:   3    -0.110109738544E+04   -0.23024E+01   -0.99338E+00 10084   0.379E+00
RMM:   4    -0.110121990277E+04   -0.12252E+00   -0.30385E-01 10483   0.670E-01
RMM:   5    -0.110122307205E+04   -0.31693E-02   -0.20200E-02 10496   0.143E-01
RMM:   6    -0.110122316154E+04   -0.89483E-04   -0.34424E-03 11015   0.378E-02
RMM:   7    -0.110122313833E+04    0.23205E-04   -0.22146E-03 11461   0.182E-02
RMM:   8    -0.110122313728E+04    0.10555E-05   -0.19319E-03 12251   0.149E-02
RMM:   9    -0.110122312014E+04    0.17132E-04   -0.19816E-03 12400   0.145E-02
RMM:  10    -0.110122313539E+04   -0.15243E-04   -0.21533E-03 12672   0.144E-02
RMM:  11    -0.110122311943E+04    0.15958E-04   -0.18265E-03 12917   0.144E-02
 Linear response G [H, r] |phi>, progress :
  Direction:   2
       N       E                     dE             d eps       ncg     rms
RMM:   1    -0.126064141162E+04   -0.12606E+04    0.17830E+03 14288   0.837E+01
RMM:   2    -0.109950346184E+04    0.16114E+03   -0.21794E+02  9760   0.227E+01
RMM:   3    -0.110076995445E+04   -0.12665E+01   -0.15200E+01 10082   0.377E+00
RMM:   4    -0.110073835069E+04    0.31604E-01   -0.43174E+00 10493   0.661E-01
RMM:   5    -0.110071943381E+04    0.18917E-01   -0.38184E+00 10496   0.143E-01
RMM:   6    -0.110062363037E+04    0.95803E-01   -0.28561E+00 11119   0.389E-02
RMM:   7    -0.110064250734E+04   -0.18877E-01   -0.30353E+00 11660   0.192E-02
RMM:   8    -0.110065677849E+04   -0.14271E-01   -0.31776E+00 12428   0.159E-02
RMM:   9    -0.110064522343E+04    0.11555E-01   -0.30619E+00 12603   0.154E-02
RMM:  10    -0.110063680611E+04    0.84173E-02   -0.29781E+00 12870   0.154E-02
RMM:  11    -0.110063868711E+04   -0.18810E-02   -0.29973E+00 13154   0.154E-02
 Linear response G [H, r] |phi>, progress :
  Direction:   3
       N       E                     dE             d eps       ncg     rms
RMM:   1    -0.138076270865E+04   -0.13808E+04    0.14319E+03 14629   0.859E+01
RMM:   2    -0.110492974675E+04    0.27583E+03   -0.24900E+02  9789   0.241E+01
RMM:   3    -0.110638208433E+04   -0.14523E+01   -0.16445E+01 10083   0.400E+00
RMM:   4    -0.110638195209E+04    0.13224E-03   -0.43405E+00 10530   0.698E-01
RMM:   5    -0.110636402824E+04    0.17924E-01   -0.38327E+00 10506   0.151E-01
RMM:   6    -0.110626739514E+04    0.96633E-01   -0.28607E+00 11042   0.412E-02
RMM:   7    -0.110628747169E+04   -0.20077E-01   -0.30435E+00 11668   0.208E-02
RMM:   8    -0.110629980495E+04   -0.12333E-01   -0.31664E+00 12402   0.174E-02
RMM:   9    -0.110629069047E+04    0.91145E-02   -0.30757E+00 12531   0.170E-02
RMM:  10    -0.110628128183E+04    0.94086E-02   -0.29816E+00 12820   0.169E-02
RMM:  11    -0.110628441250E+04   -0.31307E-02   -0.30118E+00 13084   0.169E-02
 Linear response to external field, progress :
  Direction:   1
       N       E                     dE             d eps       ncg     rms          rms(c)
RMM:   1    -0.108299723191E+03   -0.10830E+03   -0.80701E+02 15505   0.670E+00
RMM:   2    -0.253971922635E+03   -0.14567E+03   -0.98612E+00 14803   0.148E+00    0.121E+01
RMM:   3    -0.250806212059E+03    0.31657E+01   -0.10939E+00 14704   0.166E+00    0.710E+00
RMM:   4    -0.242691184949E+03    0.81150E+01   -0.16767E+00 14209   0.225E+00    0.778E-01
RMM:   5    -0.241971095518E+03    0.72009E+00   -0.66969E-02 15019   0.462E-01    0.138E-01
RMM:   6    -0.241909688127E+03    0.61407E-01   -0.13872E-03 15391   0.916E-02    0.764E-02
RMM:   7    -0.241842017188E+03    0.67671E-01    0.25890E-03 15021   0.654E-02    0.250E-02
RMM:   8    -0.241827722019E+03    0.14295E-01    0.65028E-04 15616   0.114E-02    0.706E-03
RMM:   9    -0.241833342698E+03   -0.56207E-02    0.22181E-04 15814   0.676E-03    0.148E-03
RMM:  10    -0.241832815927E+03    0.52677E-03    0.12949E-04 16164   0.205E-03    0.425E-04
RMM:  11    -0.241832761820E+03    0.54107E-04   -0.39614E-05 15672   0.182E-03    0.828E-05
RMM:  12    -0.241832776513E+03   -0.14693E-04   -0.92638E-05 14084   0.168E-03    0.321E-05
RMM:  13    -0.241832760713E+03    0.15800E-04   -0.42131E-05 14177   0.168E-03    0.635E-06
 change of polarisation eV/A/(eV/A) component  1 :   503.295    -8.466   -12.700
 dielectric tensor                  component  1 :    60.189    -0.996    -1.494
 Linear response to external field, progress :
  Direction:   2
       N       E                     dE             d eps       ncg     rms          rms(c)
RMM:   1    -0.211527185360E+03   -0.21153E+03   -0.17336E+03 22617   0.681E+00
RMM:   2    -0.176460947601E+04   -0.15531E+04   -0.34071E+01 21416   0.154E+00    0.200E+01
RMM:   3    -0.175638638026E+04    0.82231E+01    0.17269E-01 21130   0.250E+00    0.115E+01
RMM:   4    -0.173940220787E+04    0.16984E+02   -0.28794E+00 20129   0.329E+00    0.101E+00
RMM:   5    -0.173805629238E+04    0.13459E+01   -0.28209E-01 21960   0.782E-01    0.305E-01
RMM:   6    -0.173744835315E+04    0.60794E+00   -0.17596E-02 20373   0.136E-01    0.157E-01
RMM:   7    -0.173733789969E+04    0.11045E+00   -0.42274E-03 21749   0.965E-02    0.207E-02
RMM:   8    -0.173729997680E+04    0.37923E-01   -0.32359E-03 22883   0.152E-02    0.108E-02
RMM:   9    -0.173730933885E+04   -0.93620E-02   -0.59633E-04 22982   0.898E-03    0.127E-03
RMM:  10    -0.173730799303E+04    0.13458E-02    0.77127E-06 24028   0.262E-03    0.686E-04
RMM:  11    -0.173730840467E+04   -0.41164E-03   -0.55412E-05 24148   0.238E-03    0.100E-04
RMM:  12    -0.173730836997E+04    0.34708E-04   -0.10903E-04 23979   0.217E-03    0.566E-05
RMM:  13    -0.173730838888E+04   -0.18915E-04   -0.12374E-04 24248   0.216E-03    0.153E-05
RMM:  14    -0.173730840521E+04   -0.16328E-04   -0.42642E-05 24824   0.216E-03    0.104E-05
RMM:  15    -0.173730840642E+04   -0.12128E-05   -0.12893E-04 25331   0.216E-03    0.122E-06
 change of polarisation eV/A/(eV/A) component  2 :    -4.496  3517.147   -13.464
 dielectric tensor                  component  2 :    -0.529   414.626    -1.583
 Linear response to external field, progress :
  Direction:   3
       N       E                     dE             d eps       ncg     rms          rms(c)
RMM:   1    -0.211528313097E+03   -0.21153E+03   -0.17336E+03 22619   0.681E+00
RMM:   2    -0.176460983003E+04   -0.15531E+04   -0.34070E+01 21415   0.154E+00    0.200E+01
RMM:   3    -0.175638687630E+04    0.82230E+01    0.17253E-01 21129   0.250E+00    0.115E+01
RMM:   4    -0.173940271375E+04    0.16984E+02   -0.28799E+00 20135   0.329E+00    0.101E+00
RMM:   5    -0.173805664329E+04    0.13461E+01   -0.28193E-01 21963   0.782E-01    0.305E-01
RMM:   6    -0.173744843255E+04    0.60821E+00   -0.16035E-02 20369   0.136E-01    0.157E-01
RMM:   7    -0.173733784175E+04    0.11059E+00   -0.26818E-03 21748   0.965E-02    0.207E-02
RMM:   8    -0.173730016148E+04    0.37680E-01   -0.82573E-04 22880   0.152E-02    0.108E-02
RMM:   9    -0.173730965743E+04   -0.94959E-02   -0.32932E-04 23005   0.898E-03    0.127E-03
RMM:  10    -0.173730834777E+04    0.13097E-02   -0.40349E-05 24025   0.262E-03    0.686E-04
RMM:  11    -0.173730876407E+04   -0.41631E-03   -0.11945E-04 24141   0.238E-03    0.999E-05
RMM:  12    -0.173730871595E+04    0.48120E-04   -0.63558E-05 23980   0.216E-03    0.565E-05
RMM:  13    -0.173730874362E+04   -0.27668E-04   -0.10398E-04 24276   0.215E-03    0.152E-05
RMM:  14    -0.173730875773E+04   -0.14109E-04   -0.14148E-04 24814   0.215E-03    0.103E-05
RMM:  15    -0.173730875538E+04    0.23434E-05   -0.82066E-05 25346   0.215E-03    0.122E-06
 change of polarisation eV/A/(eV/A) component  3 :   -11.601    -3.700  3517.148
 dielectric tensor                  component  3 :    -1.364    -0.435   414.626
 Born effective charges drift removed
   1 F= -.26513894E+03 E0= -.26513894E+03  d E =-.265139E+03
 curvature:   0.00 expect dE= 0.000E+00 dE for cont linesearch  0.000E+00
 trial: gam= 0.00000 g(F)=  0.531E-58 g(S)=  0.000E+00 ort = 0.000E+00 (trialstep = 0.100E+01)
 search vector abs. value=  0.100E-09
 reached required accuracy - stopping structural energy minimisation
 writing wavefunctions
 optical routines
 imaginary and real dielectric function
 recalculating local potential from charge density
 direction            1
 direction            2
 direction            3
