<?xml version="1.0" encoding="ISO-8859-1"?>
<modeling>
 <generator>
  <i name="program" type="string">vasp </i>
  <i name="version" type="string">6.4.3  </i>
  <i name="subversion" type="string">19Mar24 (build Aug 29 2024 15:27:20) complex                          parallel </i>
  <i name="platform" type="string">LinuxIFC </i>
  <i name="date" type="string">2025 03 24 </i>
  <i name="time" type="string">12:04:51 </i>
 </generator>
 <incar>
  <i type="string" name="SYSTEM">GaAs</i>
  <i type="string" name="PREC">Normal</i>
  <i type="int" name="IBRION">     2</i>
  <i type="int" name="NFREE">     2</i>
  <i type="int" name="NSW">   100</i>
  <i type="int" name="ISIF">     2</i>
  <i name="ENCUT">    400.00000000</i>
  <i name="POTIM">      0.10000000</i>
  <i type="int" name="ISMEAR">    -5</i>
  <i name="SIGMA">      0.10000000</i>
  <i type="logical" name="LOPTICS"> T  </i>
  <i type="logical" name="LEPSILON"> T  </i>
 </incar>
 <primitive_cell>
  <structure name="primitive_cell" >
   <crystal>
    <varray name="basis" >
     <v>       2.91772121       0.00000000       2.87053337 </v>
     <v>       2.91772121       0.00000000      -2.87053337 </v>
     <v>      -2.91772121       2.87053337       0.00000000 </v>
    </varray>
    <i name="volume">     48.08382279 </i>
    <varray name="rec_basis" >
     <v>       0.17136661       0.17418366       0.17418366 </v>
     <v>       0.17136661       0.17418366      -0.17418366 </v>
     <v>       0.00000000       0.34836731       0.00000000 </v>
    </varray>
   </crystal>
   <varray name="positions" >
    <v>       0.00000000       0.00000000       0.00000000 </v>
    <v>       0.75000000       0.25000000       0.50000000 </v>
   </varray>
  </structure>
  <varray name="primitive_index" >
   <v type="int" >        1 </v>
   <v type="int" >       33 </v>
  </varray>
 </primitive_cell>
 <kpoints>
  <generation param="Gamma">
   <v type="int" name="divisions">       5        5        5 </v>
   <v name="usershift">      0.00000000       0.00000000       0.00000000 </v>
   <v name="genvec1">      0.20000000       0.00000000       0.00000000 </v>
   <v name="genvec2">      0.00000000       0.20000000       0.00000000 </v>
   <v name="genvec3">      0.00000000       0.00000000       0.20000000 </v>
   <v name="shift">      0.00000000       0.00000000       0.00000000 </v>
  </generation>
  <varray name="kpointlist" >
   <v>       0.00000000       0.00000000       0.00000000 </v>
   <v>       0.20000000       0.00000000       0.00000000 </v>
   <v>       0.40000000       0.00000000       0.00000000 </v>
   <v>       0.00000000       0.20000000       0.00000000 </v>
   <v>       0.20000000       0.20000000       0.00000000 </v>
   <v>       0.40000000       0.20000000       0.00000000 </v>
   <v>       0.00000000       0.40000000       0.00000000 </v>
   <v>       0.20000000       0.40000000       0.00000000 </v>
   <v>       0.40000000       0.40000000       0.00000000 </v>
   <v>       0.00000000       0.20000000       0.20000000 </v>
   <v>       0.20000000       0.20000000       0.20000000 </v>
   <v>       0.40000000       0.20000000       0.20000000 </v>
   <v>       0.00000000       0.40000000       0.20000000 </v>
   <v>       0.20000000       0.40000000       0.20000000 </v>
   <v>       0.40000000       0.40000000       0.20000000 </v>
   <v>       0.00000000       0.40000000       0.40000000 </v>
   <v>       0.20000000       0.40000000       0.40000000 </v>
   <v>       0.40000000       0.40000000       0.40000000 </v>
  </varray>
  <varray name="weights" >
   <v>       0.00800000 </v>
   <v>       0.01600000 </v>
   <v>       0.01600000 </v>
   <v>       0.03200000 </v>
   <v>       0.06400000 </v>
   <v>       0.06400000 </v>
   <v>       0.03200000 </v>
   <v>       0.06400000 </v>
   <v>       0.06400000 </v>
   <v>       0.03200000 </v>
   <v>       0.06400000 </v>
   <v>       0.06400000 </v>
   <v>       0.06400000 </v>
   <v>       0.12800000 </v>
   <v>       0.12800000 </v>
   <v>       0.03200000 </v>
   <v>       0.06400000 </v>
   <v>       0.06400000 </v>
  </varray>
  <varray name="tetrahedronlist"  type="int" >
   <v type="int" >        4       11       12       14       15 </v>
   <v type="int" >        4       11       14       14       15 </v>
   <v type="int" >        8       14       14       15       17 </v>
   <v type="int" >        4       12       14       15       15 </v>
   <v type="int" >        8       14       15       15       18 </v>
   <v type="int" >        4       14       15       17       18 </v>
   <v type="int" >        2       12       12       15       15 </v>
   <v type="int" >        4       12       15       15       15 </v>
   <v type="int" >       12       15       15       15       18 </v>
   <v type="int" >       10       15       15       18       18 </v>
   <v type="int" >        4       10       11       13       14 </v>
   <v type="int" >        4       11       13       14       14 </v>
   <v type="int" >        8       13       14       14       17 </v>
   <v type="int" >        4       10       13       13       14 </v>
   <v type="int" >        8       13       13       14       16 </v>
   <v type="int" >        4       13       14       16       17 </v>
   <v type="int" >        4       14       15       15       17 </v>
   <v type="int" >        4       14       15       17       17 </v>
   <v type="int" >        4       15       15       17       18 </v>
   <v type="int" >        4       15       17       18       18 </v>
   <v type="int" >        4       15       17       17       18 </v>
   <v type="int" >        8       15       18       18       18 </v>
   <v type="int" >        4       14       14       15       18 </v>
   <v type="int" >        4       14       15       18       18 </v>
   <v type="int" >        4       14       14       17       18 </v>
   <v type="int" >        4       14       17       17       18 </v>
   <v type="int" >        4       14       17       18       18 </v>
   <v type="int" >        4       13       13       14       17 </v>
   <v type="int" >        4       13       14       17       17 </v>
   <v type="int" >        4       13       13       16       17 </v>
   <v type="int" >        4       13       16       16       17 </v>
   <v type="int" >        4       13       16       17       17 </v>
   <v type="int" >        4       13       14       14       16 </v>
   <v type="int" >        4       13       14       16       16 </v>
   <v type="int" >        4       14       14       16       17 </v>
   <v type="int" >        4       14       16       17       17 </v>
   <v type="int" >        4       14       16       16       17 </v>
   <v type="int" >        4       12       14       15       17 </v>
   <v type="int" >        4       11       12       14       17 </v>
   <v type="int" >        4       12       15       17       18 </v>
   <v type="int" >        4       12       15       15       18 </v>
   <v type="int" >        4       12       12       15       18 </v>
   <v type="int" >        4       12       15       18       18 </v>
   <v type="int" >        4       11       14       15       18 </v>
   <v type="int" >        4       11       12       15       18 </v>
   <v type="int" >        4       11       14       17       18 </v>
   <v type="int" >        4       10       13       14       17 </v>
   <v type="int" >        4       10       11       14       17 </v>
   <v type="int" >        4       10       13       16       17 </v>
   <v type="int" >        4       11       13       14       16 </v>
   <v type="int" >        4       10       11       13       16 </v>
   <v type="int" >        4       11       14       16       17 </v>
   <v type="int" >        4        6       11       12       14 </v>
   <v type="int" >        4        5        6       11       14 </v>
   <v type="int" >        4        5        6        8       14 </v>
   <v type="int" >        4        6       12       14       15 </v>
   <v type="int" >        4        6        9       14       15 </v>
   <v type="int" >        4        6        8        9       14 </v>
   <v type="int" >        4        6       12       12       15 </v>
   <v type="int" >        4        6        6       12       15 </v>
   <v type="int" >        4        6        6        9       15 </v>
   <v type="int" >        4        6       12       15       15 </v>
   <v type="int" >        4        6        9       15       15 </v>
   <v type="int" >        4        6        9        9       15 </v>
   <v type="int" >        4        5       11       12       15 </v>
   <v type="int" >        4        5        6       12       15 </v>
   <v type="int" >        4        5        6        9       15 </v>
   <v type="int" >        4        5       11       14       15 </v>
   <v type="int" >        4        5        8       14       15 </v>
   <v type="int" >        4        5        8        9       15 </v>
   <v type="int" >        4        4       10       11       14 </v>
   <v type="int" >        4        4        5       11       14 </v>
   <v type="int" >        4        4        5        8       14 </v>
   <v type="int" >        4        4       10       13       14 </v>
   <v type="int" >        4        4        7       13       14 </v>
   <v type="int" >        4        4        7        8       14 </v>
   <v type="int" >        4        5       10       11       13 </v>
   <v type="int" >        4        4        5       10       13 </v>
   <v type="int" >        4        4        5        7       13 </v>
   <v type="int" >        4        5       11       13       14 </v>
   <v type="int" >        4        5        8       13       14 </v>
   <v type="int" >        4        5        7        8       13 </v>
   <v type="int" >        4        5        6        8       12 </v>
   <v type="int" >        4        5        8       11       12 </v>
   <v type="int" >        4        8       11       12       14 </v>
   <v type="int" >        4        6        8        9       12 </v>
   <v type="int" >        4        8        9       12       15 </v>
   <v type="int" >        4        8       12       14       15 </v>
   <v type="int" >        4        6        6        9       12 </v>
   <v type="int" >        4        6        9       12       12 </v>
   <v type="int" >        4        9       12       12       15 </v>
   <v type="int" >        4        6        9        9       12 </v>
   <v type="int" >        4        9        9       12       15 </v>
   <v type="int" >        4        9       12       15       15 </v>
   <v type="int" >        4        5        6        9       11 </v>
   <v type="int" >        4        6        9       11       12 </v>
   <v type="int" >        4        9       11       12       15 </v>
   <v type="int" >        4        5        8        9       11 </v>
   <v type="int" >        4        8        9       11       14 </v>
   <v type="int" >        4        9       11       14       15 </v>
   <v type="int" >        4        4        5        8       10 </v>
   <v type="int" >        4        5        8       10       11 </v>
   <v type="int" >        4        8       10       11       14 </v>
   <v type="int" >        4        4        7        8       10 </v>
   <v type="int" >        4        7        8       10       13 </v>
   <v type="int" >        4        8       10       13       14 </v>
   <v type="int" >        4        4        5        7       11 </v>
   <v type="int" >        4        4        7       10       11 </v>
   <v type="int" >        4        7       10       11       13 </v>
   <v type="int" >        4        5        7        8       11 </v>
   <v type="int" >        4        7        8       11       14 </v>
   <v type="int" >        4        7       11       13       14 </v>
   <v type="int" >        4       17       17       18       18 </v>
   <v type="int" >        4       17       17       17       18 </v>
   <v type="int" >        4       17       18       18       18 </v>
   <v type="int" >        6       18       18       18       18 </v>
   <v type="int" >        4       16       16       17       17 </v>
   <v type="int" >        4       16       17       17       17 </v>
   <v type="int" >        4       16       16       16       17 </v>
   <v type="int" >        4        9       14       14       15 </v>
   <v type="int" >        4        8        9       14       14 </v>
   <v type="int" >        4        8        8        9       14 </v>
   <v type="int" >        4        9       14       15       15 </v>
   <v type="int" >        4        9        9       14       15 </v>
   <v type="int" >        4        8        9        9       14 </v>
   <v type="int" >        8        9       15       15       15 </v>
   <v type="int" >        8        9        9       15       15 </v>
   <v type="int" >        8        9        9        9       15 </v>
   <v type="int" >        4        8       14       15       15 </v>
   <v type="int" >        4        8        9       15       15 </v>
   <v type="int" >        4        8        9        9       15 </v>
   <v type="int" >        4        8       14       14       15 </v>
   <v type="int" >        4        8        8       14       15 </v>
   <v type="int" >        4        8        8        9       15 </v>
   <v type="int" >        4        7       13       14       14 </v>
   <v type="int" >        4        7        8       14       14 </v>
   <v type="int" >        4        7        8        8       14 </v>
   <v type="int" >        4        7       13       13       14 </v>
   <v type="int" >        4        7        7       13       14 </v>
   <v type="int" >        4        7        7        8       14 </v>
   <v type="int" >        4        8       13       13       14 </v>
   <v type="int" >        4        7        8       13       13 </v>
   <v type="int" >        4        7        7        8       13 </v>
   <v type="int" >        4        8       13       14       14 </v>
   <v type="int" >        4        8        8       13       14 </v>
   <v type="int" >        4        7        8        8       13 </v>
   <v type="int" >        4        5        6       11       12 </v>
   <v type="int" >        4        5        5        6       11 </v>
   <v type="int" >        4        2        5        5        6 </v>
   <v type="int" >        4        5        6        6       12 </v>
   <v type="int" >        4        3        5        6        6 </v>
   <v type="int" >        4        2        3        5        6 </v>
   <v type="int" >        2        6        6       12       12 </v>
   <v type="int" >        4        6        6        6       12 </v>
   <v type="int" >        4        3        6        6        6 </v>
   <v type="int" >        2        3        3        6        6 </v>
   <v type="int" >        4        4        5       10       11 </v>
   <v type="int" >        4        4        5        5       11 </v>
   <v type="int" >        4        2        4        5        5 </v>
   <v type="int" >        4        4        4        5       10 </v>
   <v type="int" >        4        1        4        4        5 </v>
   <v type="int" >        4        1        2        4        5 </v>
   <v type="int" >        4        2        5        6       12 </v>
   <v type="int" >        4        2        5       11       12 </v>
   <v type="int" >        4        2        3        6       12 </v>
   <v type="int" >        4        3        6        6       12 </v>
   <v type="int" >        4        3        6       12       12 </v>
   <v type="int" >        4        3        3        6       12 </v>
   <v type="int" >        4        3        5        6       11 </v>
   <v type="int" >        4        3        6       11       12 </v>
   <v type="int" >        4        2        3        5       11 </v>
   <v type="int" >        4        2        4        5       10 </v>
   <v type="int" >        4        2        5       10       11 </v>
   <v type="int" >        4        1        2        4       10 </v>
   <v type="int" >        4        1        4        5       11 </v>
   <v type="int" >        4        1        4       10       11 </v>
   <v type="int" >        4        1        2        5       11 </v>
  </varray>
  <i name="volumeweight">      0.00133333 </i>
 </kpoints>
 <parameters>
  <separator name="general" >
   <i type="string" name="SYSTEM">GaAs</i>
   <i type="logical" name="LCOMPAT"> F  </i>
  </separator>
  <separator name="electronic" >
   <i type="string" name="PREC">normal</i>
   <i name="ENMAX">    400.00000000</i>
   <i name="ENAUG">    462.75800000</i>
   <i name="EDIFF">      0.00000100</i>
   <i type="int" name="IALGO">    38</i>
   <i type="int" name="IWAVPR">    11</i>
   <i type="int" name="NBANDS">   168</i>
   <i type="int" name="NBANDSLOW">    -1</i>
   <i type="int" name="NBANDSHIGH">    -1</i>
   <i name="NELECT">    256.00000000</i>
   <i type="int" name="TURBO">     0</i>
   <i type="int" name="IRESTART">     0</i>
   <i type="int" name="NREBOOT">     0</i>
   <i type="int" name="NMIN">     0</i>
   <i name="EREF">      0.00000000</i>
   <separator name="electronic smearing" >
    <i type="int" name="ISMEAR">    -5</i>
    <i name="SIGMA">      0.10000000</i>
    <i name="KSPACING">      0.50000000</i>
    <i type="logical" name="KGAMMA"> T  </i>
    <i type="logical" name="KBLOWUP"> T  </i>
   </separator>
   <separator name="electronic projectors" >
    <i type="logical" name="LREAL"> F  </i>
    <v name="ROPT">      0.00000000      0.00000000</v>
    <i type="int" name="LMAXPAW">  -100</i>
    <i type="int" name="LMAXMIX">     2</i>
    <i type="logical" name="NLSPLINE"> F  </i>
   </separator>
   <separator name="electronic startup" >
    <i type="int" name="ISTART">     0</i>
    <i type="int" name="ICHARG">     2</i>
    <i type="int" name="INIWAV">     1</i>
   </separator>
   <separator name="electronic spin" >
    <i type="int" name="ISPIN">     1</i>
    <i type="logical" name="LNONCOLLINEAR"> F  </i>
    <v name="MAGMOM">      1.00000000      1.00000000      1.00000000      1.00000000      1.00000000      1.00000000      1.00000000      1.00000000      1.00000000      1.00000000      1.00000000      1.00000000      1.00000000      1.00000000      1.00000000      1.00000000      1.00000000      1.00000000      1.00000000      1.00000000
      1.00000000      1.00000000      1.00000000      1.00000000      1.00000000      1.00000000      1.00000000      1.00000000      1.00000000      1.00000000      1.00000000      1.00000000      1.00000000      1.00000000      1.00000000      1.00000000      1.00000000      1.00000000      1.00000000      1.00000000
      1.00000000      1.00000000      1.00000000      1.00000000      1.00000000      1.00000000      1.00000000      1.00000000      1.00000000      1.00000000      1.00000000      1.00000000      1.00000000      1.00000000      1.00000000      1.00000000      1.00000000      1.00000000      1.00000000      1.00000000
      1.00000000      1.00000000      1.00000000      1.00000000</v>
    <i name="NUPDOWN">     -1.00000000</i>
    <i type="logical" name="LSORBIT"> F  </i>
    <v name="SAXIS">      0.00000000      0.00000000      1.00000000</v>
    <i type="logical" name="LSPIRAL"> F  </i>
    <v name="QSPIRAL">      0.00000000      0.00000000      0.00000000</v>
    <i type="logical" name="LZEROZ"> F  </i>
   </separator>
   <separator name="electronic exchange-correlation" >
    <i type="logical" name="LASPH"> F  </i>
   </separator>
   <separator name="electronic convergence" >
    <i type="int" name="NELM">    60</i>
    <i type="int" name="NELMDL">    -5</i>
    <i type="int" name="NELMIN">     2</i>
    <i name="ENINI">    400.00000000</i>
    <separator name="electronic convergence detail" >
     <i type="logical" name="LDIAG"> T  </i>
     <i type="logical" name="LSUBROT"> F  </i>
     <i name="WEIMIN">      0.00100000</i>
     <i name="EBREAK">      0.00000000</i>
     <i name="DEPER">      0.30000000</i>
     <i type="int" name="NRMM">     4</i>
     <i name="TIME">      0.40000000</i>
    </separator>
   </separator>
   <separator name="electronic mixer" >
    <i name="AMIX">      0.40000000</i>
    <i name="BMIX">      1.00000000</i>
    <i name="AMIN">      0.10000000</i>
    <i name="AMIX_MAG">      1.60000000</i>
    <i name="BMIX_MAG">      1.00000000</i>
    <separator name="electronic mixer details" >
     <i type="int" name="IMIX">     4</i>
     <i type="logical" name="MIXFIRST"> F  </i>
     <i type="int" name="MAXMIX">   -45</i>
     <i name="WC">    100.00000000</i>
     <i type="int" name="INIMIX">     1</i>
     <i type="int" name="MIXPRE">     1</i>
     <i type="int" name="MREMOVE">     5</i>
    </separator>
   </separator>
   <separator name="electronic dipolcorrection" >
    <i type="logical" name="LDIPOL"> F  </i>
    <i type="logical" name="LMONO"> F  </i>
    <i type="int" name="IDIPOL">     0</i>
    <i name="EPSILON">      1.00000000</i>
    <v name="DIPOL">   -100.00000000   -100.00000000   -100.00000000</v>
    <i name="EFIELD">      0.00000000</i>
    <i type="logical" name="LVACPOTAV"> F  </i>
   </separator>
  </separator>
  <separator name="grids" >
   <i type="int" name="NGX">    60</i>
   <i type="int" name="NGY">    56</i>
   <i type="int" name="NGZ">    56</i>
   <i type="int" name="NGXF">   120</i>
   <i type="int" name="NGYF">   112</i>
   <i type="int" name="NGZF">   112</i>
   <i type="logical" name="ADDGRID"> F  </i>
  </separator>
  <separator name="ionic" >
   <i type="int" name="NSW">   100</i>
   <i type="int" name="IBRION">     2</i>
   <i type="int" name="MDALGO">     0</i>
   <i type="int" name="ISIF">     2</i>
   <i name="PSTRESS">      0.00000000</i>
   <i name="EDIFFG">      0.00100000</i>
   <i type="int" name="NFREE">     2</i>
   <i name="POTIM">      0.10000000</i>
   <i name="SMASS">     -3.00000000</i>
   <i name="SCALEE">      1.00000000</i>
  </separator>
  <separator name="ionic md" >
   <i name="TEBEG">      0.00010000</i>
   <i name="TEEND">      0.00010000</i>
   <i type="int" name="NBLOCK">     1</i>
   <i type="int" name="KBLOCK">   100</i>
   <i type="int" name="NPACO">   256</i>
   <i name="APACO">     10.00000000</i>
  </separator>
  <separator name="symmetry" >
   <i type="int" name="ISYM">     2</i>
   <i name="SYMPREC">      0.00001000</i>
  </separator>
  <separator name="dos" >
   <i type="int" name="LORBIT">     0</i>
   <v name="RWIGS">     -1.00000000     -1.00000000</v>
   <i type="int" name="NEDOS">   301</i>
   <i name="EMIN">     10.00000000</i>
   <i name="EMAX">    -10.00000000</i>
   <i name="EFERMI">      0.00000000</i>
  </separator>
  <separator name="writing" >
   <i type="int" name="NWRITE">     2</i>
   <i type="logical" name="LWAVE"> T  </i>
   <i type="logical" name="LDOWNSAMPLE"> F  </i>
   <i type="logical" name="LCHARG"> T  </i>
   <i type="logical" name="LPARD"> F  </i>
   <i type="logical" name="LVTOT"> F  </i>
   <i type="logical" name="LVHAR"> F  </i>
   <i type="logical" name="LELF"> F  </i>
   <i type="logical" name="LOPTICS"> T  </i>
   <v name="STM">      0.00000000      0.00000000      0.00000000      0.00000000      0.00000000      0.00000000      0.00000000</v>
  </separator>
  <separator name="performance" >
   <i type="int" name="NPAR">     8</i>
   <i type="int" name="NSIM">     4</i>
   <i type="int" name="NBLK">    -1</i>
   <i type="logical" name="LPLANE"> T  </i>
   <i type="logical" name="LSCALAPACK"> T  </i>
   <i type="logical" name="LSCAAWARE"> F  </i>
   <i type="logical" name="LSCALU"> F  </i>
   <i type="logical" name="LASYNC"> F  </i>
   <i type="logical" name="LORBITALREAL"> F  </i>
  </separator>
  <separator name="miscellaneous" >
   <i type="int" name="IDIOT">     3</i>
   <i type="int" name="PHON_NSTRUCT">    -1</i>
   <i type="logical" name="LMUSIC"> F  </i>
   <v name="POMASS">     74.92200000     69.72300000</v>
   <v name="DARWINR">      0.00000000      0.00000000</v>
   <v name="DARWINV">      1.00000000      1.00000000</v>
   <i type="logical" name="LCORR"> T  </i>
  </separator>
  <i type="logical" name="GGA_COMPAT"> T  </i>
  <i type="logical" name="LBERRY"> F  </i>
  <i type="int" name="ICORELEVEL">     0</i>
  <i type="logical" name="LDAU"> F  </i>
  <i type="int" name="I_CONSTRAINED_M">     0</i>
  <separator name="electronic exchange-correlation" >
   <i type="string" name="GGA    ">PE</i>
   <i type="string" name="XC_C">1</i>
   <i type="int" name="VOSKOWN">     0</i>
   <i type="logical" name="LHFCALC"> F  </i>
   <i type="string" name="PRECFOCK"></i>
   <i type="logical" name="LSYMGRAD"> F  </i>
   <i type="logical" name="LHFONE"> F  </i>
   <i type="logical" name="LRHFCALC"> F  </i>
   <i type="logical" name="LTHOMAS"> F  </i>
   <i type="logical" name="LMODELHF"> F  </i>
   <i type="logical" name="LFOCKACE"> F  </i>
   <i name="ENCUT4O">     -1.00000000</i>
   <i type="int" name="EXXOEP">     0</i>
   <i type="int" name="FOURORBIT">     0</i>
   <i name="AEXX">      0.00000000</i>
   <i name="HFALPHA">      0.00000000</i>
   <i name="MCALPHA">      0.00000000</i>
   <i name="ALDAX">      1.00000000</i>
   <i name="AGGAX">      1.00000000</i>
   <i name="AMGGAX">      1.00000000</i>
   <i name="ALDAC">      1.00000000</i>
   <i name="AGGAC">      1.00000000</i>
   <i name="AMGGAC">      1.00000000</i>
   <i type="int" name="NKREDX">     1</i>
   <i type="int" name="NKREDY">     1</i>
   <i type="int" name="NKREDZ">     1</i>
   <i type="logical" name="SHIFTRED"> F  </i>
   <i type="logical" name="ODDONLY"> F  </i>
   <i type="logical" name="EVENONLY"> F  </i>
   <i type="int" name="LMAXFOCK">     0</i>
   <i type="int" name="NMAXFOCKAE">     0</i>
   <i type="logical" name="LFOCKAEDFT"> F  </i>
   <i name="HFSCREEN">      0.00000000</i>
   <i name="HFSCREENC">      0.00000000</i>
   <i type="int" name="NBANDSGWLOW">     0</i>
  </separator>
  <separator name="vdW DFT" >
   <i type="logical" name="LUSE_VDW"> F  </i>
   <i type="int" name="IVDW_NL">    -1</i>
   <i type="logical" name="LSPIN_VDW"> F  </i>
   <i name="ZAB_VDW">     -0.84910000</i>
   <i name="GAMMA_VDW">      1.39626340</i>
   <i name="ALPHA_VDW">      0.00000000</i>
   <i name="PARAM1">      0.12340000</i>
   <i name="PARAM2">      1.00000000</i>
   <i name="BPARAM">      6.30000000</i>
   <i name="CPARAM">      0.00930000</i>
  </separator>
  <separator name="model GW" >
   <i type="int" name="MODEL_GW">     0</i>
   <i name="MODEL_EPS0">     14.42514684</i>
   <i name="MODEL_ALPHA">      1.00000000</i>
  </separator>
  <separator name="linear response parameters" >
   <i type="logical" name="LEPSILON"> T  </i>
   <i type="logical" name="LRPA"> F  </i>
   <i type="logical" name="LNABLA"> F  </i>
   <i type="logical" name="LVEL"> F  </i>
   <i name="CSHIFT">      0.10000000</i>
   <i name="OMEGAMAX">     -1.00000000</i>
   <i name="DEG_THRESHOLD">      0.00200000</i>
   <i name="RTIME">     -0.10000000</i>
   <i name="WPLASMAI">      0.00000000</i>
   <v name="DFIELD">      0.00000000      0.00000000      0.00000000</v>
   <v name="WPLASMA">      0.00000000      0.00000000      0.00000000      0.00000000      0.00000000      0.00000000      0.00000000      0.00000000      0.00000000</v>
  </separator>
  <separator name="orbital magnetization" >
   <i type="logical" name="NUCIND"> F  </i>
   <v name="MAGPOS">      0.00000000      0.00000000      0.00000000</v>
   <i type="logical" name="LNICSALL"> T  </i>
   <i type="logical" name="ORBITALMAG"> F  </i>
   <i type="logical" name="LMAGBLOCH"> F  </i>
   <i type="logical" name="LCHIMAG"> F  </i>
   <i type="logical" name="LGAUGE"> T  </i>
   <i type="int" name="MAGATOM">     0</i>
   <v name="MAGDIPOL">      0.00000000      0.00000000      0.00000000</v>
   <v name="AVECCONST">      0.00000000      0.00000000      0.00000000</v>
  </separator>
  <separator name="response functions" >
   <i type="logical" name="LALL_IN_ONE"> F  </i>
   <i type="int" name="IALL_IN_ONE">    -1</i>
   <i type="int" name="NBANDS_WAVE">    -1</i>
   <i type="logical" name="LFINITE_TEMPERATURE"> F  </i>
   <i type="logical" name="LADDER"> F  </i>
   <i type="logical" name="LRPAFORCE"> F  </i>
   <i type="logical" name="LFXC"> F  </i>
   <i type="logical" name="LHARTREE"> T  </i>
   <i type="int" name="IBSE">     0</i>
   <v type="int" name="KPOINT">    -1     0     0     0</v>
   <i type="logical" name="LTCTC"> F  </i>
   <i type="logical" name="LTCTE"> F  </i>
   <i type="logical" name="LTETE"> F  </i>
   <i type="logical" name="LTRIPLET"> F  </i>
   <i type="logical" name="LFXCEPS"> F  </i>
   <i type="logical" name="LFXHEG"> F  </i>
   <i type="int" name="NATURALO">     2</i>
   <i type="logical" name="LHOLEGF"> F  </i>
   <i type="logical" name="L2ORDER"> F  </i>
   <i type="logical" name="LDMP1"> F  </i>
   <i type="logical" name="LMP2LT"> F  </i>
   <i type="logical" name="LSMP2LT"> F  </i>
   <i type="logical" name="LGWLF"> F  </i>
   <i name="ENCUTGW">     -1.60000002</i>
   <i name="ENCUTGWSOFT">     -1.60000002</i>
   <i name="ENCUTLF">     -1.00000000</i>
   <i type="logical" name="ESF_SPLINES"> F  </i>
   <i name="ESF_CONV">      0.01000000</i>
   <i type="int" name="ESF_NINTER">    15</i>
   <i type="int" name="LMAXMP2">    -1</i>
   <i name="SCISSOR">      0.00000000</i>
   <i type="int" name="NOMEGA">     0</i>
   <i type="int" name="NOMEGAR">     0</i>
   <i type="int" name="NBANDSGW">    -1</i>
   <i type="int" name="NBANDSO">    -1</i>
   <i type="int" name="NBANDSV">    -1</i>
   <i type="int" name="NELMGW">     1</i>
   <i type="int" name="NELMHF">     1</i>
   <i type="int" name="DIM">     3</i>
   <i type="int" name="IESPILON">     4</i>
   <i type="int" name="ANTIRES">     0</i>
   <i name="OMEGAMAX">    -30.00000000</i>
   <i name="OMEGAMIN">    -30.00000000</i>
   <i name="OMEGATL">   -200.00000000</i>
   <i type="int" name="OMEGAGRID">     0</i>
   <i name="CSHIFT">     -0.10000000</i>
   <i type="logical" name="LSELFENERGY"> F  </i>
   <i type="logical" name="LSPECTRAL"> F  </i>
   <i type="logical" name="LSPECTRALGW"> F  </i>
   <i type="logical" name="LSINGLES"> F  </i>
   <i type="logical" name="LFERMIGW"> F  </i>
   <i type="logical" name="ODDONLYGW"> F  </i>
   <i type="logical" name="EVENONLYGW"> F  </i>
   <i type="int" name="NKREDLFX">     1</i>
   <i type="int" name="NKREDLFY">     1</i>
   <i type="int" name="NKREDLFZ">     1</i>
   <i type="int" name="MAXMEM">  2800</i>
   <i type="int" name="TELESCOPE">     0</i>
   <i type="int" name="NTAUPAR">    -1</i>
   <i type="int" name="NOMEGAPAR">    -1</i>
   <i name="DAMP_NEWTON">      0.80000001</i>
   <i name="LAMBDA">      1.00000000</i>
  </separator>
  <separator name="External order field" >
   <i name="OFIELD_KAPPA">      0.00000000</i>
   <v name="OFIELD_K">      0.00000000      0.00000000      0.00000000</v>
   <i name="OFIELD_Q6_NEAR">      0.00000000</i>
   <i name="OFIELD_Q6_FAR">      0.00000000</i>
   <i name="OFIELD_A">      0.00000000</i>
  </separator>
  <separator name="optional k-points parameters" >
   <i type="int" name="KPOINTS_OPT_MODE">     1</i>
   <i type="logical" name="LKPOINTS_OPT"> F  </i>
  </separator>
 </parameters>
 <atominfo>
  <atoms>      64 </atoms>
  <types>       2 </types>
  <array name="atoms" >
   <dimension dim="1">ion</dimension>
   <field type="string">element</field>
   <field type="int">atomtype</field>
   <set>
    <rc><c>As</c><c>   1</c></rc>
    <rc><c>As</c><c>   1</c></rc>
    <rc><c>As</c><c>   1</c></rc>
    <rc><c>As</c><c>   1</c></rc>
    <rc><c>As</c><c>   1</c></rc>
    <rc><c>As</c><c>   1</c></rc>
    <rc><c>As</c><c>   1</c></rc>
    <rc><c>As</c><c>   1</c></rc>
    <rc><c>As</c><c>   1</c></rc>
    <rc><c>As</c><c>   1</c></rc>
    <rc><c>As</c><c>   1</c></rc>
    <rc><c>As</c><c>   1</c></rc>
    <rc><c>As</c><c>   1</c></rc>
    <rc><c>As</c><c>   1</c></rc>
    <rc><c>As</c><c>   1</c></rc>
    <rc><c>As</c><c>   1</c></rc>
    <rc><c>As</c><c>   1</c></rc>
    <rc><c>As</c><c>   1</c></rc>
    <rc><c>As</c><c>   1</c></rc>
    <rc><c>As</c><c>   1</c></rc>
    <rc><c>As</c><c>   1</c></rc>
    <rc><c>As</c><c>   1</c></rc>
    <rc><c>As</c><c>   1</c></rc>
    <rc><c>As</c><c>   1</c></rc>
    <rc><c>As</c><c>   1</c></rc>
    <rc><c>As</c><c>   1</c></rc>
    <rc><c>As</c><c>   1</c></rc>
    <rc><c>As</c><c>   1</c></rc>
    <rc><c>As</c><c>   1</c></rc>
    <rc><c>As</c><c>   1</c></rc>
    <rc><c>As</c><c>   1</c></rc>
    <rc><c>As</c><c>   1</c></rc>
    <rc><c>Ga</c><c>   2</c></rc>
    <rc><c>Ga</c><c>   2</c></rc>
    <rc><c>Ga</c><c>   2</c></rc>
    <rc><c>Ga</c><c>   2</c></rc>
    <rc><c>Ga</c><c>   2</c></rc>
    <rc><c>Ga</c><c>   2</c></rc>
    <rc><c>Ga</c><c>   2</c></rc>
    <rc><c>Ga</c><c>   2</c></rc>
    <rc><c>Ga</c><c>   2</c></rc>
    <rc><c>Ga</c><c>   2</c></rc>
    <rc><c>Ga</c><c>   2</c></rc>
    <rc><c>Ga</c><c>   2</c></rc>
    <rc><c>Ga</c><c>   2</c></rc>
    <rc><c>Ga</c><c>   2</c></rc>
    <rc><c>Ga</c><c>   2</c></rc>
    <rc><c>Ga</c><c>   2</c></rc>
    <rc><c>Ga</c><c>   2</c></rc>
    <rc><c>Ga</c><c>   2</c></rc>
    <rc><c>Ga</c><c>   2</c></rc>
    <rc><c>Ga</c><c>   2</c></rc>
    <rc><c>Ga</c><c>   2</c></rc>
    <rc><c>Ga</c><c>   2</c></rc>
    <rc><c>Ga</c><c>   2</c></rc>
    <rc><c>Ga</c><c>   2</c></rc>
    <rc><c>Ga</c><c>   2</c></rc>
    <rc><c>Ga</c><c>   2</c></rc>
    <rc><c>Ga</c><c>   2</c></rc>
    <rc><c>Ga</c><c>   2</c></rc>
    <rc><c>Ga</c><c>   2</c></rc>
    <rc><c>Ga</c><c>   2</c></rc>
    <rc><c>Ga</c><c>   2</c></rc>
    <rc><c>Ga</c><c>   2</c></rc>
   </set>
  </array>
  <array name="atomtypes" >
   <dimension dim="1">type</dimension>
   <field type="int">atomspertype</field>
   <field type="string">element</field>
   <field>mass</field>
   <field>valence</field>
   <field type="string">pseudopotential</field>
   <set>
    <rc><c>  32</c><c>As</c><c>     74.92200000</c><c>      5.00000000</c><c>  PAW_PBE As 22Sep2009                  </c></rc>
    <rc><c>  32</c><c>Ga</c><c>     69.72300000</c><c>      3.00000000</c><c>  PAW_PBE Ga 08Apr2002                  </c></rc>
   </set>
  </array>
 </atominfo>
 <structure name="initialpos" >
  <crystal>
   <varray name="basis" >
    <v>      11.67088483       0.00000000       0.00000000 </v>
    <v>       0.00000000      11.48213348       0.00000000 </v>
    <v>       0.00000000       0.00000000      11.48213348 </v>
   </varray>
   <i name="volume">   1538.68232935 </i>
   <varray name="rec_basis" >
    <v>       0.08568331       0.00000000       0.00000000 </v>
    <v>       0.00000000       0.08709183       0.00000000 </v>
    <v>       0.00000000       0.00000000       0.08709183 </v>
   </varray>
  </crystal>
  <varray name="positions" >
   <v>       0.00000000       0.00000000       0.00000000 </v>
   <v>       0.00000000       0.00000000       0.50000000 </v>
   <v>       0.00000000       0.50000000       0.00000000 </v>
   <v>       0.00000000       0.50000000       0.50000000 </v>
   <v>       0.50000000       0.00000000       0.00000000 </v>
   <v>       0.50000000       0.00000000       0.50000000 </v>
   <v>       0.50000000       0.50000000       0.00000000 </v>
   <v>       0.50000000       0.50000000       0.50000000 </v>
   <v>       0.25000000       0.25000000       0.00000000 </v>
   <v>       0.25000000       0.25000000       0.50000000 </v>
   <v>       0.25000000       0.75000000       0.00000000 </v>
   <v>       0.25000000       0.75000000       0.50000000 </v>
   <v>       0.75000000       0.25000000       0.00000000 </v>
   <v>       0.75000000       0.25000000       0.50000000 </v>
   <v>       0.75000000       0.75000000       0.00000000 </v>
   <v>       0.75000000       0.75000000       0.50000000 </v>
   <v>       0.25000000       0.00000000       0.25000000 </v>
   <v>       0.25000000       0.00000000       0.75000000 </v>
   <v>       0.25000000       0.50000000       0.25000000 </v>
   <v>       0.25000000       0.50000000       0.75000000 </v>
   <v>       0.75000000       0.00000000       0.25000000 </v>
   <v>       0.75000000       0.00000000       0.75000000 </v>
   <v>       0.75000000       0.50000000       0.25000000 </v>
   <v>       0.75000000       0.50000000       0.75000000 </v>
   <v>       0.00000000       0.25000000       0.25000000 </v>
   <v>       0.00000000       0.25000000       0.75000000 </v>
   <v>       0.00000000       0.75000000       0.25000000 </v>
   <v>       0.00000000       0.75000000       0.75000000 </v>
   <v>       0.50000000       0.25000000       0.25000000 </v>
   <v>       0.50000000       0.25000000       0.75000000 </v>
   <v>       0.50000000       0.75000000       0.25000000 </v>
   <v>       0.50000000       0.75000000       0.75000000 </v>
   <v>       0.12500000       0.12500000       0.12500000 </v>
   <v>       0.12500000       0.12500000       0.62500000 </v>
   <v>       0.12500000       0.62500000       0.12500000 </v>
   <v>       0.12500000       0.62500000       0.62500000 </v>
   <v>       0.62500000       0.12500000       0.12500000 </v>
   <v>       0.62500000       0.12500000       0.62500000 </v>
   <v>       0.62500000       0.62500000       0.12500000 </v>
   <v>       0.62500000       0.62500000       0.62500000 </v>
   <v>       0.37500000       0.12500000       0.37500000 </v>
   <v>       0.37500000       0.12500000       0.87500000 </v>
   <v>       0.37500000       0.62500000       0.37500000 </v>
   <v>       0.37500000       0.62500000       0.87500000 </v>
   <v>       0.87500000       0.12500000       0.37500000 </v>
   <v>       0.87500000       0.12500000       0.87500000 </v>
   <v>       0.87500000       0.62500000       0.37500000 </v>
   <v>       0.87500000       0.62500000       0.87500000 </v>
   <v>       0.37500000       0.37500000       0.12500000 </v>
   <v>       0.37500000       0.37500000       0.62500000 </v>
   <v>       0.37500000       0.87500000       0.12500000 </v>
   <v>       0.37500000       0.87500000       0.62500000 </v>
   <v>       0.87500000       0.37500000       0.12500000 </v>
   <v>       0.87500000       0.37500000       0.62500000 </v>
   <v>       0.87500000       0.87500000       0.12500000 </v>
   <v>       0.87500000       0.87500000       0.62500000 </v>
   <v>       0.12500000       0.37500000       0.37500000 </v>
   <v>       0.12500000       0.37500000       0.87500000 </v>
   <v>       0.12500000       0.87500000       0.37500000 </v>
   <v>       0.12500000       0.87500000       0.87500000 </v>
   <v>       0.62500000       0.37500000       0.37500000 </v>
   <v>       0.62500000       0.37500000       0.87500000 </v>
   <v>       0.62500000       0.87500000       0.37500000 </v>
   <v>       0.62500000       0.87500000       0.87500000 </v>
  </varray>
 </structure>
 <calculation>
  <scstep>
   <time name="dav">   68.15   69.09</time>
   <time name="total">   68.29   69.23</time>
   <energy>
    <i name="alphaZ">    569.16657709 </i>
    <i name="ewald">  -7182.48405200 </i>
    <i name="hartreedc">   -604.70573747 </i>
    <i name="XCdc">   -996.62597325 </i>
    <i name="pawpsdc">   6692.16565901 </i>
    <i name="pawaedc">  -5247.93935635 </i>
    <i name="eentropy">      0.00000000 </i>
    <i name="bandstr">    377.49527882 </i>
    <i name="atom">   7329.73306348 </i>
    <i name="e_fr_energy">    936.80545932 </i>
    <i name="e_wo_entrp">    936.80545932 </i>
    <i name="e_0_energy">    936.80545932 </i>
   </energy>
  </scstep>
  <scstep>
   <time name="dav">   77.88   78.99</time>
   <time name="total">   77.88   79.00</time>
   <energy>
    <i name="e_fr_energy">   -166.73048195 </i>
    <i name="e_wo_entrp">   -166.73048195 </i>
    <i name="e_0_energy">   -166.73048195 </i>
   </energy>
  </scstep>
  <scstep>
   <time name="dav">   80.00   81.09</time>
   <time name="total">   80.01   81.10</time>
   <energy>
    <i name="e_fr_energy">   -267.53368123 </i>
    <i name="e_wo_entrp">   -267.53368123 </i>
    <i name="e_0_energy">   -267.53368123 </i>
   </energy>
  </scstep>
  <scstep>
   <time name="dav">   78.76   79.82</time>
   <time name="total">   78.77   79.83</time>
   <energy>
    <i name="e_fr_energy">   -270.08443918 </i>
    <i name="e_wo_entrp">   -270.08443918 </i>
    <i name="e_0_energy">   -270.08443918 </i>
   </energy>
  </scstep>
  <scstep>
   <time name="dav">   80.37   81.51</time>
   <time name="total">   81.18   82.32</time>
   <energy>
    <i name="e_fr_energy">   -270.15927562 </i>
    <i name="e_wo_entrp">   -270.15927562 </i>
    <i name="e_0_energy">   -270.15927562 </i>
   </energy>
  </scstep>
  <scstep>
   <time name="dav">   76.92   77.96</time>
   <time name="total">   77.85   78.89</time>
   <energy>
    <i name="e_fr_energy">   -265.98513426 </i>
    <i name="e_wo_entrp">   -265.98513426 </i>
    <i name="e_0_energy">   -265.98513426 </i>
   </energy>
  </scstep>
  <scstep>
   <time name="dav">   78.97   80.12</time>
   <time name="total">   79.90   81.06</time>
   <energy>
    <i name="e_fr_energy">   -265.16613673 </i>
    <i name="e_wo_entrp">   -265.16613673 </i>
    <i name="e_0_energy">   -265.16613673 </i>
   </energy>
  </scstep>
  <scstep>
   <time name="dav">   77.34   78.37</time>
   <time name="total">   78.27   79.30</time>
   <energy>
    <i name="e_fr_energy">   -265.12474504 </i>
    <i name="e_wo_entrp">   -265.12474504 </i>
    <i name="e_0_energy">   -265.12474504 </i>
   </energy>
  </scstep>
  <scstep>
   <time name="dav">   76.06   77.07</time>
   <time name="total">   76.98   78.00</time>
   <energy>
    <i name="e_fr_energy">   -265.13651664 </i>
    <i name="e_wo_entrp">   -265.13651664 </i>
    <i name="e_0_energy">   -265.13651664 </i>
   </energy>
  </scstep>
  <scstep>
   <time name="dav">   81.63   82.83</time>
   <time name="total">   82.56   83.77</time>
   <energy>
    <i name="e_fr_energy">   -265.13760506 </i>
    <i name="e_wo_entrp">   -265.13760506 </i>
    <i name="e_0_energy">   -265.13760506 </i>
   </energy>
  </scstep>
  <scstep>
   <time name="dav">   72.82   73.82</time>
   <time name="total">   73.76   74.76</time>
   <energy>
    <i name="e_fr_energy">   -265.13892390 </i>
    <i name="e_wo_entrp">   -265.13892390 </i>
    <i name="e_0_energy">   -265.13892390 </i>
   </energy>
  </scstep>
  <scstep>
   <time name="dav">   81.33   82.46</time>
   <time name="total">   82.27   83.41</time>
   <energy>
    <i name="e_fr_energy">   -265.13893094 </i>
    <i name="e_wo_entrp">   -265.13893094 </i>
    <i name="e_0_energy">   -265.13893094 </i>
   </energy>
  </scstep>
  <scstep>
   <time name="dav">   76.87   77.92</time>
   <time name="total">   77.80   78.86</time>
   <energy>
    <i name="e_fr_energy">   -265.13893999 </i>
    <i name="e_wo_entrp">   -265.13893999 </i>
    <i name="e_0_energy">   -265.13893999 </i>
   </energy>
  </scstep>
  <scstep>
   <time name="dav">   68.39   69.44</time>
   <time name="total">   68.52   69.58</time>
   <energy>
    <i name="alphaZ">    569.16657709 </i>
    <i name="ewald">  -7182.48405200 </i>
    <i name="hartreedc">   -712.84846170 </i>
    <i name="XCdc">   -974.75289874 </i>
    <i name="pawpsdc">  14582.30468417 </i>
    <i name="pawaedc"> -13149.67522298 </i>
    <i name="eentropy">      0.00000000 </i>
    <i name="bandstr">   -726.58262871 </i>
    <i name="atom">   7329.73306348 </i>
    <i name="e_fr_energy">   -265.13893939 </i>
    <i name="e_wo_entrp">   -265.13893939 </i>
    <i name="e_0_energy">   -265.13893939 </i>
   </energy>
  </scstep>
  <structure>
   <crystal>
    <varray name="basis" >
     <v>      11.67088483       0.00000000       0.00000000 </v>
     <v>       0.00000000      11.48213348       0.00000000 </v>
     <v>       0.00000000       0.00000000      11.48213348 </v>
    </varray>
    <i name="volume">   1538.68232935 </i>
    <varray name="rec_basis" >
     <v>       0.08568331       0.00000000       0.00000000 </v>
     <v>       0.00000000       0.08709183       0.00000000 </v>
     <v>       0.00000000       0.00000000       0.08709183 </v>
    </varray>
   </crystal>
   <varray name="positions" >
    <v>       0.00000000       0.00000000       0.00000000 </v>
    <v>       0.00000000       0.00000000       0.50000000 </v>
    <v>       0.00000000       0.50000000       0.00000000 </v>
    <v>       0.00000000       0.50000000       0.50000000 </v>
    <v>       0.50000000       0.00000000       0.00000000 </v>
    <v>       0.50000000       0.00000000       0.50000000 </v>
    <v>       0.50000000       0.50000000       0.00000000 </v>
    <v>       0.50000000       0.50000000       0.50000000 </v>
    <v>       0.25000000       0.25000000       0.00000000 </v>
    <v>       0.25000000       0.25000000       0.50000000 </v>
    <v>       0.25000000       0.75000000       0.00000000 </v>
    <v>       0.25000000       0.75000000       0.50000000 </v>
    <v>       0.75000000       0.25000000       0.00000000 </v>
    <v>       0.75000000       0.25000000       0.50000000 </v>
    <v>       0.75000000       0.75000000       0.00000000 </v>
    <v>       0.75000000       0.75000000       0.50000000 </v>
    <v>       0.25000000       0.00000000       0.25000000 </v>
    <v>       0.25000000       0.00000000       0.75000000 </v>
    <v>       0.25000000       0.50000000       0.25000000 </v>
    <v>       0.25000000       0.50000000       0.75000000 </v>
    <v>       0.75000000       0.00000000       0.25000000 </v>
    <v>       0.75000000       0.00000000       0.75000000 </v>
    <v>       0.75000000       0.50000000       0.25000000 </v>
    <v>       0.75000000       0.50000000       0.75000000 </v>
    <v>       0.00000000       0.25000000       0.25000000 </v>
    <v>       0.00000000       0.25000000       0.75000000 </v>
    <v>       0.00000000       0.75000000       0.25000000 </v>
    <v>       0.00000000       0.75000000       0.75000000 </v>
    <v>       0.50000000       0.25000000       0.25000000 </v>
    <v>       0.50000000       0.25000000       0.75000000 </v>
    <v>       0.50000000       0.75000000       0.25000000 </v>
    <v>       0.50000000       0.75000000       0.75000000 </v>
    <v>       0.12500000       0.12500000       0.12500000 </v>
    <v>       0.12500000       0.12500000       0.62500000 </v>
    <v>       0.12500000       0.62500000       0.12500000 </v>
    <v>       0.12500000       0.62500000       0.62500000 </v>
    <v>       0.62500000       0.12500000       0.12500000 </v>
    <v>       0.62500000       0.12500000       0.62500000 </v>
    <v>       0.62500000       0.62500000       0.12500000 </v>
    <v>       0.62500000       0.62500000       0.62500000 </v>
    <v>       0.37500000       0.12500000       0.37500000 </v>
    <v>       0.37500000       0.12500000       0.87500000 </v>
    <v>       0.37500000       0.62500000       0.37500000 </v>
    <v>       0.37500000       0.62500000       0.87500000 </v>
    <v>       0.87500000       0.12500000       0.37500000 </v>
    <v>       0.87500000       0.12500000       0.87500000 </v>
    <v>       0.87500000       0.62500000       0.37500000 </v>
    <v>       0.87500000       0.62500000       0.87500000 </v>
    <v>       0.37500000       0.37500000       0.12500000 </v>
    <v>       0.37500000       0.37500000       0.62500000 </v>
    <v>       0.37500000       0.87500000       0.12500000 </v>
    <v>       0.37500000       0.87500000       0.62500000 </v>
    <v>       0.87500000       0.37500000       0.12500000 </v>
    <v>       0.87500000       0.37500000       0.62500000 </v>
    <v>       0.87500000       0.87500000       0.12500000 </v>
    <v>       0.87500000       0.87500000       0.62500000 </v>
    <v>       0.12500000       0.37500000       0.37500000 </v>
    <v>       0.12500000       0.37500000       0.87500000 </v>
    <v>       0.12500000       0.87500000       0.37500000 </v>
    <v>       0.12500000       0.87500000       0.87500000 </v>
    <v>       0.62500000       0.37500000       0.37500000 </v>
    <v>       0.62500000       0.37500000       0.87500000 </v>
    <v>       0.62500000       0.87500000       0.37500000 </v>
    <v>       0.62500000       0.87500000       0.87500000 </v>
   </varray>
  </structure>
  <varray name="forces" >
   <v>      -0.00000000      -0.00000000       0.00000000 </v>
   <v>       0.00000000      -0.00000000      -0.00000000 </v>
   <v>       0.00000000       0.00000000      -0.00000000 </v>
   <v>      -0.00000000       0.00000000      -0.00000000 </v>
   <v>      -0.00000000      -0.00000000      -0.00000000 </v>
   <v>       0.00000000      -0.00000000      -0.00000000 </v>
   <v>      -0.00000000       0.00000000       0.00000000 </v>
   <v>       0.00000000       0.00000000      -0.00000000 </v>
   <v>      -0.00000000       0.00000000       0.00000000 </v>
   <v>       0.00000000       0.00000000       0.00000000 </v>
   <v>       0.00000000      -0.00000000      -0.00000000 </v>
   <v>       0.00000000      -0.00000000      -0.00000000 </v>
   <v>       0.00000000       0.00000000       0.00000000 </v>
   <v>       0.00000000       0.00000000       0.00000000 </v>
   <v>       0.00000000       0.00000000      -0.00000000 </v>
   <v>       0.00000000       0.00000000      -0.00000000 </v>
   <v>       0.00000000      -0.00000000      -0.00000000 </v>
   <v>       0.00000000       0.00000000       0.00000000 </v>
   <v>       0.00000000       0.00000000       0.00000000 </v>
   <v>       0.00000000       0.00000000       0.00000000 </v>
   <v>      -0.00000000      -0.00000000       0.00000000 </v>
   <v>      -0.00000000      -0.00000000       0.00000000 </v>
   <v>      -0.00000000       0.00000000       0.00000000 </v>
   <v>      -0.00000000       0.00000000      -0.00000000 </v>
   <v>      -0.00000000       0.00000000       0.00000000 </v>
   <v>      -0.00000000       0.00000000       0.00000000 </v>
   <v>      -0.00000000      -0.00000000      -0.00000000 </v>
   <v>      -0.00000000      -0.00000000      -0.00000000 </v>
   <v>      -0.00000000       0.00000000       0.00000000 </v>
   <v>       0.00000000       0.00000000      -0.00000000 </v>
   <v>       0.00000000      -0.00000000      -0.00000000 </v>
   <v>       0.00000000       0.00000000      -0.00000000 </v>
   <v>      -0.00000000      -0.00000000       0.00000000 </v>
   <v>       0.00000000      -0.00000000       0.00000000 </v>
   <v>      -0.00000000      -0.00000000       0.00000000 </v>
   <v>      -0.00000000      -0.00000000       0.00000000 </v>
   <v>       0.00000000      -0.00000000       0.00000000 </v>
   <v>      -0.00000000      -0.00000000       0.00000000 </v>
   <v>      -0.00000000      -0.00000000       0.00000000 </v>
   <v>      -0.00000000       0.00000000       0.00000000 </v>
   <v>       0.00000000       0.00000000       0.00000000 </v>
   <v>      -0.00000000      -0.00000000       0.00000000 </v>
   <v>       0.00000000      -0.00000000       0.00000000 </v>
   <v>      -0.00000000       0.00000000       0.00000000 </v>
   <v>      -0.00000000      -0.00000000       0.00000000 </v>
   <v>      -0.00000000      -0.00000000       0.00000000 </v>
   <v>      -0.00000000       0.00000000       0.00000000 </v>
   <v>      -0.00000000       0.00000000       0.00000000 </v>
   <v>      -0.00000000      -0.00000000       0.00000000 </v>
   <v>       0.00000000      -0.00000000       0.00000000 </v>
   <v>      -0.00000000      -0.00000000       0.00000000 </v>
   <v>      -0.00000000       0.00000000       0.00000000 </v>
   <v>       0.00000000      -0.00000000       0.00000000 </v>
   <v>       0.00000000      -0.00000000       0.00000000 </v>
   <v>      -0.00000000      -0.00000000       0.00000000 </v>
   <v>       0.00000000      -0.00000000       0.00000000 </v>
   <v>       0.00000000      -0.00000000       0.00000000 </v>
   <v>      -0.00000000      -0.00000000       0.00000000 </v>
   <v>      -0.00000000      -0.00000000       0.00000000 </v>
   <v>      -0.00000000      -0.00000000       0.00000000 </v>
   <v>       0.00000000      -0.00000000       0.00000000 </v>
   <v>       0.00000000       0.00000000       0.00000000 </v>
   <v>      -0.00000000      -0.00000000       0.00000000 </v>
   <v>      -0.00000000      -0.00000000       0.00000000 </v>
  </varray>
  <varray name="stress" >
   <v>      -9.43896272       0.00000000       0.00000000 </v>
   <v>       0.00000000      -0.02176887       0.00000000 </v>
   <v>       0.00000000       0.00000000      -0.02176887 </v>
  </varray>
  <scstep>
   <time name="total">  108.34  109.84</time>
   <energy>
    <i name="e_fr_energy">  -1266.48318595 </i>
    <i name="e_wo_entrp">  -1266.48318595 </i>
    <i name="e_0_energy">  -1266.48318595 </i>
   </energy>
  </scstep>
  <scstep>
   <time name="total">   79.16   80.28</time>
   <energy>
    <i name="e_fr_energy">  -1098.79498832 </i>
    <i name="e_wo_entrp">  -1098.79498832 </i>
    <i name="e_0_energy">  -1098.79498832 </i>
   </energy>
  </scstep>
  <scstep>
   <time name="total">   80.84   81.85</time>
   <energy>
    <i name="e_fr_energy">  -1101.09738544 </i>
    <i name="e_wo_entrp">  -1101.09738544 </i>
    <i name="e_0_energy">  -1101.09738544 </i>
   </energy>
  </scstep>
  <scstep>
   <time name="total">   52.88   53.52</time>
   <energy>
    <i name="e_fr_energy">  -1101.21990277 </i>
    <i name="e_wo_entrp">  -1101.21990277 </i>
    <i name="e_0_energy">  -1101.21990277 </i>
   </energy>
  </scstep>
  <scstep>
   <time name="total">   53.39   54.09</time>
   <energy>
    <i name="e_fr_energy">  -1101.22307205 </i>
    <i name="e_wo_entrp">  -1101.22307205 </i>
    <i name="e_0_energy">  -1101.22307205 </i>
   </energy>
  </scstep>
  <scstep>
   <time name="total">   56.52   57.32</time>
   <energy>
    <i name="e_fr_energy">  -1101.22316154 </i>
    <i name="e_wo_entrp">  -1101.22316154 </i>
    <i name="e_0_energy">  -1101.22316154 </i>
   </energy>
  </scstep>
  <scstep>
   <time name="total">   58.52   59.28</time>
   <energy>
    <i name="e_fr_energy">  -1101.22313833 </i>
    <i name="e_wo_entrp">  -1101.22313833 </i>
    <i name="e_0_energy">  -1101.22313833 </i>
   </energy>
  </scstep>
  <scstep>
   <time name="total">   62.61   63.38</time>
   <energy>
    <i name="e_fr_energy">  -1101.22313728 </i>
    <i name="e_wo_entrp">  -1101.22313728 </i>
    <i name="e_0_energy">  -1101.22313728 </i>
   </energy>
  </scstep>
  <scstep>
   <time name="total">   63.76   64.56</time>
   <energy>
    <i name="e_fr_energy">  -1101.22312014 </i>
    <i name="e_wo_entrp">  -1101.22312014 </i>
    <i name="e_0_energy">  -1101.22312014 </i>
   </energy>
  </scstep>
  <scstep>
   <time name="total">   65.16   66.14</time>
   <energy>
    <i name="e_fr_energy">  -1101.22313539 </i>
    <i name="e_wo_entrp">  -1101.22313539 </i>
    <i name="e_0_energy">  -1101.22313539 </i>
   </energy>
  </scstep>
  <scstep>
   <time name="total">   66.48   67.33</time>
   <energy>
    <i name="e_fr_energy">  -1101.22311943 </i>
    <i name="e_wo_entrp">  -1101.22311943 </i>
    <i name="e_0_energy">  -1101.22311943 </i>
   </energy>
  </scstep>
  <scstep>
   <time name="total">  109.14  110.56</time>
   <energy>
    <i name="e_fr_energy">  -1260.64141162 </i>
    <i name="e_wo_entrp">  -1260.64141162 </i>
    <i name="e_0_energy">  -1260.64141162 </i>
   </energy>
  </scstep>
  <scstep>
   <time name="total">   79.90   80.91</time>
   <energy>
    <i name="e_fr_energy">  -1099.50346184 </i>
    <i name="e_wo_entrp">  -1099.50346184 </i>
    <i name="e_0_energy">  -1099.50346184 </i>
   </energy>
  </scstep>
  <scstep>
   <time name="total">   81.70   82.63</time>
   <energy>
    <i name="e_fr_energy">  -1100.76995445 </i>
    <i name="e_wo_entrp">  -1100.76995445 </i>
    <i name="e_0_energy">  -1100.76995445 </i>
   </energy>
  </scstep>
  <scstep>
   <time name="total">   53.90   54.54</time>
   <energy>
    <i name="e_fr_energy">  -1100.73835069 </i>
    <i name="e_wo_entrp">  -1100.73835069 </i>
    <i name="e_0_energy">  -1100.73835069 </i>
   </energy>
  </scstep>
  <scstep>
   <time name="total">   53.74   54.47</time>
   <energy>
    <i name="e_fr_energy">  -1100.71943381 </i>
    <i name="e_wo_entrp">  -1100.71943381 </i>
    <i name="e_0_energy">  -1100.71943381 </i>
   </energy>
  </scstep>
  <scstep>
   <time name="total">   56.59   57.30</time>
   <energy>
    <i name="e_fr_energy">  -1100.62363037 </i>
    <i name="e_wo_entrp">  -1100.62363037 </i>
    <i name="e_0_energy">  -1100.62363037 </i>
   </energy>
  </scstep>
  <scstep>
   <time name="total">   59.48   60.21</time>
   <energy>
    <i name="e_fr_energy">  -1100.64250734 </i>
    <i name="e_wo_entrp">  -1100.64250734 </i>
    <i name="e_0_energy">  -1100.64250734 </i>
   </energy>
  </scstep>
  <scstep>
   <time name="total">   63.74   64.55</time>
   <energy>
    <i name="e_fr_energy">  -1100.65677849 </i>
    <i name="e_wo_entrp">  -1100.65677849 </i>
    <i name="e_0_energy">  -1100.65677849 </i>
   </energy>
  </scstep>
  <scstep>
   <time name="total">   64.88   65.64</time>
   <energy>
    <i name="e_fr_energy">  -1100.64522343 </i>
    <i name="e_wo_entrp">  -1100.64522343 </i>
    <i name="e_0_energy">  -1100.64522343 </i>
   </energy>
  </scstep>
  <scstep>
   <time name="total">   66.34   67.18</time>
   <energy>
    <i name="e_fr_energy">  -1100.63680611 </i>
    <i name="e_wo_entrp">  -1100.63680611 </i>
    <i name="e_0_energy">  -1100.63680611 </i>
   </energy>
  </scstep>
  <scstep>
   <time name="total">   67.71   68.58</time>
   <energy>
    <i name="e_fr_energy">  -1100.63868711 </i>
    <i name="e_wo_entrp">  -1100.63868711 </i>
    <i name="e_0_energy">  -1100.63868711 </i>
   </energy>
  </scstep>
  <scstep>
   <time name="total">  111.70  113.17</time>
   <energy>
    <i name="e_fr_energy">  -1380.76270865 </i>
    <i name="e_wo_entrp">  -1380.76270865 </i>
    <i name="e_0_energy">  -1380.76270865 </i>
   </energy>
  </scstep>
  <scstep>
   <time name="total">   79.18   80.24</time>
   <energy>
    <i name="e_fr_energy">  -1104.92974675 </i>
    <i name="e_wo_entrp">  -1104.92974675 </i>
    <i name="e_0_energy">  -1104.92974675 </i>
   </energy>
  </scstep>
  <scstep>
   <time name="total">   80.34   81.31</time>
   <energy>
    <i name="e_fr_energy">  -1106.38208433 </i>
    <i name="e_wo_entrp">  -1106.38208433 </i>
    <i name="e_0_energy">  -1106.38208433 </i>
   </energy>
  </scstep>
  <scstep>
   <time name="total">   53.44   54.08</time>
   <energy>
    <i name="e_fr_energy">  -1106.38195209 </i>
    <i name="e_wo_entrp">  -1106.38195209 </i>
    <i name="e_0_energy">  -1106.38195209 </i>
   </energy>
  </scstep>
  <scstep>
   <time name="total">   53.57   54.21</time>
   <energy>
    <i name="e_fr_energy">  -1106.36402824 </i>
    <i name="e_wo_entrp">  -1106.36402824 </i>
    <i name="e_0_energy">  -1106.36402824 </i>
   </energy>
  </scstep>
  <scstep>
   <time name="total">   56.14   56.80</time>
   <energy>
    <i name="e_fr_energy">  -1106.26739514 </i>
    <i name="e_wo_entrp">  -1106.26739514 </i>
    <i name="e_0_energy">  -1106.26739514 </i>
   </energy>
  </scstep>
  <scstep>
   <time name="total">   59.27   59.99</time>
   <energy>
    <i name="e_fr_energy">  -1106.28747169 </i>
    <i name="e_wo_entrp">  -1106.28747169 </i>
    <i name="e_0_energy">  -1106.28747169 </i>
   </energy>
  </scstep>
  <scstep>
   <time name="total">   63.12   63.87</time>
   <energy>
    <i name="e_fr_energy">  -1106.29980495 </i>
    <i name="e_wo_entrp">  -1106.29980495 </i>
    <i name="e_0_energy">  -1106.29980495 </i>
   </energy>
  </scstep>
  <scstep>
   <time name="total">   64.30   65.07</time>
   <energy>
    <i name="e_fr_energy">  -1106.29069047 </i>
    <i name="e_wo_entrp">  -1106.29069047 </i>
    <i name="e_0_energy">  -1106.29069047 </i>
   </energy>
  </scstep>
  <scstep>
   <time name="total">   65.62   66.48</time>
   <energy>
    <i name="e_fr_energy">  -1106.28128183 </i>
    <i name="e_wo_entrp">  -1106.28128183 </i>
    <i name="e_0_energy">  -1106.28128183 </i>
   </energy>
  </scstep>
  <scstep>
   <time name="total">   67.22   68.02</time>
   <energy>
    <i name="e_fr_energy">  -1106.28441250 </i>
    <i name="e_wo_entrp">  -1106.28441250 </i>
    <i name="e_0_energy">  -1106.28441250 </i>
   </energy>
  </scstep>
  <kpoints>
   <generation param="Gamma">
    <v type="int" name="divisions">       5        5        5 </v>
    <v name="usershift">      0.00000000       0.00000000       0.00000000 </v>
    <v name="genvec1">      0.20000000       0.00000000       0.00000000 </v>
    <v name="genvec2">      0.00000000       0.20000000       0.00000000 </v>
    <v name="genvec3">      0.00000000       0.00000000       0.20000000 </v>
    <v name="shift">      0.00000000       0.00000000       0.00000000 </v>
   </generation>
   <varray name="kpointlist" >
    <v>       0.00000000       0.00000000       0.00000000 </v>
    <v>       0.20000000       0.00000000       0.00000000 </v>
    <v>       0.40000000       0.00000000       0.00000000 </v>
    <v>       0.00000000       0.20000000       0.00000000 </v>
    <v>       0.20000000       0.20000000       0.00000000 </v>
    <v>       0.40000000       0.20000000       0.00000000 </v>
    <v>       0.00000000       0.40000000       0.00000000 </v>
    <v>       0.20000000       0.40000000       0.00000000 </v>
    <v>       0.40000000       0.40000000       0.00000000 </v>
    <v>       0.00000000       0.20000000       0.20000000 </v>
    <v>       0.00000000      -0.20000000       0.20000000 </v>
    <v>       0.20000000       0.20000000       0.20000000 </v>
    <v>       0.20000000      -0.20000000       0.20000000 </v>
    <v>       0.40000000       0.20000000       0.20000000 </v>
    <v>       0.40000000      -0.20000000       0.20000000 </v>
    <v>       0.00000000       0.40000000       0.20000000 </v>
    <v>       0.00000000      -0.20000000       0.40000000 </v>
    <v>       0.20000000       0.40000000       0.20000000 </v>
    <v>       0.20000000      -0.20000000       0.40000000 </v>
    <v>       0.40000000       0.40000000       0.20000000 </v>
    <v>       0.40000000      -0.20000000       0.40000000 </v>
    <v>       0.00000000       0.40000000       0.40000000 </v>
    <v>       0.00000000      -0.40000000       0.40000000 </v>
    <v>       0.20000000       0.40000000       0.40000000 </v>
    <v>       0.20000000      -0.40000000       0.40000000 </v>
    <v>       0.40000000       0.40000000       0.40000000 </v>
    <v>       0.40000000      -0.40000000       0.40000000 </v>
   </varray>
   <varray name="weights" >
    <v>       0.00800000 </v>
    <v>       0.01600000 </v>
    <v>       0.01600000 </v>
    <v>       0.03200000 </v>
    <v>       0.06400000 </v>
    <v>       0.06400000 </v>
    <v>       0.03200000 </v>
    <v>       0.06400000 </v>
    <v>       0.06400000 </v>
    <v>       0.01600000 </v>
    <v>       0.01600000 </v>
    <v>       0.03200000 </v>
    <v>       0.03200000 </v>
    <v>       0.03200000 </v>
    <v>       0.03200000 </v>
    <v>       0.03200000 </v>
    <v>       0.03200000 </v>
    <v>       0.06400000 </v>
    <v>       0.06400000 </v>
    <v>       0.06400000 </v>
    <v>       0.06400000 </v>
    <v>       0.01600000 </v>
    <v>       0.01600000 </v>
    <v>       0.03200000 </v>
    <v>       0.03200000 </v>
    <v>       0.03200000 </v>
    <v>       0.03200000 </v>
   </varray>
   <varray name="tetrahedronlist"  type="int" >
    <v type="int" >        4       12       14       18       20 </v>
    <v type="int" >        4       12       18       18       20 </v>
    <v type="int" >        4       18       18       20       24 </v>
    <v type="int" >        4       14       18       20       20 </v>
    <v type="int" >        4       18       20       20       26 </v>
    <v type="int" >        4       18       20       24       26 </v>
    <v type="int" >        2       14       14       20       20 </v>
    <v type="int" >        4       14       20       20       20 </v>
    <v type="int" >        4       20       20       20       26 </v>
    <v type="int" >        2       20       20       26       26 </v>
    <v type="int" >        4       10       12       16       18 </v>
    <v type="int" >        4       12       16       18       18 </v>
    <v type="int" >        4       16       18       18       24 </v>
    <v type="int" >        4       10       16       16       18 </v>
    <v type="int" >        4       16       16       18       22 </v>
    <v type="int" >        4       16       18       22       24 </v>
    <v type="int" >        4       18       20       21       24 </v>
    <v type="int" >        4       18       19       21       24 </v>
    <v type="int" >        4       19       21       24       25 </v>
    <v type="int" >        4       20       21       24       26 </v>
    <v type="int" >        4       21       24       26       27 </v>
    <v type="int" >        4       21       24       25       27 </v>
    <v type="int" >        4       20       20       21       26 </v>
    <v type="int" >        4       20       21       21       26 </v>
    <v type="int" >        4       21       21       26       27 </v>
    <v type="int" >        4       20       21       26       26 </v>
    <v type="int" >        4       21       26       26       27 </v>
    <v type="int" >        4       21       26       27       27 </v>
    <v type="int" >        4       18       19       20       26 </v>
    <v type="int" >        4       19       20       21       26 </v>
    <v type="int" >        4       19       21       26       27 </v>
    <v type="int" >        4       18       19       24       26 </v>
    <v type="int" >        4       19       24       25       26 </v>
    <v type="int" >        4       19       25       26       27 </v>
    <v type="int" >        4       16       17       18       24 </v>
    <v type="int" >        4       17       18       19       24 </v>
    <v type="int" >        4       17       19       24       25 </v>
    <v type="int" >        4       16       17       22       24 </v>
    <v type="int" >        4       17       22       23       24 </v>
    <v type="int" >        4       17       23       24       25 </v>
    <v type="int" >        4       16       18       19       22 </v>
    <v type="int" >        4       16       17       19       22 </v>
    <v type="int" >        4       17       19       22       23 </v>
    <v type="int" >        4       18       19       22       24 </v>
    <v type="int" >        4       19       22       24       25 </v>
    <v type="int" >        4       19       22       23       25 </v>
    <v type="int" >        4       15       19       21       25 </v>
    <v type="int" >        4       13       15       19       25 </v>
    <v type="int" >        4       15       21       25       27 </v>
    <v type="int" >        4       15       21       21       27 </v>
    <v type="int" >        4       15       15       21       27 </v>
    <v type="int" >        4       15       21       27       27 </v>
    <v type="int" >        4       13       19       21       27 </v>
    <v type="int" >        4       13       15       21       27 </v>
    <v type="int" >        4       13       19       25       27 </v>
    <v type="int" >        4       11       17       19       25 </v>
    <v type="int" >        4       11       13       19       25 </v>
    <v type="int" >        4       11       17       23       25 </v>
    <v type="int" >        4       13       17       19       23 </v>
    <v type="int" >        4       11       13       17       23 </v>
    <v type="int" >        4       13       19       23       25 </v>
    <v type="int" >        4        6       13       15       19 </v>
    <v type="int" >        4        5        6       13       19 </v>
    <v type="int" >        4        5        6        8       19 </v>
    <v type="int" >        4        6       15       19       21 </v>
    <v type="int" >        4        6        9       19       21 </v>
    <v type="int" >        4        6        8        9       19 </v>
    <v type="int" >        4        6       15       15       21 </v>
    <v type="int" >        4        6        6       15       21 </v>
    <v type="int" >        4        6        6        9       21 </v>
    <v type="int" >        4        6       15       21       21 </v>
    <v type="int" >        4        6        9       21       21 </v>
    <v type="int" >        4        6        9        9       21 </v>
    <v type="int" >        4        5       13       15       21 </v>
    <v type="int" >        4        5        6       15       21 </v>
    <v type="int" >        4        5        6        9       21 </v>
    <v type="int" >        4        5       13       19       21 </v>
    <v type="int" >        4        5        8       19       21 </v>
    <v type="int" >        4        5        8        9       21 </v>
    <v type="int" >        4        4       11       13       19 </v>
    <v type="int" >        4        4        5       13       19 </v>
    <v type="int" >        4        4        5        8       19 </v>
    <v type="int" >        4        4       11       17       19 </v>
    <v type="int" >        4        4        7       17       19 </v>
    <v type="int" >        4        4        7        8       19 </v>
    <v type="int" >        4        5       11       13       17 </v>
    <v type="int" >        4        4        5       11       17 </v>
    <v type="int" >        4        4        5        7       17 </v>
    <v type="int" >        4        5       13       17       19 </v>
    <v type="int" >        4        5        8       17       19 </v>
    <v type="int" >        4        5        7        8       17 </v>
    <v type="int" >        4        5        6        8       14 </v>
    <v type="int" >        4        5        8       12       14 </v>
    <v type="int" >        4        8       12       14       18 </v>
    <v type="int" >        4        6        8        9       14 </v>
    <v type="int" >        4        8        9       14       20 </v>
    <v type="int" >        4        8       14       18       20 </v>
    <v type="int" >        4        6        6        9       14 </v>
    <v type="int" >        4        6        9       14       14 </v>
    <v type="int" >        4        9       14       14       20 </v>
    <v type="int" >        4        6        9        9       14 </v>
    <v type="int" >        4        9        9       14       20 </v>
    <v type="int" >        4        9       14       20       20 </v>
    <v type="int" >        4        5        6        9       12 </v>
    <v type="int" >        4        6        9       12       14 </v>
    <v type="int" >        4        9       12       14       20 </v>
    <v type="int" >        4        5        8        9       12 </v>
    <v type="int" >        4        8        9       12       18 </v>
    <v type="int" >        4        9       12       18       20 </v>
    <v type="int" >        4        4        5        8       10 </v>
    <v type="int" >        4        5        8       10       12 </v>
    <v type="int" >        4        8       10       12       18 </v>
    <v type="int" >        4        4        7        8       10 </v>
    <v type="int" >        4        7        8       10       16 </v>
    <v type="int" >        4        8       10       16       18 </v>
    <v type="int" >        4        4        5        7       12 </v>
    <v type="int" >        4        4        7       10       12 </v>
    <v type="int" >        4        7       10       12       16 </v>
    <v type="int" >        4        5        7        8       12 </v>
    <v type="int" >        4        7        8       12       18 </v>
    <v type="int" >        4        7       12       16       18 </v>
    <v type="int" >        4       24       25       26       27 </v>
    <v type="int" >        4       24       25       25       27 </v>
    <v type="int" >        4       25       26       27       27 </v>
    <v type="int" >        2       26       26       27       27 </v>
    <v type="int" >        4       26       27       27       27 </v>
    <v type="int" >        4       22       23       24       25 </v>
    <v type="int" >        4       23       24       25       25 </v>
    <v type="int" >        4       22       23       23       25 </v>
    <v type="int" >        4        9       18       19       21 </v>
    <v type="int" >        4        8        9       18       19 </v>
    <v type="int" >        4        8        8        9       18 </v>
    <v type="int" >        4        9       18       20       21 </v>
    <v type="int" >        4        9        9       18       20 </v>
    <v type="int" >        4        8        9        9       18 </v>
    <v type="int" >        4        9       20       21       21 </v>
    <v type="int" >        4        9        9       20       21 </v>
    <v type="int" >        8        9        9        9       20 </v>
    <v type="int" >        4        9       20       20       21 </v>
    <v type="int" >        4        9        9       20       20 </v>
    <v type="int" >        4        8       19       20       21 </v>
    <v type="int" >        4        8        9       20       21 </v>
    <v type="int" >        4        8        9        9       20 </v>
    <v type="int" >        4        8       18       19       20 </v>
    <v type="int" >        4        8        8       18       20 </v>
    <v type="int" >        4        8        8        9       20 </v>
    <v type="int" >        4        7       17       18       19 </v>
    <v type="int" >        4        7        8       18       19 </v>
    <v type="int" >        4        7        8        8       18 </v>
    <v type="int" >        4        7       16       17       18 </v>
    <v type="int" >        4        7        7       16       18 </v>
    <v type="int" >        4        7        7        8       18 </v>
    <v type="int" >        4        8       16       17       19 </v>
    <v type="int" >        4        7        8       16       17 </v>
    <v type="int" >        4        7        7        8       16 </v>
    <v type="int" >        4        8       16       18       19 </v>
    <v type="int" >        4        8        8       16       18 </v>
    <v type="int" >        4        7        8        8       16 </v>
    <v type="int" >        4        5        6       12       14 </v>
    <v type="int" >        4        5        5        6       12 </v>
    <v type="int" >        4        2        5        5        6 </v>
    <v type="int" >        4        5        6        6       14 </v>
    <v type="int" >        4        3        5        6        6 </v>
    <v type="int" >        4        2        3        5        6 </v>
    <v type="int" >        2        6        6       14       14 </v>
    <v type="int" >        4        6        6        6       14 </v>
    <v type="int" >        4        3        6        6        6 </v>
    <v type="int" >        2        3        3        6        6 </v>
    <v type="int" >        4        4        5       10       12 </v>
    <v type="int" >        4        4        5        5       12 </v>
    <v type="int" >        4        2        4        5        5 </v>
    <v type="int" >        4        4        4        5       10 </v>
    <v type="int" >        4        1        4        4        5 </v>
    <v type="int" >        4        1        2        4        5 </v>
    <v type="int" >        4        2        5        6       15 </v>
    <v type="int" >        4        2        5       13       15 </v>
    <v type="int" >        4        2        3        6       15 </v>
    <v type="int" >        4        3        6        6       15 </v>
    <v type="int" >        4        3        6       15       15 </v>
    <v type="int" >        4        3        3        6       15 </v>
    <v type="int" >        4        3        5        6       13 </v>
    <v type="int" >        4        3        6       13       15 </v>
    <v type="int" >        4        2        3        5       13 </v>
    <v type="int" >        4        2        4        5       11 </v>
    <v type="int" >        4        2        5       11       13 </v>
    <v type="int" >        4        1        2        4       11 </v>
    <v type="int" >        4        1        4        5       13 </v>
    <v type="int" >        4        1        4       11       13 </v>
    <v type="int" >        4        1        2        5       13 </v>
   </varray>
   <i name="volumeweight">      0.00133333 </i>
  </kpoints>
  <scstep>
   <time name="total">  120.85  122.44</time>
   <energy>
    <i name="e_fr_energy">   -108.29972319 </i>
    <i name="e_wo_entrp">   -108.29972319 </i>
    <i name="e_0_energy">   -108.29972319 </i>
   </energy>
  </scstep>
  <scstep>
   <time name="total">  110.99  112.43</time>
   <energy>
    <i name="e_fr_energy">   -253.97192264 </i>
    <i name="e_wo_entrp">   -253.97192264 </i>
    <i name="e_0_energy">   -253.97192264 </i>
   </energy>
  </scstep>
  <scstep>
   <time name="total">  111.52  113.08</time>
   <energy>
    <i name="e_fr_energy">   -250.80621206 </i>
    <i name="e_wo_entrp">   -250.80621206 </i>
    <i name="e_0_energy">   -250.80621206 </i>
   </energy>
  </scstep>
  <scstep>
   <time name="total">  110.36  111.91</time>
   <energy>
    <i name="e_fr_energy">   -242.69118495 </i>
    <i name="e_wo_entrp">   -242.69118495 </i>
    <i name="e_0_energy">   -242.69118495 </i>
   </energy>
  </scstep>
  <scstep>
   <time name="total">  113.07  114.55</time>
   <energy>
    <i name="e_fr_energy">   -241.97109552 </i>
    <i name="e_wo_entrp">   -241.97109552 </i>
    <i name="e_0_energy">   -241.97109552 </i>
   </energy>
  </scstep>
  <scstep>
   <time name="total">  115.83  117.27</time>
   <energy>
    <i name="e_fr_energy">   -241.90968813 </i>
    <i name="e_wo_entrp">   -241.90968813 </i>
    <i name="e_0_energy">   -241.90968813 </i>
   </energy>
  </scstep>
  <scstep>
   <time name="total">  113.96  115.44</time>
   <energy>
    <i name="e_fr_energy">   -241.84201719 </i>
    <i name="e_wo_entrp">   -241.84201719 </i>
    <i name="e_0_energy">   -241.84201719 </i>
   </energy>
  </scstep>
  <scstep>
   <time name="total">  116.10  117.55</time>
   <energy>
    <i name="e_fr_energy">   -241.82772202 </i>
    <i name="e_wo_entrp">   -241.82772202 </i>
    <i name="e_0_energy">   -241.82772202 </i>
   </energy>
  </scstep>
  <scstep>
   <time name="total">  117.44  118.91</time>
   <energy>
    <i name="e_fr_energy">   -241.83334270 </i>
    <i name="e_wo_entrp">   -241.83334270 </i>
    <i name="e_0_energy">   -241.83334270 </i>
   </energy>
  </scstep>
  <scstep>
   <time name="total">  123.11  124.62</time>
   <energy>
    <i name="e_fr_energy">   -241.83281593 </i>
    <i name="e_wo_entrp">   -241.83281593 </i>
    <i name="e_0_energy">   -241.83281593 </i>
   </energy>
  </scstep>
  <scstep>
   <time name="total">  123.62  125.22</time>
   <energy>
    <i name="e_fr_energy">   -241.83276182 </i>
    <i name="e_wo_entrp">   -241.83276182 </i>
    <i name="e_0_energy">   -241.83276182 </i>
   </energy>
  </scstep>
  <scstep>
   <time name="total">  116.82  118.35</time>
   <energy>
    <i name="e_fr_energy">   -241.83277651 </i>
    <i name="e_wo_entrp">   -241.83277651 </i>
    <i name="e_0_energy">   -241.83277651 </i>
   </energy>
  </scstep>
  <scstep>
   <time name="total">  117.02  118.46</time>
   <energy>
    <i name="e_fr_energy">   -241.83276071 </i>
    <i name="e_wo_entrp">   -241.83276071 </i>
    <i name="e_0_energy">   -241.83276071 </i>
   </energy>
  </scstep>
  <kpoints>
[...]
     <r>     7.3215     0.0000     0.0000     0.0000     0.0000     0.0000     0.0000 </r>
     <r>     7.3316     0.0000     0.0000     0.0000     0.0000     0.0000     0.0000 </r>
    </set>
   </array>
  </conductivity>
  <dos>
   <i name="efermi">      2.32338692 </i>
   <total>
    <array>
     <dimension dim="1">gridpoints</dimension>
     <dimension dim="2">spin</dimension>
     <field>energy</field>
     <field>total</field>
     <field>integrated</field>
     <set>
      <set comment="spin 1">
       <r>   -11.0254     0.0000     0.0000 </r>
       <r>   -10.9636     0.0000     0.0000 </r>
       <r>   -10.9019     0.0000     0.0000 </r>
       <r>   -10.8401     0.0000     0.0000 </r>
       <r>   -10.7783     0.0000     0.0000 </r>
       <r>   -10.7166     0.0000     0.0000 </r>
       <r>   -10.6548     0.0000     0.0000 </r>
       <r>   -10.5931     0.0000     0.0000 </r>
       <r>   -10.5313     0.0000     0.0000 </r>
       <r>   -10.4695     0.0000     0.0000 </r>
       <r>   -10.4078     0.0000     0.0000 </r>
       <r>   -10.3460     0.0000     0.0000 </r>
       <r>   -10.2842     0.0000     0.0000 </r>
       <r>   -10.2225     0.0000     0.0000 </r>
       <r>   -10.1607     0.0000     0.0000 </r>
       <r>   -10.0989     0.0000     0.0000 </r>
       <r>   -10.0372     0.0000     0.0000 </r>
       <r>    -9.9754     3.3696     0.0665 </r>
       <r>    -9.9136     5.0235     0.3210 </r>
       <r>    -9.8519    11.2511     0.8167 </r>
       <r>    -9.7901     7.5215     1.3301 </r>
       <r>    -9.7284     5.5398     1.7847 </r>
       <r>    -9.6666    11.4113     2.3003 </r>
       <r>    -9.6048    13.0654     2.9845 </r>
       <r>    -9.5431    13.9363     3.8499 </r>
       <r>    -9.4813    12.4215     4.6134 </r>
       <r>    -9.4195    19.7056     5.5696 </r>
       <r>    -9.3578    10.3625     6.5727 </r>
       <r>    -9.2960    15.1826     7.3649 </r>
       <r>    -9.2342    14.7295     8.2900 </r>
       <r>    -9.1725    26.9824     9.6180 </r>
       <r>    -9.1107    33.8405    11.3487 </r>
       <r>    -9.0489    12.2153    12.6807 </r>
       <r>    -8.9872    27.4543    13.4614 </r>
       <r>    -8.9254    23.5494    15.1922 </r>
       <r>    -8.8637    16.8342    16.3623 </r>
       <r>    -8.8019    42.9611    18.3202 </r>
       <r>    -8.7401    29.6440    20.4148 </r>
       <r>    -8.6784    32.4612    22.2614 </r>
       <r>    -8.6166    40.3980    24.4457 </r>
       <r>    -8.5548    50.5101    26.9204 </r>
       <r>    -8.4931    59.8237    30.4263 </r>
       <r>    -8.4313    54.2640    33.9052 </r>
       <r>    -8.3695    57.3928    37.2802 </r>
       <r>    -8.3078    53.1870    40.4343 </r>
       <r>    -8.2460    45.3896    42.6085 </r>
       <r>    -8.1842    80.5742    45.7817 </r>
       <r>    -8.1225    72.6493    49.6853 </r>
       <r>    -8.0607    53.1679    52.7904 </r>
       <r>    -7.9990    64.8114    56.1847 </r>
       <r>    -7.9372    79.6466    60.8646 </r>
       <r>    -7.8754    18.3389    63.9030 </r>
       <r>    -7.8137     0.0000    64.0000 </r>
       <r>    -7.7519     0.0000    64.0000 </r>
       <r>    -7.6901     0.0000    64.0000 </r>
       <r>    -7.6284     0.0000    64.0000 </r>
       <r>    -7.5666     0.0000    64.0000 </r>
       <r>    -7.5048     0.0000    64.0000 </r>
       <r>    -7.4431     0.0000    64.0000 </r>
       <r>    -7.3813     0.0000    64.0000 </r>
       <r>    -7.3195     0.0000    64.0000 </r>
       <r>    -7.2578     0.0000    64.0000 </r>
       <r>    -7.1960     0.0000    64.0000 </r>
       <r>    -7.1343     0.0000    64.0000 </r>
       <r>    -7.0725     0.0000    64.0000 </r>
       <r>    -7.0107     0.0000    64.0000 </r>
       <r>    -6.9490     0.0000    64.0000 </r>
       <r>    -6.8872     0.0000    64.0000 </r>
       <r>    -6.8254     0.0000    64.0000 </r>
       <r>    -6.7637     0.0000    64.0000 </r>
       <r>    -6.7019     0.0000    64.0000 </r>
       <r>    -6.6401     0.0000    64.0000 </r>
       <r>    -6.5784     0.0000    64.0000 </r>
       <r>    -6.5166     0.0000    64.0000 </r>
       <r>    -6.4548     0.0000    64.0000 </r>
       <r>    -6.3931     0.0000    64.0000 </r>
       <r>    -6.3313     0.0000    64.0000 </r>
       <r>    -6.2696     0.0000    64.0000 </r>
       <r>    -6.2078     0.0000    64.0000 </r>
       <r>    -6.1460     0.0000    64.0000 </r>
       <r>    -6.0843     0.0000    64.0000 </r>
       <r>    -6.0225     0.0000    64.0000 </r>
       <r>    -5.9607     0.0000    64.0000 </r>
       <r>    -5.8990     0.0000    64.0000 </r>
       <r>    -5.8372     0.0000    64.0000 </r>
       <r>    -5.7754     0.0000    64.0000 </r>
       <r>    -5.7137     0.0000    64.0000 </r>
       <r>    -5.6519     0.0000    64.0000 </r>
       <r>    -5.5902     0.0000    64.0000 </r>
       <r>    -5.5284     0.0000    64.0000 </r>
       <r>    -5.4666     0.0000    64.0000 </r>
       <r>    -5.4049     0.0000    64.0000 </r>
       <r>    -5.3431     0.0000    64.0000 </r>
       <r>    -5.2813     0.0000    64.0000 </r>
       <r>    -5.2196     0.0000    64.0000 </r>
       <r>    -5.1578     0.0000    64.0000 </r>
       <r>    -5.0960     0.0000    64.0000 </r>
       <r>    -5.0343     0.0000    64.0000 </r>
       <r>    -4.9725     0.0000    64.0000 </r>
       <r>    -4.9107     0.0000    64.0000 </r>
       <r>    -4.8490     0.0000    64.0000 </r>
       <r>    -4.7872     0.0000    64.0000 </r>
       <r>    -4.7255     0.0000    64.0000 </r>
       <r>    -4.6637     0.0000    64.0000 </r>
       <r>    -4.6019     0.0000    64.0000 </r>
       <r>    -4.5402     0.0000    64.0000 </r>
       <r>    -4.4784     0.0000    64.0000 </r>
       <r>    -4.4166     0.0000    64.0000 </r>
       <r>    -4.3549     0.0000    64.0000 </r>
       <r>    -4.2931     1.0906    64.0096 </r>
       <r>    -4.2313     5.6486    64.2024 </r>
       <r>    -4.1696    18.5203    64.8410 </r>
       <r>    -4.1078    35.4399    66.3963 </r>
       <r>    -4.0460    73.0758    69.8795 </r>
       <r>    -3.9843    78.2778    73.9422 </r>
       <r>    -3.9225   136.3283    79.7790 </r>
       <r>    -3.8608    83.9362    85.6915 </r>
       <r>    -3.7990   117.2175    88.7486 </r>
       <r>    -3.7372    78.1841    93.1918 </r>
       <r>    -3.6755    20.1028    94.7519 </r>
       <r>    -3.6137    25.4584    95.9438 </r>
       <r>    -3.5519    47.8720    98.2713 </r>
       <r>    -3.4902    26.7085   100.3394 </r>
       <r>    -3.4284    18.1755   101.6685 </r>
       <r>    -3.3666    16.2224   102.6346 </r>
       <r>    -3.3049    38.7132   104.0239 </r>
       <r>    -3.2431    24.7532   106.6136 </r>
       <r>    -3.1813    13.3670   107.4911 </r>
       <r>    -3.1196    10.5684   108.3106 </r>
       <r>    -3.0578     8.1132   108.8297 </r>
       <r>    -2.9961    12.6387   109.4771 </r>
       <r>    -2.9343    12.5446   110.2580 </r>
       <r>    -2.8725    16.7827   111.2942 </r>
       <r>    -2.8108    13.8235   112.1786 </r>
       <r>    -2.7490    13.1473   113.0129 </r>
       <r>    -2.6872    13.0457   113.8180 </r>
       <r>    -2.6255    13.5102   114.6411 </r>
       <r>    -2.5637    11.6849   115.3633 </r>
       <r>    -2.5019     5.9006   115.8905 </r>
       <r>    -2.4402     6.6641   116.2652 </r>
       <r>    -2.3784     7.4039   116.6935 </r>
       <r>    -2.3166     8.5115   117.1838 </r>
       <r>    -2.2549    11.8001   117.8205 </r>
       <r>    -2.1931    10.7956   118.5197 </r>
       <r>    -2.1314     7.0323   119.0805 </r>
       <r>    -2.0696     9.7639   119.5686 </r>
       <r>    -2.0078     4.3382   119.9990 </r>
       <r>    -1.9461     4.6605   120.2746 </r>
       <r>    -1.8843     4.0648   120.5442 </r>
       <r>    -1.8225     3.7559   120.7826 </r>
       <r>    -1.7608     3.8483   121.0159 </r>
       <r>    -1.6990     4.4651   121.2635 </r>
       <r>    -1.6372     7.9830   121.6509 </r>
       <r>    -1.5755     9.5506   122.2403 </r>
       <r>    -1.5137     8.1814   122.8152 </r>
       <r>    -1.4519     6.6864   123.2499 </r>
       <r>    -1.3902     6.3690   123.6321 </r>
       <r>    -1.3284    13.2188   124.1666 </r>
       <r>    -1.2667    29.3940   125.5533 </r>
       <r>    -1.2049    42.9335   127.4970 </r>
       <r>    -1.1431    48.6643   130.5196 </r>
       <r>    -1.0814    42.6588   133.1826 </r>
       <r>    -1.0196    59.8500   136.2889 </r>
       <r>    -0.9578    42.5958   139.2346 </r>
       <r>    -0.8961    37.8340   141.6265 </r>
       <r>    -0.8343    36.1275   143.7766 </r>
       <r>    -0.7725    37.8229   145.8107 </r>
       <r>    -0.7108    32.7002   147.5589 </r>
       <r>    -0.6490    31.4526   149.6883 </r>
       <r>    -0.5873    44.5729   151.9413 </r>
       <r>    -0.5255    39.9940   154.4552 </r>
       <r>    -0.4637    47.8020   156.9631 </r>
       <r>    -0.4020    50.7694   159.9776 </r>
       <r>    -0.3402    51.7494   163.0314 </r>
       <r>    -0.2784    48.9016   166.1693 </r>
       <r>    -0.2167    45.1450   169.0801 </r>
       <r>    -0.1549    49.6605   171.8863 </r>
       <r>    -0.0931    53.9927   175.3346 </r>
       <r>    -0.0314    61.1451   178.9565 </r>
       <r>     0.0304    54.1455   182.3327 </r>
       <r>     0.0922    46.3432   185.3332 </r>
       <r>     0.1539    58.2478   188.5786 </r>
       <r>     0.2157    41.3046   191.9995 </r>
       <r>     0.2774    41.5218   194.1695 </r>
       <r>     0.3392    54.3230   197.3073 </r>
       <r>     0.4010    47.1970   200.3869 </r>
       <r>     0.4627    60.2224   203.8182 </r>
       <r>     0.5245    67.4334   207.5970 </r>
       <r>     0.5863    53.1651   210.5643 </r>
       <r>     0.6480    50.1027   213.4241 </r>
       <r>     0.7098    44.7976   216.3801 </r>
       <r>     0.7716    51.6372   219.3669 </r>
       <r>     0.8333    33.5198   221.7884 </r>
       <r>     0.8951    55.1917   224.8923 </r>
       <r>     0.9569    35.1614   227.5528 </r>
       <r>     1.0186    39.6615   229.8640 </r>
       <r>     1.0804    45.7036   232.5259 </r>
       <r>     1.1421    38.7759   235.2552 </r>
       <r>     1.2039    61.4080   238.3531 </r>
       <r>     1.2657    42.3063   241.1221 </r>
       <r>     1.3274    29.6983   243.2955 </r>
       <r>     1.3892    21.7475   244.8523 </r>
       <r>     1.4510    23.9173   246.2830 </r>
       <r>     1.5127    22.0087   247.6276 </r>
       <r>     1.5745    20.6924   249.0177 </r>
       <r>     1.6363    13.3412   250.1412 </r>
       <r>     1.6980    11.5179   250.8502 </r>
       <r>     1.7598    19.2887   251.6812 </r>
       <r>     1.8216    15.5305   252.8417 </r>
       <r>     1.8833     7.7091   253.4969 </r>
       <r>     1.9451     8.4922   253.9391 </r>
       <r>     2.0068    13.9643   254.7461 </r>
       <r>     2.0686     7.9626   255.4036 </r>
       <r>     2.1304     3.6906   255.7243 </r>
       <r>     2.1921     3.1073   255.9280 </r>
       <r>     2.2539     0.1669   255.9986 </r>
       <r>     2.3157     0.0000   256.0000 </r>
       <r>     2.3774     0.0001   256.0000 </r>
       <r>     2.4392     0.0018   256.0000 </r>
       <r>     2.5010     0.0058   256.0003 </r>
       <r>     2.5627     0.0120   256.0008 </r>
       <r>     2.6245     0.0204   256.0018 </r>
       <r>     2.6863     0.0311   256.0034 </r>
       <r>     2.7480     0.0441   256.0057 </r>
       <r>     2.8098     0.0593   256.0089 </r>
       <r>     2.8715     0.0767   256.0131 </r>
       <r>     2.9333     0.0964   256.0184 </r>
       <r>     2.9951     0.1183   256.0250 </r>
       <r>     3.0568     0.1424   256.0331 </r>
       <r>     3.1186     0.1696   256.0427 </r>
       <r>     3.1804     0.4016   256.0575 </r>
       <r>     3.2421     1.1900   256.1065 </r>
       <r>     3.3039     1.9446   256.2036 </r>
       <r>     3.3657     2.6506   256.3457 </r>
       <r>     3.4274     6.2975   256.6525 </r>
       <r>     3.4892     6.2831   256.9909 </r>
       <r>     3.5510     8.4181   257.4538 </r>
       <r>     3.6127     6.7117   257.9218 </r>
       <r>     3.6745     8.1919   258.3877 </r>
       <r>     3.7362    10.7017   258.9688 </r>
       <r>     3.7980    12.4109   259.6530 </r>
       <r>     3.8598    32.9897   260.9039 </r>
       <r>     3.9215    24.5875   262.0619 </r>
       <r>     3.9833    29.4175   263.7998 </r>
       <r>     4.0451    32.0322   265.8264 </r>
       <r>     4.1068    19.5649   267.2743 </r>
       <r>     4.1686    22.7181   268.5934 </r>
       <r>     4.2304    28.3595   270.1208 </r>
       <r>     4.2921    56.5648   272.6648 </r>
       <r>     4.3539    38.9793   275.2644 </r>
       <r>     4.4156    54.8599   277.8892 </r>
       <r>     4.4774    47.8301   280.8348 </r>
       <r>     4.5392    60.5221   284.2865 </r>
       <r>     4.6009    63.0796   287.9272 </r>
       <r>     4.6627    65.3573   292.0753 </r>
       <r>     4.7245    66.8076   295.8153 </r>
       <r>     4.7862    54.9703   299.7470 </r>
       <r>     4.8480    45.2912   302.6746 </r>
       <r>     4.9098    39.5675   305.3482 </r>
       <r>     4.9715    42.5285   307.8974 </r>
       <r>     5.0333    35.9077   310.2633 </r>
       <r>     5.0951    33.4184   312.3690 </r>
       <r>     5.1568    35.3031   314.4468 </r>
       <r>     5.2186    30.8801   316.4876 </r>
       <r>     5.2803    21.1705   318.0503 </r>
       <r>     5.3421    31.4215   319.4259 </r>
       <r>     5.4039    35.6923   321.5243 </r>
       <r>     5.4656    35.5519   323.3060 </r>
       <r>     5.5274    31.5375   325.2632 </r>
       <r>     5.5892    28.5935   327.0365 </r>
       <r>     5.6509    18.1670   328.3762 </r>
       <r>     5.7127    22.0733   329.5242 </r>
       <r>     5.7745    22.3885   330.8509 </r>
       <r>     5.8362    18.8538   332.1156 </r>
       <r>     5.8980    14.2335   333.0846 </r>
       <r>     5.9598    11.5454   333.8793 </r>
       <r>     6.0215     9.4420   334.5215 </r>
       <r>     6.0833     7.4692   335.0579 </r>
       <r>     6.1450     4.3874   335.4039 </r>
       <r>     6.2068     3.3508   335.6572 </r>
       <r>     6.2686     1.8994   335.7949 </r>
       <r>     6.3303     1.3450   335.8912 </r>
       <r>     6.3921     0.7550   335.9477 </r>
       <r>     6.4539     0.5277   335.9998 </r>
       <r>     6.5156     0.0000   336.0000 </r>
       <r>     6.5774     0.0000   336.0000 </r>
       <r>     6.6392     0.0000   336.0000 </r>
       <r>     6.7009     0.0000   336.0000 </r>
       <r>     6.7627     0.0000   336.0000 </r>
       <r>     6.8245     0.0000   336.0000 </r>
       <r>     6.8862     0.0000   336.0000 </r>
       <r>     6.9480     0.0000   336.0000 </r>
       <r>     7.0097     0.0000   336.0000 </r>
       <r>     7.0715     0.0000   336.0000 </r>
       <r>     7.1333     0.0000   336.0000 </r>
       <r>     7.1950     0.0000   336.0000 </r>
       <r>     7.2568     0.0000   336.0000 </r>
       <r>     7.3186     0.0000   336.0000 </r>
       <r>     7.3803     0.0000   336.0000 </r>
       <r>     7.4421     0.0000   336.0000 </r>
       <r>     7.5039     0.0000   336.0000 </r>
      </set>
     </set>
    </array>
   </total>
  </dos>
 </calculation>
 <structure name="finalpos" >
  <crystal>
   <varray name="basis" >
    <v>      11.67088483       0.00000000       0.00000000 </v>
    <v>       0.00000000      11.48213348       0.00000000 </v>
    <v>       0.00000000       0.00000000      11.48213348 </v>
   </varray>
   <i name="volume">   1538.68232935 </i>
   <varray name="rec_basis" >
    <v>       0.08568331       0.00000000       0.00000000 </v>
    <v>       0.00000000       0.08709183       0.00000000 </v>
    <v>       0.00000000       0.00000000       0.08709183 </v>
   </varray>
  </crystal>
  <varray name="positions" >
   <v>       0.00000000       0.00000000       0.00000000 </v>
   <v>       0.00000000       0.00000000       0.50000000 </v>
   <v>       0.00000000       0.50000000       0.00000000 </v>
   <v>       0.00000000       0.50000000       0.50000000 </v>
   <v>       0.50000000       0.00000000       0.00000000 </v>
   <v>       0.50000000       0.00000000       0.50000000 </v>
   <v>       0.50000000       0.50000000       0.00000000 </v>
   <v>       0.50000000       0.50000000       0.50000000 </v>
   <v>       0.25000000       0.25000000       0.00000000 </v>
   <v>       0.25000000       0.25000000       0.50000000 </v>
   <v>       0.25000000       0.75000000       0.00000000 </v>
   <v>       0.25000000       0.75000000       0.50000000 </v>
   <v>       0.75000000       0.25000000       0.00000000 </v>
   <v>       0.75000000       0.25000000       0.50000000 </v>
   <v>       0.75000000       0.75000000       0.00000000 </v>
   <v>       0.75000000       0.75000000       0.50000000 </v>
   <v>       0.25000000       0.00000000       0.25000000 </v>
   <v>       0.25000000       0.00000000       0.75000000 </v>
   <v>       0.25000000       0.50000000       0.25000000 </v>
   <v>       0.25000000       0.50000000       0.75000000 </v>
   <v>       0.75000000       0.00000000       0.25000000 </v>
   <v>       0.75000000       0.00000000       0.75000000 </v>
   <v>       0.75000000       0.50000000       0.25000000 </v>
   <v>       0.75000000       0.50000000       0.75000000 </v>
   <v>       0.00000000       0.25000000       0.25000000 </v>
   <v>       0.00000000       0.25000000       0.75000000 </v>
   <v>       0.00000000       0.75000000       0.25000000 </v>
   <v>       0.00000000       0.75000000       0.75000000 </v>
   <v>       0.50000000       0.25000000       0.25000000 </v>
   <v>       0.50000000       0.25000000       0.75000000 </v>
   <v>       0.50000000       0.75000000       0.25000000 </v>
   <v>       0.50000000       0.75000000       0.75000000 </v>
   <v>       0.12500000       0.12500000       0.12500000 </v>
   <v>       0.12500000       0.12500000       0.62500000 </v>
   <v>       0.12500000       0.62500000       0.12500000 </v>
   <v>       0.12500000       0.62500000       0.62500000 </v>
   <v>       0.62500000       0.12500000       0.12500000 </v>
   <v>       0.62500000       0.12500000       0.62500000 </v>
   <v>       0.62500000       0.62500000       0.12500000 </v>
   <v>       0.62500000       0.62500000       0.62500000 </v>
   <v>       0.37500000       0.12500000       0.37500000 </v>
   <v>       0.37500000       0.12500000       0.87500000 </v>
   <v>       0.37500000       0.62500000       0.37500000 </v>
   <v>       0.37500000       0.62500000       0.87500000 </v>
   <v>       0.87500000       0.12500000       0.37500000 </v>
   <v>       0.87500000       0.12500000       0.87500000 </v>
   <v>       0.87500000       0.62500000       0.37500000 </v>
   <v>       0.87500000       0.62500000       0.87500000 </v>
   <v>       0.37500000       0.37500000       0.12500000 </v>
   <v>       0.37500000       0.37500000       0.62500000 </v>
   <v>       0.37500000       0.87500000       0.12500000 </v>
   <v>       0.37500000       0.87500000       0.62500000 </v>
   <v>       0.87500000       0.37500000       0.12500000 </v>
   <v>       0.87500000       0.37500000       0.62500000 </v>
   <v>       0.87500000       0.87500000       0.12500000 </v>
   <v>       0.87500000       0.87500000       0.62500000 </v>
   <v>       0.12500000       0.37500000       0.37500000 </v>
   <v>       0.12500000       0.37500000       0.87500000 </v>
   <v>       0.12500000       0.87500000       0.37500000 </v>
   <v>       0.12500000       0.87500000       0.87500000 </v>
   <v>       0.62500000       0.37500000       0.37500000 </v>
   <v>       0.62500000       0.37500000       0.87500000 </v>
   <v>       0.62500000       0.87500000       0.37500000 </v>
   <v>       0.62500000       0.87500000       0.87500000 </v>
  </varray>
 </structure>
</modeling>
