  64  64   0   0
  0.2412848E+02  0.1178615E-08  0.1144640E-08  0.1144640E-08  0.1000000E-15
  1.000000000000000E-004
  CAR 
 GaAs                                    
      7.37662839    -11.02826750  301      2.29994460      1.00000000
    -11.028  0.0000E+00  0.0000E+00
    -10.967  0.0000E+00  0.0000E+00
    -10.906  0.0000E+00  0.0000E+00
    -10.844  0.0000E+00  0.0000E+00
    -10.783  0.0000E+00  0.0000E+00
    -10.722  0.0000E+00  0.0000E+00
    -10.660  0.0000E+00  0.0000E+00
    -10.599  0.0000E+00  0.0000E+00
    -10.537  0.0000E+00  0.0000E+00
    -10.476  0.0000E+00  0.0000E+00
    -10.415  0.0000E+00  0.0000E+00
    -10.353  0.0000E+00  0.0000E+00
    -10.292  0.0000E+00  0.0000E+00
    -10.231  0.0000E+00  0.0000E+00
    -10.169  0.0000E+00  0.0000E+00
    -10.108  0.0000E+00  0.0000E+00
    -10.047  0.0000E+00  0.0000E+00
     -9.985  0.2898E-01  0.4499E-03
     -9.924  0.4760E-01  0.2869E-02
     -9.863  0.1149E+00  0.7388E-02
     -9.801  0.8194E-01  0.1275E-01
     -9.740  0.6429E-01  0.1747E-01
     -9.679  0.1143E+00  0.2222E-01
     -9.617  0.1135E+00  0.2906E-01
     -9.556  0.1531E+00  0.3766E-01
     -9.495  0.1206E+00  0.4501E-01
     -9.433  0.2208E+00  0.5407E-01
     -9.372  0.1194E+00  0.6483E-01
     -9.310  0.1485E+00  0.7256E-01
     -9.249  0.1517E+00  0.8184E-01
     -9.188  0.2740E+00  0.9386E-01
     -9.126  0.2940E+00  0.1108E+00
     -9.065  0.1577E+00  0.1256E+00
     -9.004  0.2118E+00  0.1330E+00
     -8.942  0.2562E+00  0.1502E+00
     -8.881  0.1596E+00  0.1622E+00
     -8.820  0.4264E+00  0.1797E+00
     -8.758  0.3205E+00  0.2018E+00
     -8.697  0.3242E+00  0.2199E+00
     -8.636  0.4972E+00  0.2412E+00
     -8.574  0.5365E+00  0.2651E+00
     -8.513  0.5996E+00  0.2990E+00
     -8.452  0.5280E+00  0.3346E+00
     -8.390  0.6029E+00  0.3687E+00
     -8.329  0.5809E+00  0.4009E+00
     -8.268  0.4621E+00  0.4239E+00
     -8.206  0.6644E+00  0.4545E+00
     -8.145  0.9211E+00  0.4919E+00
     -8.083  0.5437E+00  0.5246E+00
     -8.022  0.6535E+00  0.5588E+00
     -7.961  0.8242E+00  0.6018E+00
     -7.899  0.3568E+00  0.6348E+00
     -7.838  0.2608E-01  0.6400E+00
     -7.777  0.0000E+00  0.6400E+00
     -7.715  0.0000E+00  0.6400E+00
     -7.654  0.0000E+00  0.6400E+00
     -7.593  0.0000E+00  0.6400E+00
     -7.531  0.0000E+00  0.6400E+00
     -7.470  0.0000E+00  0.6400E+00
     -7.409  0.0000E+00  0.6400E+00
     -7.347  0.0000E+00  0.6400E+00
     -7.286  0.0000E+00  0.6400E+00
     -7.225  0.0000E+00  0.6400E+00
     -7.163  0.0000E+00  0.6400E+00
     -7.102  0.0000E+00  0.6400E+00
     -7.041  0.0000E+00  0.6400E+00
     -6.979  0.0000E+00  0.6400E+00
     -6.918  0.0000E+00  0.6400E+00
     -6.856  0.0000E+00  0.6400E+00
     -6.795  0.0000E+00  0.6400E+00
     -6.734  0.0000E+00  0.6400E+00
     -6.672  0.0000E+00  0.6400E+00
     -6.611  0.0000E+00  0.6400E+00
     -6.550  0.0000E+00  0.6400E+00
     -6.488  0.0000E+00  0.6400E+00
     -6.427  0.0000E+00  0.6400E+00
     -6.366  0.0000E+00  0.6400E+00
     -6.304  0.0000E+00  0.6400E+00
     -6.243  0.0000E+00  0.6400E+00
     -6.182  0.0000E+00  0.6400E+00
     -6.120  0.0000E+00  0.6400E+00
     -6.059  0.0000E+00  0.6400E+00
     -5.998  0.0000E+00  0.6400E+00
     -5.936  0.0000E+00  0.6400E+00
     -5.875  0.0000E+00  0.6400E+00
     -5.814  0.0000E+00  0.6400E+00
     -5.752  0.0000E+00  0.6400E+00
     -5.691  0.0000E+00  0.6400E+00
     -5.629  0.0000E+00  0.6400E+00
     -5.568  0.0000E+00  0.6400E+00
     -5.507  0.0000E+00  0.6400E+00
     -5.445  0.0000E+00  0.6400E+00
     -5.384  0.0000E+00  0.6400E+00
     -5.323  0.0000E+00  0.6400E+00
     -5.261  0.0000E+00  0.6400E+00
     -5.200  0.0000E+00  0.6400E+00
     -5.139  0.0000E+00  0.6400E+00
     -5.077  0.0000E+00  0.6400E+00
     -5.016  0.0000E+00  0.6400E+00
     -4.955  0.0000E+00  0.6400E+00
     -4.893  0.0000E+00  0.6400E+00
     -4.832  0.0000E+00  0.6400E+00
     -4.771  0.0000E+00  0.6400E+00
     -4.709  0.0000E+00  0.6400E+00
     -4.648  0.0000E+00  0.6400E+00
     -4.587  0.0000E+00  0.6400E+00
     -4.525  0.0000E+00  0.6400E+00
     -4.464  0.0000E+00  0.6400E+00
     -4.403  0.0000E+00  0.6400E+00
     -4.341  0.1241E-01  0.6402E+00
     -4.280  0.5053E-01  0.6420E+00
     -4.218  0.9821E-01  0.6460E+00
     -4.157  0.2519E+00  0.6565E+00
     -4.096  0.4072E+00  0.6747E+00
     -4.034  0.7527E+00  0.7120E+00
     -3.973  0.9258E+00  0.7569E+00
     -3.912  0.1542E+01  0.8232E+00
     -3.850  0.6640E+00  0.8716E+00
     -3.789  0.1076E+01  0.9082E+00
     -3.728  0.3899E+00  0.9364E+00
     -3.666  0.1759E+00  0.9521E+00
     -3.605  0.2945E+00  0.9655E+00
     -3.544  0.4388E+00  0.9917E+00
     -3.482  0.2229E+00  0.1009E+01
     -3.421  0.1747E+00  0.1021E+01
     -3.360  0.1830E+00  0.1031E+01
     -3.298  0.5615E+00  0.1051E+01
     -3.237  0.1815E+00  0.1069E+01
     -3.176  0.1535E+00  0.1077E+01
     -3.114  0.8563E-01  0.1085E+01
     -3.053  0.9497E-01  0.1090E+01
     -2.991  0.1275E+00  0.1098E+01
     -2.930  0.1990E+00  0.1106E+01
     -2.869  0.1500E+00  0.1117E+01
     -2.807  0.1334E+00  0.1125E+01
     -2.746  0.1317E+00  0.1133E+01
     -2.685  0.1331E+00  0.1141E+01
     -2.623  0.1136E+00  0.1149E+01
     -2.562  0.9450E-01  0.1156E+01
     -2.501  0.5932E-01  0.1160E+01
     -2.439  0.7184E-01  0.1164E+01
     -2.378  0.7922E-01  0.1169E+01
     -2.317  0.1014E+00  0.1174E+01
     -2.255  0.1171E+00  0.1181E+01
     -2.194  0.9313E-01  0.1188E+01
     -2.133  0.7577E-01  0.1192E+01
     -2.071  0.7636E-01  0.1197E+01
     -2.010  0.4951E-01  0.1201E+01
     -1.949  0.4348E-01  0.1204E+01
     -1.887  0.3969E-01  0.1206E+01
     -1.826  0.3846E-01  0.1209E+01
     -1.764  0.3982E-01  0.1211E+01
     -1.703  0.5547E-01  0.1214E+01
     -1.642  0.9312E-01  0.1218E+01
     -1.580  0.8872E-01  0.1224E+01
     -1.519  0.7741E-01  0.1229E+01
     -1.458  0.6087E-01  0.1233E+01
     -1.396  0.7016E-01  0.1237E+01
     -1.335  0.1526E+00  0.1243E+01
     -1.274  0.3099E+00  0.1257E+01
     -1.212  0.3939E+00  0.1277E+01
     -1.151  0.5345E+00  0.1308E+01
     -1.090  0.3990E+00  0.1334E+01
     -1.028  0.5933E+00  0.1365E+01
     -0.967  0.4613E+00  0.1395E+01
     -0.906  0.3457E+00  0.1417E+01
     -0.844  0.3335E+00  0.1439E+01
     -0.783  0.3323E+00  0.1458E+01
     -0.722  0.3444E+00  0.1477E+01
     -0.660  0.3498E+00  0.1499E+01
     -0.599  0.4091E+00  0.1520E+01
     -0.537  0.4435E+00  0.1545E+01
     -0.476  0.4462E+00  0.1572E+01
     -0.415  0.4735E+00  0.1602E+01
     -0.353  0.5084E+00  0.1631E+01
     -0.292  0.4967E+00  0.1663E+01
     -0.231  0.4491E+00  0.1693E+01
     -0.169  0.5571E+00  0.1720E+01
     -0.108  0.5528E+00  0.1753E+01
     -0.047  0.5705E+00  0.1790E+01
      0.015  0.6901E+00  0.1823E+01
      0.076  0.5061E+00  0.1855E+01
      0.137  0.6249E+00  0.1884E+01
      0.199  0.4082E+00  0.1917E+01
      0.260  0.4080E+00  0.1940E+01
      0.321  0.6319E+00  0.1976E+01
      0.383  0.4472E+00  0.2007E+01
      0.444  0.5078E+00  0.2037E+01
      0.505  0.7101E+00  0.2074E+01
      0.567  0.4597E+00  0.2104E+01
      0.628  0.5359E+00  0.2135E+01
      0.690  0.3886E+00  0.2164E+01
      0.751  0.5490E+00  0.2193E+01
      0.812  0.4266E+00  0.2217E+01
      0.874  0.5341E+00  0.2247E+01
      0.935  0.3993E+00  0.2275E+01
      0.996  0.4190E+00  0.2300E+01
      1.058  0.4710E+00  0.2327E+01
      1.119  0.3527E+00  0.2352E+01
      1.180  0.4699E+00  0.2380E+01
      1.242  0.4026E+00  0.2406E+01
      1.303  0.3545E+00  0.2428E+01
      1.364  0.2764E+00  0.2446E+01
      1.426  0.2420E+00  0.2462E+01
      1.487  0.2095E+00  0.2475E+01
      1.548  0.1953E+00  0.2488E+01
      1.610  0.1771E+00  0.2499E+01
      1.671  0.1336E+00  0.2508E+01
      1.732  0.1526E+00  0.2516E+01
      1.794  0.1571E+00  0.2527E+01
      1.855  0.8616E-01  0.2533E+01
      1.917  0.1080E+00  0.2539E+01
      1.978  0.1270E+00  0.2547E+01
      2.039  0.6646E-01  0.2553E+01
      2.101  0.4510E-01  0.2556E+01
      2.162  0.3947E-01  0.2559E+01
      2.223  0.6864E-02  0.2560E+01
      2.285  0.0000E+00  0.2560E+01
      2.346  0.5353E-05  0.2560E+01
      2.407  0.3107E-04  0.2560E+01
      2.469  0.7804E-04  0.2560E+01
      2.530  0.1463E-03  0.2560E+01
      2.591  0.2358E-03  0.2560E+01
      2.653  0.3465E-03  0.2560E+01
      2.714  0.4785E-03  0.2560E+01
      2.775  0.6318E-03  0.2560E+01
      2.837  0.8063E-03  0.2560E+01
      2.898  0.1002E-02  0.2560E+01
      2.959  0.1219E-02  0.2560E+01
      3.021  0.1457E-02  0.2560E+01
      3.082  0.1821E-02  0.2560E+01
      3.144  0.4805E-02  0.2561E+01
      3.205  0.1292E-01  0.2561E+01
      3.266  0.2040E-01  0.2562E+01
      3.328  0.2754E-01  0.2564E+01
      3.389  0.6300E-01  0.2567E+01
      3.450  0.6494E-01  0.2570E+01
      3.512  0.8527E-01  0.2575E+01
      3.573  0.6820E-01  0.2580E+01
      3.634  0.8334E-01  0.2584E+01
      3.696  0.1099E+00  0.2590E+01
      3.757  0.1444E+00  0.2597E+01
      3.818  0.3027E+00  0.2610E+01
      3.880  0.2702E+00  0.2623E+01
      3.941  0.2829E+00  0.2639E+01
      4.002  0.2783E+00  0.2658E+01
      4.064  0.2092E+00  0.2671E+01
      4.125  0.2176E+00  0.2684E+01
      4.186  0.3102E+00  0.2700E+01
      4.248  0.4478E+00  0.2724E+01
      4.309  0.3873E+00  0.2749E+01
      4.370  0.5237E+00  0.2777E+01
      4.432  0.5142E+00  0.2807E+01
      4.493  0.5654E+00  0.2841E+01
      4.555  0.6806E+00  0.2878E+01
      4.616  0.6071E+00  0.2916E+01
      4.677  0.6295E+00  0.2952E+01
      4.739  0.5128E+00  0.2986E+01
      4.800  0.5404E+00  0.3018E+01
      4.861  0.4856E+00  0.3048E+01
      4.923  0.3770E+00  0.3074E+01
      4.984  0.3660E+00  0.3097E+01
      5.045  0.3372E+00  0.3119E+01
      5.107  0.2959E+00  0.3138E+01
      5.168  0.3837E+00  0.3159E+01
      5.229  0.2143E+00  0.3176E+01
      5.291  0.3141E+00  0.3191E+01
      5.352  0.3342E+00  0.3209E+01
      5.413  0.2527E+00  0.3228E+01
      5.475  0.3661E+00  0.3245E+01
      5.536  0.2889E+00  0.3266E+01
      5.597  0.2045E+00  0.3279E+01
      5.659  0.2241E+00  0.3292E+01
      5.720  0.2391E+00  0.3305E+01
      5.782  0.2160E+00  0.3319E+01
      5.843  0.1596E+00  0.3330E+01
      5.904  0.1242E+00  0.3339E+01
      5.966  0.9678E-01  0.3346E+01
      6.027  0.6231E-01  0.3350E+01
      6.088  0.4281E-01  0.3354E+01
      6.150  0.2913E-01  0.3356E+01
      6.211  0.2181E-01  0.3357E+01
      6.272  0.1604E-01  0.3359E+01
      6.334  0.9649E-02  0.3359E+01
      6.395  0.5216E-02  0.3360E+01
      6.456  0.0000E+00  0.3360E+01
      6.518  0.0000E+00  0.3360E+01
      6.579  0.0000E+00  0.3360E+01
      6.640  0.0000E+00  0.3360E+01
      6.702  0.0000E+00  0.3360E+01
      6.763  0.0000E+00  0.3360E+01
      6.824  0.0000E+00  0.3360E+01
      6.886  0.0000E+00  0.3360E+01
      6.947  0.0000E+00  0.3360E+01
      7.009  0.0000E+00  0.3360E+01
      7.070  0.0000E+00  0.3360E+01
      7.131  0.0000E+00  0.3360E+01
      7.193  0.0000E+00  0.3360E+01
      7.254  0.0000E+00  0.3360E+01
      7.315  0.0000E+00  0.3360E+01
      7.377  0.0000E+00  0.3360E+01
