 vasp.6.4.3 19Mar24 (build Aug 29 2024 15:27:20) complex                        
  
 executed on             LinuxIFC date 2025.03.24  15:31:57
 running    8 mpi-ranks, on    1 nodes
 distrk:  each k-point on    8 cores,    1 groups
 distr:  one band on NCORE=   1 cores,    8 groups


--------------------------------------------------------------------------------------------------------


 INCAR:
   SYSTEM = GaAs
   PREC = Normal
   ENCUT = 400
   ISMEAR = -5
   SIGMA = 0.1
   IBRION = 2
   POTIM = 0.1
   NFREE = 2
   NSW = 100
   ISIF = 2
   LEPSILON = .TRUE.
   LOPTICS = .TRUE.

 POTCAR:    PAW_PBE As 22Sep2009                  
 POTCAR:    PAW_PBE Ga 08Apr2002                  
 -----------------------------------------------------------------------------
|                                                                             |
|           W    W    AA    RRRRR   N    N  II  N    N   GGGG   !!!           |
|           W    W   A  A   R    R  NN   N  II  NN   N  G    G  !!!           |
|           W    W  A    A  R    R  N N  N  II  N N  N  G       !!!           |
|           W WW W  AAAAAA  RRRRR   N  N N  II  N  N N  G  GGG   !            |
|           WW  WW  A    A  R   R   N   NN  II  N   NN  G    G                |
|           W    W  A    A  R    R  N    N  II  N    N   GGGG   !!!           |
|                                                                             |
|     For optimal performance we recommend to set                             |
|       NCORE = 2 up to number-of-cores-per-socket                            |
|     NCORE specifies how many cores store one orbital (NPAR=cpu/NCORE).      |
|     This setting can greatly improve the performance of VASP for DFT.       |
|     The default, NCORE=1 might be grossly inefficient on modern             |
|     multi-core architectures or massively parallel machines. Do your        |
|     own testing! More info at https://www.vasp.at/wiki/index.php/NCORE      |
|     Unfortunately you need to use the default for GW and RPA                |
|     calculations (for HF NCORE is supported but not extensively tested      |
|     yet).                                                                   |
|                                                                             |
 -----------------------------------------------------------------------------

 POTCAR:    PAW_PBE As 22Sep2009                  
   VRHFIN =As: s2p3                                                                                 
   LEXCH  = PE                                                                                      
   EATOM  =   170.1867 eV,   12.5084 Ry                                                             
                                                                                                    
   TITEL  = PAW_PBE As 22Sep2009                                                                    
   LULTRA =        F    use ultrasoft PP ?                                                          
   IUNSCR =        1    unscreen: 0-lin 1-nonlin 2-no                                               
   RPACOR =    1.900    partial core radius                                                         
   POMASS =   74.922; ZVAL   =    5.000    mass and valenz                                          
   RCORE  =    2.100    outmost cutoff radius                                                       
   RWIGS  =    2.300; RWIGS  =    1.217    wigner-seitz radius (au A)                               
   ENMAX  =  208.702; ENMIN  =  156.526 eV                                                          
   ICORE  =        3    local potential                                                             
   LCOR   =        T    correct aug charges                                                         
   LPAW   =        T    paw PP                                                                      
   EAUG   =  462.758                                                                                
   DEXC   =    0.000                                                                                
   RMAX   =    2.144    core radius for proj-oper                                                   
   RAUG   =    1.300    factor for augmentation sphere                                              
   RDEP   =    2.140    radius for radial grids                                                     
   RDEPT  =    1.956    core radius for aug-charge                                                  
                                                                                                    
   Atomic configuration                                                                             
   10 entries                                                                                       
     n  l   j            E        occ.                                                              
     1  0  0.50    -11718.0418   2.0000                                                             
     2  0  0.50     -1486.5454   2.0000                                                             
     2  1  1.50     -1303.3889   6.0000                                                             
     3  0  0.50      -190.2849   2.0000                                                             
     3  1  1.50      -133.6555   6.0000                                                             
     3  2  2.50       -40.6443  10.0000                                                             
     4  0  0.50       -14.4936   2.0000                                                             
     4  1  0.50        -5.1947   3.0000                                                             
     4  2  1.50        -5.4423   0.0000                                                             
     4  3  2.50        -5.4423   0.0000                                                             
   Description                                                                                      
     l       E           TYP  RCUT    TYP  RCUT                                                     
     0    -14.4935570     23  2.100                                                                 
     0    -11.9212055     23  2.100                                                                 
     1     -5.1947127     23  2.100                                                                 
     1     27.2116520     23  2.100                                                                 
     2     -5.4423304     23  2.100                                                                 
     3     -1.3605826      7  2.100                                                                 
  local pseudopotential read in
  partial core-charges read in
  partial kinetic energy density read in
  atomic valenz-charges read in
  non local Contribution for L=           0  read in
    real space projection operators read in
  non local Contribution for L=           0  read in
    real space projection operators read in
  non local Contribution for L=           1  read in
    real space projection operators read in
  non local Contribution for L=           1  read in
    real space projection operators read in
  non local Contribution for L=           2  read in
    real space projection operators read in
    PAW grid and wavefunctions read in
 
   number of l-projection  operators is LMAX  =           5
   number of lm-projection operators is LMMAX =          13
 
 POTCAR:    PAW_PBE Ga 08Apr2002                  
   VRHFIN =Ga: s2p1                                                                                 
   LEXCH  = PE                                                                                      
   EATOM  =    58.8688 eV,    4.3267 Ry                                                             
                                                                                                    
   TITEL  = PAW_PBE Ga 08Apr2002                                                                    
   LULTRA =        F    use ultrasoft PP ?                                                          
   IUNSCR =        1    unscreen: 0-lin 1-nonlin 2-no                                               
   RPACOR =    2.170    partial core radius                                                         
   POMASS =   69.723; ZVAL   =    3.000    mass and valenz                                          
   RCORE  =    2.600    outmost cutoff radius                                                       
   RWIGS  =    2.650; RWIGS  =    1.402    wigner-seitz radius (au A)                               
   ENMAX  =  134.678; ENMIN  =  101.009 eV                                                          
   ICORE  =        3    local potential                                                             
   LCOR   =        T    correct aug charges                                                         
   LPAW   =        T    paw PP                                                                      
   EAUG   =  320.264                                                                                
   DEXC   =    0.000                                                                                
   RMAX   =    2.658    core radius for proj-oper                                                   
   RAUG   =    1.300    factor for augmentation sphere                                              
   RDEP   =    2.684    radius for radial grids                                                     
   RDEPT  =    2.308    core radius for aug-charge                                                  
                                                                                                    
   Atomic configuration                                                                             
   10 entries                                                                                       
     n  l   j            E        occ.                                                              
     1  0  0.50    -10228.7830   2.0000                                                             
     2  0  0.50     -1262.1604   2.0000                                                             
     2  1  1.50     -1098.6333   6.0000                                                             
     3  0  0.50      -148.1110   2.0000                                                             
     3  1  1.50       -98.8436   6.0000                                                             
     3  2  2.50       -19.1549  10.0000                                                             
     4  0  0.50        -8.9483   2.0000                                                             
     4  1  0.50        -2.5791   1.0000                                                             
     4  2  1.50         5.4423   0.0000                                                             
     4  3  2.50        -2.7416   0.0000                                                             
   Description                                                                                      
     l       E           TYP  RCUT    TYP  RCUT                                                     
     0     -8.9483097     23  2.600                                                                 
     0     -5.8232215     23  2.600                                                                 
     1     -2.5790793     23  2.600                                                                 
     1      5.2230115     23  2.600                                                                 
     2      1.3605826     23  2.600                                                                 
     3     -1.3605826      7  2.600                                                                 
  local pseudopotential read in
  partial core-charges read in
  partial kinetic energy density read in
  atomic valenz-charges read in
  non local Contribution for L=           0  read in
    real space projection operators read in
  non local Contribution for L=           0  read in
    real space projection operators read in
  non local Contribution for L=           1  read in
    real space projection operators read in
  non local Contribution for L=           1  read in
    real space projection operators read in
  non local Contribution for L=           2  read in
    real space projection operators read in
    PAW grid and wavefunctions read in
 
   number of l-projection  operators is LMAX  =           5
   number of lm-projection operators is LMMAX =          13
 
 -----------------------------------------------------------------------------
|                                                                             |
|               ----> ADVICE to this user running VASP <----                  |
|                                                                             |
|     You have a (more or less) 'large supercell' and for larger cells it     |
|     might be more efficient to use real-space projection operators.         |
|     Therefore, try LREAL= Auto in the INCAR file.                           |
|     Mind: For very accurate calculation, you might also keep the            |
|     reciprocal projection scheme (i.e. LREAL=.FALSE.).                      |
|                                                                             |
 -----------------------------------------------------------------------------

  PAW_PBE As 22Sep2009                  :
 energy of atom  1       EATOM= -170.1867
 kinetic energy error for atom=    0.0013 (will be added to EATOM!!)
  PAW_PBE Ga 08Apr2002                  :
 energy of atom  2       EATOM=  -58.8688
 kinetic energy error for atom=    0.0001 (will be added to EATOM!!)
 
 
 POSCAR: cubic gallium arsenide
  positions in direct lattice
  velocities in cartesian coordinates


 exchange-correlation table for PE
   RHO(1)=    0.500       N(1)  =     2000
   RHO(2)=  100.500       N(2)  =     4000
 


--------------------------------------------------------------------------------------------------------


 ion  position               nearest neighbor table
   1  0.000  0.000  0.000-  33 2.50  46 2.50  55 2.50  60 2.50
   2  0.000  0.000  0.500-  34 2.50  45 2.50  56 2.50  59 2.50
   3  0.000  0.500  0.000-  35 2.50  48 2.50  53 2.50  58 2.50
   4  0.000  0.500  0.500-  36 2.50  47 2.50  54 2.50  57 2.50
   5  0.500  0.000  0.000-  37 2.50  42 2.50  51 2.50  64 2.50
   6  0.500  0.000  0.500-  38 2.50  41 2.50  52 2.50  63 2.50
   7  0.500  0.500  0.000-  39 2.50  44 2.50  49 2.50  62 2.50
   8  0.500  0.500  0.500-  40 2.50  43 2.50  50 2.50  61 2.50
   9  0.250  0.250  0.000-  33 2.50  42 2.50  49 2.50  58 2.50
  10  0.250  0.250  0.500-  34 2.50  41 2.50  50 2.50  57 2.50
  11  0.250  0.750  0.000-  35 2.50  44 2.50  51 2.50  60 2.50
  12  0.250  0.750  0.500-  36 2.50  43 2.50  52 2.50  59 2.50
  13  0.750  0.250  0.000-  37 2.50  46 2.50  53 2.50  62 2.50
  14  0.750  0.250  0.500-  38 2.50  45 2.50  54 2.50  61 2.50
  15  0.750  0.750  0.000-  39 2.50  48 2.50  55 2.50  64 2.50
  16  0.750  0.750  0.500-  40 2.50  47 2.50  56 2.50  63 2.50
  17  0.250  0.000  0.250-  33 2.50  41 2.50  51 2.50  59 2.50
  18  0.250  0.000  0.750-  34 2.50  42 2.50  52 2.50  60 2.50
  19  0.250  0.500  0.250-  35 2.50  43 2.50  49 2.50  57 2.50
  20  0.250  0.500  0.750-  36 2.50  44 2.50  50 2.50  58 2.50
  21  0.750  0.000  0.250-  37 2.50  45 2.50  55 2.50  63 2.50
  22  0.750  0.000  0.750-  38 2.50  46 2.50  56 2.50  64 2.50
  23  0.750  0.500  0.250-  39 2.50  47 2.50  53 2.50  61 2.50
  24  0.750  0.500  0.750-  40 2.50  48 2.50  54 2.50  62 2.50
  25  0.000  0.250  0.250-  33 2.50  45 2.50  53 2.50  57 2.50
  26  0.000  0.250  0.750-  34 2.50  46 2.50  54 2.50  58 2.50
  27  0.000  0.750  0.250-  35 2.50  47 2.50  55 2.50  59 2.50
  28  0.000  0.750  0.750-  36 2.50  48 2.50  56 2.50  60 2.50
  29  0.500  0.250  0.250-  37 2.50  41 2.50  49 2.50  61 2.50
  30  0.500  0.250  0.750-  38 2.50  42 2.50  50 2.50  62 2.50
  31  0.500  0.750  0.250-  39 2.50  43 2.50  51 2.50  63 2.50
  32  0.500  0.750  0.750-  40 2.50  44 2.50  52 2.50  64 2.50
  33  0.125  0.125  0.125-   1 2.50   9 2.50  17 2.50  25 2.50
  34  0.125  0.125  0.625-   2 2.50  10 2.50  18 2.50  26 2.50
  35  0.125  0.625  0.125-   3 2.50  11 2.50  19 2.50  27 2.50
  36  0.125  0.625  0.625-   4 2.50  12 2.50  20 2.50  28 2.50
  37  0.625  0.125  0.125-   5 2.50  13 2.50  21 2.50  29 2.50
  38  0.625  0.125  0.625-   6 2.50  14 2.50  22 2.50  30 2.50
  39  0.625  0.625  0.125-   7 2.50  15 2.50  23 2.50  31 2.50
  40  0.625  0.625  0.625-   8 2.50  16 2.50  24 2.50  32 2.50
  41  0.375  0.125  0.375-   6 2.50  10 2.50  17 2.50  29 2.50
  42  0.375  0.125  0.875-   5 2.50   9 2.50  18 2.50  30 2.50
  43  0.375  0.625  0.375-   8 2.50  12 2.50  19 2.50  31 2.50
  44  0.375  0.625  0.875-   7 2.50  11 2.50  20 2.50  32 2.50
  45  0.875  0.125  0.375-   2 2.50  14 2.50  21 2.50  25 2.50
  46  0.875  0.125  0.875-   1 2.50  13 2.50  22 2.50  26 2.50
  47  0.875  0.625  0.375-   4 2.50  16 2.50  23 2.50  27 2.50
  48  0.875  0.625  0.875-   3 2.50  15 2.50  24 2.50  28 2.50
  49  0.375  0.375  0.125-   7 2.50   9 2.50  19 2.50  29 2.50
  50  0.375  0.375  0.625-   8 2.50  10 2.50  20 2.50  30 2.50
  51  0.375  0.875  0.125-   5 2.50  11 2.50  17 2.50  31 2.50
  52  0.375  0.875  0.625-   6 2.50  12 2.50  18 2.50  32 2.50
  53  0.875  0.375  0.125-   3 2.50  13 2.50  23 2.50  25 2.50
  54  0.875  0.375  0.625-   4 2.50  14 2.50  24 2.50  26 2.50
  55  0.875  0.875  0.125-   1 2.50  15 2.50  21 2.50  27 2.50
  56  0.875  0.875  0.625-   2 2.50  16 2.50  22 2.50  28 2.50
  57  0.125  0.375  0.375-   4 2.50  10 2.50  19 2.50  25 2.50
  58  0.125  0.375  0.875-   3 2.50   9 2.50  20 2.50  26 2.50
  59  0.125  0.875  0.375-   2 2.50  12 2.50  17 2.50  27 2.50
  60  0.125  0.875  0.875-   1 2.50  11 2.50  18 2.50  28 2.50
  61  0.625  0.375  0.375-   8 2.50  14 2.50  23 2.50  29 2.50
  62  0.625  0.375  0.875-   7 2.50  13 2.50  24 2.50  30 2.50
  63  0.625  0.875  0.375-   6 2.50  16 2.50  21 2.50  31 2.50
  64  0.625  0.875  0.875-   5 2.50  15 2.50  22 2.50  32 2.50
 
  LATTYP: Found a simple tetragonal cell.
 ALAT       =    11.4464004047
 C/A-ratio  =     1.0296820322
  
  Lattice vectors:
  
 A1 = (   0.0000000000,  11.4464004047,   0.0000000000)
 A2 = (   0.0000000000,   0.0000000000,  11.4464004047)
 A3 = (  11.7861528298,   0.0000000000,   0.0000000000)


Analysis of symmetry for initial positions (statically):
=====================================================================
 Subroutine PRICEL returns following result:
 
  LATTYP: Found a body centered tetragonal cell.
 ALAT       =     4.0469136732
 C/A-ratio  =     1.4561902948
  
  Lattice vectors:
  
 A1 = (   2.9465382075,   0.0000000000,   2.8616001012)
 A2 = (   2.9465382075,   0.0000000000,  -2.8616001012)
 A3 = (  -2.9465382075,   2.8616001012,   0.0000000000)
 
  32 primitive cells build up your supercell.
 

 Routine SETGRP: Setting up the symmetry group for a 
 simple tetragonal supercell.


 Subroutine GETGRP returns: Found  8 space group operations
 (whereof  8 operations were pure point group operations)
 out of a pool of 16 trial point group operations.


The static configuration has the point symmetry D_2d.


Analysis of symmetry for dynamics (positions and initial velocities):
=====================================================================
 Subroutine PRICEL returns following result:
 
  LATTYP: Found a body centered tetragonal cell.
 ALAT       =     4.0469136732
 C/A-ratio  =     1.4561902948
  
  Lattice vectors:
  
 A1 = (   2.9465382075,   0.0000000000,   2.8616001012)
 A2 = (   2.9465382075,   0.0000000000,  -2.8616001012)
 A3 = (  -2.9465382075,   2.8616001012,   0.0000000000)
 
  32 primitive cells build up your supercell.
 

 Routine SETGRP: Setting up the symmetry group for a 
 simple tetragonal supercell.


 Subroutine GETGRP returns: Found  8 space group operations
 (whereof  8 operations were pure point group operations)
 out of a pool of 16 trial point group operations.


The dynamic configuration has the point symmetry D_2d.


 Subroutine INISYM returns: Found  8 space group operations
 (whereof  8 operations are pure point group operations),
 and found    32 'primitive' translations


----------------------------------------------------------------------------------------

                                     Primitive cell                                     

  volume of cell :      48.2570

  direct lattice vectors                    reciprocal lattice vectors
     2.946538207  0.000000000  2.861600101     0.169690656  0.174727419  0.174727419
     2.946538207  0.000000000 -2.861600101     0.169690656  0.174727419 -0.174727419
    -2.946538207  2.861600101  0.000000000     0.000000000  0.349454838  0.000000000

  length of vectors
     4.107413121  4.107413121  4.107413121     0.299757002  0.299757002  0.349454838

  position of ions in fractional coordinates (direct lattice)
     0.000000000  0.000000000  0.000000000
     0.750000000  0.250000000  0.500000000

  ion indices of the primitive-cell ions
   primitive index   ion index
                 1           1
                 2          33

----------------------------------------------------------------------------------------

 
 
 KPOINTS: Automatic mesh                          

Automatic generation of k-mesh.
 Grid dimensions read from file:
 generate k-points for:    5    5    5

 Generating k-lattice:

  Cartesian coordinates                     Fractional coordinates (reciprocal lattice)
     0.016969066  0.000000000  0.000000000     0.200000000  0.000000000  0.000000000
     0.000000000  0.017472742  0.000000000     0.000000000  0.200000000  0.000000000
     0.000000000  0.000000000  0.017472742     0.000000000  0.000000000  0.200000000

  Length of vectors
     0.016969066  0.017472742  0.017472742

  Shift w.r.t. Gamma in fractional coordinates (k-lattice)
     0.000000000  0.000000000  0.000000000

 TETIRR: Found    177 inequivalent tetrahedra from      750
 
 Subroutine IBZKPT returns following result:
 ===========================================
 
 Found     18 irreducible k-points:
 
 Following reciprocal coordinates:
            Coordinates               Weight
  0.000000  0.000000  0.000000      1.000000
  0.200000  0.000000  0.000000      2.000000
  0.400000  0.000000  0.000000      2.000000
  0.000000  0.200000  0.000000      4.000000
  0.200000  0.200000  0.000000      8.000000
  0.400000  0.200000  0.000000      8.000000
  0.000000  0.400000  0.000000      4.000000
  0.200000  0.400000  0.000000      8.000000
  0.400000  0.400000  0.000000      8.000000
  0.000000  0.200000  0.200000      4.000000
  0.200000  0.200000  0.200000      8.000000
  0.400000  0.200000  0.200000      8.000000
  0.000000  0.400000  0.200000      8.000000
  0.200000  0.400000  0.200000     16.000000
  0.400000  0.400000  0.200000     16.000000
  0.000000  0.400000  0.400000      4.000000
  0.200000  0.400000  0.400000      8.000000
  0.400000  0.400000  0.400000      8.000000
 
 Following cartesian coordinates:
            Coordinates               Weight
  0.000000  0.000000  0.000000      1.000000
  0.016969  0.000000  0.000000      2.000000
  0.033938  0.000000  0.000000      2.000000
  0.000000  0.017473  0.000000      4.000000
  0.016969  0.017473  0.000000      8.000000
  0.033938  0.017473  0.000000      8.000000
  0.000000  0.034945  0.000000      4.000000
  0.016969  0.034945  0.000000      8.000000
  0.033938  0.034945  0.000000      8.000000
  0.000000  0.017473  0.017473      4.000000
  0.016969  0.017473  0.017473      8.000000
  0.033938  0.017473  0.017473      8.000000
  0.000000  0.034945  0.017473      8.000000
  0.016969  0.034945  0.017473     16.000000
  0.033938  0.034945  0.017473     16.000000
  0.000000  0.034945  0.034945      4.000000
  0.016969  0.034945  0.034945      8.000000
  0.033938  0.034945  0.034945      8.000000
 
 
 Subroutine IBZKPT_HF returns following result:
 ==============================================
 
 Found    125 k-points in 1st BZ
 the following    125 k-points will be used (e.g. in the exchange kernel)
 Following reciprocal coordinates:   # in IRBZ
  0.000000  0.000000  0.000000    0.00800000   1 t-inv F
  0.200000  0.000000  0.000000    0.00800000   2 t-inv F
  0.400000  0.000000  0.000000    0.00800000   3 t-inv F
  0.000000  0.200000  0.000000    0.00800000   4 t-inv F
  0.200000  0.200000  0.000000    0.00800000   5 t-inv F
  0.400000  0.200000  0.000000    0.00800000   6 t-inv F
  0.000000  0.400000  0.000000    0.00800000   7 t-inv F
  0.200000  0.400000  0.000000    0.00800000   8 t-inv F
  0.400000  0.400000  0.000000    0.00800000   9 t-inv F
  0.000000  0.200000  0.200000    0.00800000  10 t-inv F
  0.200000  0.200000  0.200000    0.00800000  11 t-inv F
  0.400000  0.200000  0.200000    0.00800000  12 t-inv F
  0.000000  0.400000  0.200000    0.00800000  13 t-inv F
  0.200000  0.400000  0.200000    0.00800000  14 t-inv F
  0.400000  0.400000  0.200000    0.00800000  15 t-inv F
  0.000000  0.400000  0.400000    0.00800000  16 t-inv F
  0.200000  0.400000  0.400000    0.00800000  17 t-inv F
  0.400000  0.400000  0.400000    0.00800000  18 t-inv F
 -0.200000  0.000000  0.000000    0.00800000   2 t-inv F
 -0.400000  0.000000  0.000000    0.00800000   3 t-inv F
  0.000000  0.000000 -0.200000    0.00800000   4 t-inv F
  0.000000 -0.200000  0.000000    0.00800000   4 t-inv F
  0.000000  0.000000  0.200000    0.00800000   4 t-inv F
 -0.200000  0.000000 -0.200000    0.00800000   5 t-inv F
  0.200000 -0.200000  0.000000    0.00800000   5 t-inv F
 -0.200000  0.000000  0.200000    0.00800000   5 t-inv F
 -0.200000 -0.200000  0.000000    0.00800000   5 t-inv F
  0.200000  0.000000 -0.200000    0.00800000   5 t-inv F
 -0.200000  0.200000  0.000000    0.00800000   5 t-inv F
  0.200000  0.000000  0.200000    0.00800000   5 t-inv F
 -0.400000  0.000000 -0.200000    0.00800000   6 t-inv F
  0.400000 -0.200000  0.000000    0.00800000   6 t-inv F
 -0.400000  0.000000  0.200000    0.00800000   6 t-inv F
 -0.400000 -0.200000  0.000000    0.00800000   6 t-inv F
  0.400000  0.000000 -0.200000    0.00800000   6 t-inv F
 -0.400000  0.200000  0.000000    0.00800000   6 t-inv F
  0.400000  0.000000  0.200000    0.00800000   6 t-inv F
  0.000000  0.000000 -0.400000    0.00800000   7 t-inv F
  0.000000 -0.400000  0.000000    0.00800000   7 t-inv F
  0.000000  0.000000  0.400000    0.00800000   7 t-inv F
 -0.200000  0.000000 -0.400000    0.00800000   8 t-inv F
  0.200000 -0.400000  0.000000    0.00800000   8 t-inv F
 -0.200000  0.000000  0.400000    0.00800000   8 t-inv F
 -0.200000 -0.400000  0.000000    0.00800000   8 t-inv F
  0.200000  0.000000 -0.400000    0.00800000   8 t-inv F
 -0.200000  0.400000  0.000000    0.00800000   8 t-inv F
  0.200000  0.000000  0.400000    0.00800000   8 t-inv F
 -0.400000  0.000000 -0.400000    0.00800000   9 t-inv F
  0.400000 -0.400000  0.000000    0.00800000   9 t-inv F
 -0.400000  0.000000  0.400000    0.00800000   9 t-inv F
 -0.400000 -0.400000  0.000000    0.00800000   9 t-inv F
  0.400000  0.000000 -0.400000    0.00800000   9 t-inv F
 -0.400000  0.400000  0.000000    0.00800000   9 t-inv F
  0.400000  0.000000  0.400000    0.00800000   9 t-inv F
  0.000000  0.200000 -0.200000    0.00800000  10 t-inv F
  0.000000 -0.200000 -0.200000    0.00800000  10 t-inv F
  0.000000 -0.200000  0.200000    0.00800000  10 t-inv F
 -0.200000  0.200000 -0.200000    0.00800000  11 t-inv F
  0.200000 -0.200000 -0.200000    0.00800000  11 t-inv F
 -0.200000 -0.200000  0.200000    0.00800000  11 t-inv F
 -0.400000  0.200000 -0.200000    0.00800000  12 t-inv F
  0.400000 -0.200000 -0.200000    0.00800000  12 t-inv F
 -0.400000 -0.200000  0.200000    0.00800000  12 t-inv F
  0.000000  0.200000 -0.400000    0.00800000  13 t-inv F
  0.000000 -0.400000 -0.200000    0.00800000  13 t-inv F
  0.000000 -0.200000  0.400000    0.00800000  13 t-inv F
  0.000000 -0.400000  0.200000    0.00800000  13 t-inv F
  0.000000 -0.200000 -0.400000    0.00800000  13 t-inv F
  0.000000  0.400000 -0.200000    0.00800000  13 t-inv F
  0.000000  0.200000  0.400000    0.00800000  13 t-inv F
 -0.200000  0.200000 -0.400000    0.00800000  14 t-inv F
  0.200000 -0.400000 -0.200000    0.00800000  14 t-inv F
 -0.200000 -0.200000  0.400000    0.00800000  14 t-inv F
 -0.200000 -0.400000  0.200000    0.00800000  14 t-inv F
  0.200000 -0.200000 -0.400000    0.00800000  14 t-inv F
 -0.200000  0.400000 -0.200000    0.00800000  14 t-inv F
  0.200000  0.200000  0.400000    0.00800000  14 t-inv F
 -0.400000  0.200000 -0.400000    0.00800000  15 t-inv F
  0.400000 -0.400000 -0.200000    0.00800000  15 t-inv F
 -0.400000 -0.200000  0.400000    0.00800000  15 t-inv F
 -0.400000 -0.400000  0.200000    0.00800000  15 t-inv F
  0.400000 -0.200000 -0.400000    0.00800000  15 t-inv F
 -0.400000  0.400000 -0.200000    0.00800000  15 t-inv F
  0.400000  0.200000  0.400000    0.00800000  15 t-inv F
  0.000000  0.400000 -0.400000    0.00800000  16 t-inv F
  0.000000 -0.400000 -0.400000    0.00800000  16 t-inv F
  0.000000 -0.400000  0.400000    0.00800000  16 t-inv F
 -0.200000  0.400000 -0.400000    0.00800000  17 t-inv F
  0.200000 -0.400000 -0.400000    0.00800000  17 t-inv F
 -0.200000 -0.400000  0.400000    0.00800000  17 t-inv F
 -0.400000  0.400000 -0.400000    0.00800000  18 t-inv F
  0.400000 -0.400000 -0.400000    0.00800000  18 t-inv F
 -0.400000 -0.400000  0.400000    0.00800000  18 t-inv F
 -0.200000 -0.200000 -0.200000    0.00800000  11 t-inv T
  0.200000 -0.200000  0.200000    0.00800000  11 t-inv T
 -0.200000  0.200000  0.200000    0.00800000  11 t-inv T
  0.200000  0.200000 -0.200000    0.00800000  11 t-inv T
 -0.400000 -0.200000 -0.200000    0.00800000  12 t-inv T
  0.400000 -0.200000  0.200000    0.00800000  12 t-inv T
 -0.400000  0.200000  0.200000    0.00800000  12 t-inv T
  0.400000  0.200000 -0.200000    0.00800000  12 t-inv T
 -0.200000 -0.400000 -0.200000    0.00800000  14 t-inv T
  0.200000 -0.200000  0.400000    0.00800000  14 t-inv T
 -0.200000  0.400000  0.200000    0.00800000  14 t-inv T
  0.200000  0.200000 -0.400000    0.00800000  14 t-inv T
  0.200000  0.400000 -0.200000    0.00800000  14 t-inv T
 -0.200000  0.200000  0.400000    0.00800000  14 t-inv T
  0.200000 -0.400000  0.200000    0.00800000  14 t-inv T
 -0.200000 -0.200000 -0.400000    0.00800000  14 t-inv T
 -0.400000 -0.400000 -0.200000    0.00800000  15 t-inv T
  0.400000 -0.200000  0.400000    0.00800000  15 t-inv T
 -0.400000  0.400000  0.200000    0.00800000  15 t-inv T
  0.400000  0.200000 -0.400000    0.00800000  15 t-inv T
  0.400000  0.400000 -0.200000    0.00800000  15 t-inv T
 -0.400000  0.200000  0.400000    0.00800000  15 t-inv T
  0.400000 -0.400000  0.200000    0.00800000  15 t-inv T
 -0.400000 -0.200000 -0.400000    0.00800000  15 t-inv T
 -0.200000 -0.400000 -0.400000    0.00800000  17 t-inv T
  0.200000 -0.400000  0.400000    0.00800000  17 t-inv T
 -0.200000  0.400000  0.400000    0.00800000  17 t-inv T
  0.200000  0.400000 -0.400000    0.00800000  17 t-inv T
 -0.400000 -0.400000 -0.400000    0.00800000  18 t-inv T
  0.400000 -0.400000  0.400000    0.00800000  18 t-inv T
 -0.400000  0.400000  0.400000    0.00800000  18 t-inv T
  0.400000  0.400000 -0.400000    0.00800000  18 t-inv T


--------------------------------------------------------------------------------------------------------




 Dimension of arrays:
   k-points           NKPTS =     18   k-points in BZ     NKDIM =     18   number of bands    NBANDS=    168
   number of dos      NEDOS =    301   number of ions     NIONS =     64
   non local maximal  LDIM  =      5   non local SUM 2l+1 LMDIM =     13
   total plane-waves  NPLWV = 188160
   max r-space proj   IRMAX =      1   max aug-charges    IRDMAX=   8956
   dimension x,y,z NGX =    60 NGY =   56 NGZ =   56
   dimension x,y,z NGXF=   120 NGYF=  112 NGZF=  112
   support grid    NGXF=   120 NGYF=  112 NGZF=  112
   ions per type =              32  32
   NGX,Y,Z   is equivalent  to a cutoff of   8.46,  8.13,  8.13 a.u.
   NGXF,Y,Z  is equivalent  to a cutoff of  16.93, 16.27, 16.27 a.u.

 SYSTEM =  GaAs                                    
 POSCAR =  cubic gallium arsenide                  

 Startparameter for this run:
   NWRITE =      2    write-flag & timer
   PREC   = normal    normal or accurate (medium, high low for compatibility)
   ISTART =      0    job   : 0-new  1-cont  2-samecut
   ICHARG =      2    charge: 1-file 2-atom 10-const
   ISPIN  =      1    spin polarized calculation?
   LNONCOLLINEAR =      F non collinear calculations
   LSORBIT =      F    spin-orbit coupling
   INIWAV =      1    electr: 0-lowe 1-rand  2-diag
   LASPH  =      F    aspherical Exc in radial PAW
 Electronic Relaxation 1
   ENCUT  =  400.0 eV  29.40 Ry    5.42 a.u.  19.22 18.67 18.67*2*pi/ulx,y,z
   ENINI  =  400.0     initial cutoff
   ENAUG  =  462.8 eV  augmentation charge cutoff
   NELM   =     60;   NELMIN=  2; NELMDL= -5     # of ELM steps 
   EDIFF  = 0.1E-05   stopping-criterion for ELM
   LREAL  =      F    real-space projection
   NLSPLINE    = F    spline interpolate recip. space projectors
   LCOMPAT=      F    compatible to vasp.4.4
   GGA_COMPAT  = T    GGA compatible to vasp.4.4-vasp.4.6
   LMAXPAW     = -100 max onsite density
   LMAXMIX     =    2 max onsite mixed and CHGCAR
   VOSKOWN=      0    Vosko Wilk Nusair interpolation
   ROPT   =    0.00000   0.00000
 Ionic relaxation
   EDIFFG = 0.1E-02   stopping-criterion for IOM
   NSW    =    100    number of steps for IOM
   NBLOCK =      1;   KBLOCK =    100    inner block; outer block 
   IBRION =      2    ionic relax: 0-MD 1-quasi-New 2-CG
   NFREE  =      2    steps in history (QN), initial steepest desc. (CG)
   ISIF   =      2    stress and relaxation
   IWAVPR =     11    prediction:  0-non 1-charg 2-wave 3-comb
   ISYM   =      2    0-nonsym 1-usesym 2-fastsym
   LCORR  =      T    Harris-Foulkes like correction to forces

   POTIM  = 0.1000    time-step for ionic-motion
   TEIN   =    0.0    initial temperature
   TEBEG  =    0.0;   TEEND  =   0.0 temperature during run
   SMASS  =  -3.00    Nose mass-parameter (am)
   estimated Nose-frequenzy (Omega)   =  0.10E-29 period in steps = 0.63E+47 mass=  -0.317E-26a.u.
   SCALEE = 1.0000    scale energy and forces
   NPACO  =    256;   APACO  = 10.0  distance and # of slots for P.C.
   PSTRESS=    0.0 pullay stress

  Mass of Ions in am
   POMASS =  74.92 69.72
  Ionic Valenz
   ZVAL   =   5.00  3.00
  Atomic Wigner-Seitz radii
   RWIGS  =  -1.00 -1.00
  virtual crystal weights 
   VCA    =   1.00  1.00
   NELECT =     256.0000    total number of electrons
   NUPDOWN=      -1.0000    fix difference up-down

 DOS related values:
   EMIN   =  10.00;   EMAX   =-10.00  energy-range for DOS
   EFERMI =   0.00;   METHOD = LEGACY      
   ISMEAR =    -5;   SIGMA  =   0.10  broadening in eV -4-tet -1-fermi 0-gaus

 Electronic relaxation 2 (details)
   IALGO  =     38    algorithm
   LDIAG  =      T    sub-space diagonalisation (order eigenvalues)
   LSUBROT=      F    optimize rotation matrix (better conditioning)
   TURBO    =      0    0=normal 1=particle mesh
   IRESTART =      0    0=no restart 2=restart with 2 vectors
   NREBOOT  =      0    no. of reboots
   NMIN     =      0    reboot dimension
   EREF     =   0.00    reference energy to select bands
   IMIX   =      4    mixing-type and parameters
     AMIX     =   0.40;   BMIX     =  1.00
     AMIX_MAG =   1.60;   BMIX_MAG =  1.00
     AMIN     =   0.10
     WC   =   100.;   INIMIX=   1;  MIXPRE=   1;  MAXMIX= -45

 Intra band minimization:
   WEIMIN = 0.0010     energy-eigenvalue tresh-hold
   EBREAK =  0.15E-08  absolut break condition
   DEPER  =   0.30     relativ break condition  

   TIME   =   0.40     timestep for ELM

  volume/ion in A,a.u.               =      24.13       162.83
  Fermi-wavevector in a.u.,A,eV,Ry     =   0.899328  1.699484 11.004271  0.808791
  Thomas-Fermi vector in A             =   2.022148
 
 Write flags
   LWAVE        =      T    write WAVECAR
   LDOWNSAMPLE  =      F    k-point downsampling of WAVECAR
   LCHARG       =      T    write CHGCAR
   LVTOT        =      F    write LOCPOT, total local potential
   LVHAR        =      F    write LOCPOT, Hartree potential only
   WRT_POTENTIAL= false  ! write potential to hdf5 file
   LELF         =      F    write electronic localiz. function (ELF)
   LORBIT       =      0    0 simple, 1 ext, 2 COOP (PROOUT), +10 PAW based schemes


 Dipole corrections
   LMONO      =      F    monopole corrections only (constant potential shift)
   LDIPOL     =      F    correct potential (dipole corrections)
   IDIPOL     =      0    1-x, 2-y, 3-z, 4-all directions 
   EPSILON    =  1.0000000 bulk dielectric constant
   LVACPOTAV  =      F  vacuum potentials using an averaging scheme for the charge density
   VACPOTFLAT =  0.1000000 required flatness to determine vacuum potential
 Exchange correlation treatment:
   GGA     = PE    functional components
   XC_C    = 1    coefficients multiplying the functional components
   LIBXC   =     F    Libxc                    
   VOSKOWN =     0    Vosko Wilk Nusair interpolation
   LHFCALC =     F    Hartree Fock is set to
   LHFONE  =     F    Hartree Fock one center treatment
   AEXX    =    0.0000 exact exchange contribution

 Parameters of functionals:
   PE:
     No parameter
 
 Van der Waals corrections
   IVDW    =     0    specifies the selected vdW correction

 Linear response parameters
   LEPSILON=     T    determine dielectric tensor
   LRPA    =     F    only Hartree local field effects (RPA)
   LNABLA  =     F    use nabla operator in PAW spheres
   LVEL    =     F    velocity operator in full k-point grid
   CSHIFT  =0.1000    complex shift for real part using Kramers Kronig
   OMEGAMAX=  -1.0    maximum frequency
   DEG_THRESHOLD= 0.2000000E-02 threshold for treating states as degnerate
   RTIME   =   -0.100 relaxation time in fs
  (WPLASMAI=    0.000 imaginary part of plasma frequency in eV, 0.658/RTIME)
   DFIELD  = 0.0000000 0.0000000 0.0000000 field for delta impulse in time
 
  Optional k-point grid parameters
   LKPOINTS_OPT  =     F    use optional k-point grid
   KPOINTS_OPT_MODE=     1    mode for optional k-point grid
 
 Orbital magnetization related:
   ORBITALMAG=     F  switch on orbital magnetization
   LCHIMAG   =     F  perturbation theory with respect to B field
   DQ        =  0.001000  dq finite difference perturbation B field
   LLRAUG    =     F  two centre corrections for induced B field
   LBONE     =     F  B-component reconstruction in AE one-centre
   LVGVCALC  =     T  calculate vGv susceptibility
   LVGVAPPL  =     F  apply vGv susceptibility instead of pGv for G=0

 Random number generation:
   RANDOM_GENERATOR = DEFAULT
   PCG_SEED         = not used


--------------------------------------------------------------------------------------------------------


 conjugate gradient relaxation of ions
 charge density and potential will be updated during run
 non-spin polarized calculation
 Variant of blocked Davidson
 Davidson routine will perform the subspace rotation
 perform sub-space diagonalisation
    after iterative eigenvector-optimisation
 modified Broyden-mixing scheme, WC =      100.0
 initial mixing is a Kerker type mixing with AMIX =  0.4000 and BMIX =      1.0000
 Hartree-type preconditioning will be used
 using additional bands           40
 reciprocal scheme for non local part
 use partial core corrections
 calculate Harris-corrections to forces 
   (improved forces if not selfconsistent)
 use gradient corrections 
 use of overlap-Matrix (Vanderbilt PP)
 Fermi weights with tetrahedron method with Bloechl corrections


--------------------------------------------------------------------------------------------------------


  energy-cutoff  :      400.00
  volume of cell :     1544.22
      direct lattice vectors                 reciprocal lattice vectors
    11.786152830  0.000000000  0.000000000     0.084845328  0.000000000  0.000000000
     0.000000000 11.446400405  0.000000000     0.000000000  0.087363710  0.000000000
     0.000000000  0.000000000 11.446400405     0.000000000  0.000000000  0.087363710

  length of vectors
    11.786152830 11.446400405 11.446400405     0.084845328  0.087363710  0.087363710


 
 k-points in units of 2pi/SCALE and weight: Automatic mesh                          
   0.00000000  0.00000000  0.00000000       0.008
   0.01696907  0.00000000  0.00000000       0.016
   0.03393813  0.00000000  0.00000000       0.016
   0.00000000  0.01747274  0.00000000       0.032
   0.01696907  0.01747274  0.00000000       0.064
   0.03393813  0.01747274  0.00000000       0.064
   0.00000000  0.03494548  0.00000000       0.032
   0.01696907  0.03494548  0.00000000       0.064
   0.03393813  0.03494548  0.00000000       0.064
   0.00000000  0.01747274  0.01747274       0.032
   0.01696907  0.01747274  0.01747274       0.064
   0.03393813  0.01747274  0.01747274       0.064
   0.00000000  0.03494548  0.01747274       0.064
   0.01696907  0.03494548  0.01747274       0.128
   0.03393813  0.03494548  0.01747274       0.128
   0.00000000  0.03494548  0.03494548       0.032
   0.01696907  0.03494548  0.03494548       0.064
   0.03393813  0.03494548  0.03494548       0.064
 
 k-points in reciprocal lattice and weights: Automatic mesh                          
   0.00000000  0.00000000  0.00000000       0.008
   0.20000000  0.00000000  0.00000000       0.016
   0.40000000  0.00000000  0.00000000       0.016
   0.00000000  0.20000000  0.00000000       0.032
   0.20000000  0.20000000  0.00000000       0.064
   0.40000000  0.20000000  0.00000000       0.064
   0.00000000  0.40000000  0.00000000       0.032
   0.20000000  0.40000000  0.00000000       0.064
   0.40000000  0.40000000  0.00000000       0.064
   0.00000000  0.20000000  0.20000000       0.032
   0.20000000  0.20000000  0.20000000       0.064
   0.40000000  0.20000000  0.20000000       0.064
   0.00000000  0.40000000  0.20000000       0.064
   0.20000000  0.40000000  0.20000000       0.128
   0.40000000  0.40000000  0.20000000       0.128
   0.00000000  0.40000000  0.40000000       0.032
   0.20000000  0.40000000  0.40000000       0.064
   0.40000000  0.40000000  0.40000000       0.064
 
 position of ions in fractional coordinates (direct lattice) 
   0.00000000  0.00000000  0.00000000
   0.00000000  0.00000000  0.50000000
   0.00000000  0.50000000  0.00000000
   0.00000000  0.50000000  0.50000000
   0.50000000  0.00000000  0.00000000
   0.50000000  0.00000000  0.50000000
   0.50000000  0.50000000  0.00000000
   0.50000000  0.50000000  0.50000000
   0.25000000  0.25000000  0.00000000
   0.25000000  0.25000000  0.50000000
   0.25000000  0.75000000  0.00000000
   0.25000000  0.75000000  0.50000000
   0.75000000  0.25000000  0.00000000
   0.75000000  0.25000000  0.50000000
   0.75000000  0.75000000  0.00000000
   0.75000000  0.75000000  0.50000000
   0.25000000  0.00000000  0.25000000
   0.25000000  0.00000000  0.75000000
   0.25000000  0.50000000  0.25000000
   0.25000000  0.50000000  0.75000000
   0.75000000  0.00000000  0.25000000
   0.75000000  0.00000000  0.75000000
   0.75000000  0.50000000  0.25000000
   0.75000000  0.50000000  0.75000000
   0.00000000  0.25000000  0.25000000
   0.00000000  0.25000000  0.75000000
   0.00000000  0.75000000  0.25000000
   0.00000000  0.75000000  0.75000000
   0.50000000  0.25000000  0.25000000
   0.50000000  0.25000000  0.75000000
   0.50000000  0.75000000  0.25000000
   0.50000000  0.75000000  0.75000000
   0.12500000  0.12500000  0.12500000
   0.12500000  0.12500000  0.62500000
   0.12500000  0.62500000  0.12500000
   0.12500000  0.62500000  0.62500000
   0.62500000  0.12500000  0.12500000
   0.62500000  0.12500000  0.62500000
   0.62500000  0.62500000  0.12500000
   0.62500000  0.62500000  0.62500000
   0.37500000  0.12500000  0.37500000
   0.37500000  0.12500000  0.87500000
   0.37500000  0.62500000  0.37500000
   0.37500000  0.62500000  0.87500000
   0.87500000  0.12500000  0.37500000
   0.87500000  0.12500000  0.87500000
   0.87500000  0.62500000  0.37500000
   0.87500000  0.62500000  0.87500000
   0.37500000  0.37500000  0.12500000
   0.37500000  0.37500000  0.62500000
   0.37500000  0.87500000  0.12500000
   0.37500000  0.87500000  0.62500000
   0.87500000  0.37500000  0.12500000
   0.87500000  0.37500000  0.62500000
   0.87500000  0.87500000  0.12500000
   0.87500000  0.87500000  0.62500000
   0.12500000  0.37500000  0.37500000
   0.12500000  0.37500000  0.87500000
   0.12500000  0.87500000  0.37500000
   0.12500000  0.87500000  0.87500000
   0.62500000  0.37500000  0.37500000
   0.62500000  0.37500000  0.87500000
   0.62500000  0.87500000  0.37500000
   0.62500000  0.87500000  0.87500000
 
 position of ions in cartesian coordinates  (Angst):
   0.00000000  0.00000000  0.00000000
   0.00000000  0.00000000  5.72320020
   0.00000000  5.72320020  0.00000000
   0.00000000  5.72320020  5.72320020
   5.89307641  0.00000000  0.00000000
   5.89307641  0.00000000  5.72320020
   5.89307641  5.72320020  0.00000000
   5.89307641  5.72320020  5.72320020
   2.94653821  2.86160010  0.00000000
   2.94653821  2.86160010  5.72320020
   2.94653821  8.58480030  0.00000000
   2.94653821  8.58480030  5.72320020
   8.83961462  2.86160010  0.00000000
   8.83961462  2.86160010  5.72320020
   8.83961462  8.58480030  0.00000000
   8.83961462  8.58480030  5.72320020
   2.94653821  0.00000000  2.86160010
   2.94653821  0.00000000  8.58480030
   2.94653821  5.72320020  2.86160010
   2.94653821  5.72320020  8.58480030
   8.83961462  0.00000000  2.86160010
   8.83961462  0.00000000  8.58480030
   8.83961462  5.72320020  2.86160010
   8.83961462  5.72320020  8.58480030
   0.00000000  2.86160010  2.86160010
   0.00000000  2.86160010  8.58480030
   0.00000000  8.58480030  2.86160010
   0.00000000  8.58480030  8.58480030
   5.89307641  2.86160010  2.86160010
   5.89307641  2.86160010  8.58480030
   5.89307641  8.58480030  2.86160010
   5.89307641  8.58480030  8.58480030
   1.47326910  1.43080005  1.43080005
   1.47326910  1.43080005  7.15400025
   1.47326910  7.15400025  1.43080005
   1.47326910  7.15400025  7.15400025
   7.36634552  1.43080005  1.43080005
   7.36634552  1.43080005  7.15400025
   7.36634552  7.15400025  1.43080005
   7.36634552  7.15400025  7.15400025
   4.41980731  1.43080005  4.29240015
   4.41980731  1.43080005 10.01560035
   4.41980731  7.15400025  4.29240015
   4.41980731  7.15400025 10.01560035
  10.31288373  1.43080005  4.29240015
  10.31288373  1.43080005 10.01560035
  10.31288373  7.15400025  4.29240015
  10.31288373  7.15400025 10.01560035
   4.41980731  4.29240015  1.43080005
   4.41980731  4.29240015  7.15400025
   4.41980731 10.01560035  1.43080005
   4.41980731 10.01560035  7.15400025
  10.31288373  4.29240015  1.43080005
  10.31288373  4.29240015  7.15400025
  10.31288373 10.01560035  1.43080005
  10.31288373 10.01560035  7.15400025
   1.47326910  4.29240015  4.29240015
   1.47326910  4.29240015 10.01560035
   1.47326910 10.01560035  4.29240015
   1.47326910 10.01560035 10.01560035
   7.36634552  4.29240015  4.29240015
   7.36634552  4.29240015 10.01560035
   7.36634552 10.01560035  4.29240015
   7.36634552 10.01560035 10.01560035
 


--------------------------------------------------------------------------------------------------------


 k-point     1 :   0.0000 0.0000 0.0000  plane waves:   28051
 k-point     2 :   0.2000 0.0000 0.0000  plane waves:   28023
 k-point     3 :   0.4000 0.0000 0.0000  plane waves:   28118
 k-point     4 :   0.0000 0.2000 0.0000  plane waves:   28045
 k-point     5 :   0.2000 0.2000 0.0000  plane waves:   28059
 k-point     6 :   0.4000 0.2000 0.0000  plane waves:   28058
 k-point     7 :   0.0000 0.4000 0.0000  plane waves:   28068
 k-point     8 :   0.2000 0.4000 0.0000  plane waves:   28041
 k-point     9 :   0.4000 0.4000 0.0000  plane waves:   28066
 k-point    10 :   0.0000 0.2000 0.2000  plane waves:   28062
 k-point    11 :   0.2000 0.2000 0.2000  plane waves:   28048
 k-point    12 :   0.4000 0.2000 0.2000  plane waves:   28069
 k-point    13 :   0.0000 0.4000 0.2000  plane waves:   28047
 k-point    14 :   0.2000 0.4000 0.2000  plane waves:   28038
 k-point    15 :   0.4000 0.4000 0.2000  plane waves:   28044
 k-point    16 :   0.0000 0.4000 0.4000  plane waves:   28048
 k-point    17 :   0.2000 0.4000 0.4000  plane waves:   28062
 k-point    18 :   0.4000 0.4000 0.4000  plane waves:   28024

 maximum and minimum number of plane-waves per node :     28118    28023

 maximum number of plane-waves:     28118
 maximum index in each direction: 
   IXMAX=   19   IYMAX=   18   IZMAX=   18
   IXMIN=  -19   IYMIN=  -19   IZMIN=  -19


 serial   3D FFT for wavefunctions
 parallel 3D FFT for charge:
    minimum data exchange during FFTs selected (reduces bandwidth)


 total amount of memory used by VASP MPI-rank0   365159. kBytes
=======================================================================

   base      :      30000. kBytes
   nonl-proj :     134076. kBytes
   fftplans  :       7212. kBytes
   grid      :      18251. kBytes
   one-center:        519. kBytes
   wavefun   :     175101. kBytes
 
     INWAV:  cpu time      0.0000: real time      0.0002
 Broyden mixing: mesh for mixing (old mesh)
   NGX = 39   NGY = 37   NGZ = 37
  (NGX  =120   NGY  =112   NGZ  =112)
  gives a total of  53391 points

 initial charge density was supplied:
 charge density of overlapping atoms calculated
 number of electron     256.0000000 magnetization 
 keeping initial charge density in first step


--------------------------------------------------------------------------------------------------------


 Maximum index for augmentation-charges         1091 (set IRDMAX)


--------------------------------------------------------------------------------------------------------


 First call to EWALD:  gamma=   0.153
 Maximum number of real-space cells 3x 3x 3
 Maximum number of reciprocal cells 3x 3x 3

    FEWALD:  cpu time      0.0025: real time      0.0025


--------------------------------------- Ionic step        1  -------------------------------------------




--------------------------------------- Iteration      1(   1)  ---------------------------------------


    POTLOK:  cpu time      0.1265: real time      0.1299
    SETDIJ:  cpu time      0.0110: real time      0.0111
     EDDAV:  cpu time     74.2486: real time     75.3961
 BZINTS: Fermi energy:    9.686778;  256.000000 electrons
         Band energy: 0.370683E+03;  BLOECHL correction:   -0.011293
       DOS:  cpu time      0.0127: real time      0.0128
    --------------------------------------------
      LOOP:  cpu time     74.3989: real time     75.5499

 eigenvalue-minimisations  :  6048
 total energy-change (2. order) : 0.9335733E+03  (-0.8070665E+04)
 number of electron     256.0000000 magnetization 
 augmentation part      256.0000000 magnetization 

 Free energy of the ion-electron system (eV)
  ---------------------------------------------------
  alpha Z        PSCENC =       567.12451340
  Ewald energy   TEWEN  =     -7174.45575884
  -Hartree energ DENC   =      -606.78911942
  -exchange      EXHF   =         0.00000000
  -V(xc)+E(xc)   XCENC  =      -996.94913312
  PAW double counting   =      6692.16565901    -5247.93935635
  entropy T*S    EENTRO =         0.00000000
  eigenvalues    EBANDS =       370.68338214
  atomic energy  EATOM  =      7329.73306348
  Solvation  Ediel_sol  =         0.00000000
  ---------------------------------------------------
  free energy    TOTEN  =       933.57325030 eV

  energy without entropy =      933.57325030  energy(sigma->0) =      933.57325030


--------------------------------------------------------------------------------------------------------




--------------------------------------- Iteration      1(   2)  ---------------------------------------


     EDDAV:  cpu time     84.5102: real time     85.7514
 BZINTS: Fermi energy:    2.880504;  256.000000 electrons
         Band energy:-0.729210E+03;  BLOECHL correction:    0.000000
       DOS:  cpu time      0.0075: real time      0.0075
    --------------------------------------------
      LOOP:  cpu time     84.5176: real time     85.7589

 eigenvalue-minimisations  :  7184
 total energy-change (2. order) :-0.1099893E+04  (-0.1047967E+04)
 number of electron     256.0000000 magnetization 
 augmentation part      256.0000000 magnetization 

 Free energy of the ion-electron system (eV)
  ---------------------------------------------------
  alpha Z        PSCENC =       567.12451340
  Ewald energy   TEWEN  =     -7174.45575884
  -Hartree energ DENC   =      -606.78911942
  -exchange      EXHF   =         0.00000000
  -V(xc)+E(xc)   XCENC  =      -996.94913312
  PAW double counting   =      6692.16565901    -5247.93935635
  entropy T*S    EENTRO =         0.00000000
  eigenvalues    EBANDS =      -729.20968427
  atomic energy  EATOM  =      7329.73306348
  Solvation  Ediel_sol  =         0.00000000
  ---------------------------------------------------
  free energy    TOTEN  =      -166.31981611 eV

  energy without entropy =     -166.31981611  energy(sigma->0) =     -166.31981611


--------------------------------------------------------------------------------------------------------




--------------------------------------- Iteration      1(   3)  ---------------------------------------


     EDDAV:  cpu time     86.3985: real time     87.6911
 BZINTS: Fermi energy:    1.796437;  256.000000 electrons
         Band energy:-0.830291E+03;  BLOECHL correction:    0.000000
       DOS:  cpu time      0.0078: real time      0.0078
    --------------------------------------------
      LOOP:  cpu time     86.4063: real time     87.6989

 eigenvalue-minimisations  :  7408
 total energy-change (2. order) :-0.1010811E+03  (-0.9968652E+02)
 number of electron     256.0000000 magnetization 
 augmentation part      256.0000000 magnetization 

 Free energy of the ion-electron system (eV)
  ---------------------------------------------------
  alpha Z        PSCENC =       567.12451340
  Ewald energy   TEWEN  =     -7174.45575884
  -Hartree energ DENC   =      -606.78911942
  -exchange      EXHF   =         0.00000000
  -V(xc)+E(xc)   XCENC  =      -996.94913312
  PAW double counting   =      6692.16565901    -5247.93935635
  entropy T*S    EENTRO =         0.00000000
  eigenvalues    EBANDS =      -830.29078489
  atomic energy  EATOM  =      7329.73306348
  Solvation  Ediel_sol  =         0.00000000
  ---------------------------------------------------
  free energy    TOTEN  =      -267.40091673 eV

  energy without entropy =     -267.40091673  energy(sigma->0) =     -267.40091673


--------------------------------------------------------------------------------------------------------




--------------------------------------- Iteration      1(   4)  ---------------------------------------


     EDDAV:  cpu time     85.5617: real time     86.8091
 BZINTS: Fermi energy:    1.811523;  256.000000 electrons
         Band energy:-0.832822E+03;  BLOECHL correction:    0.000000
       DOS:  cpu time      0.0079: real time      0.0079
    --------------------------------------------
      LOOP:  cpu time     85.5696: real time     86.8170

 eigenvalue-minimisations  :  7304
 total energy-change (2. order) :-0.2530926E+01  (-0.2501444E+01)
 number of electron     256.0000000 magnetization 
 augmentation part      256.0000000 magnetization 

 Free energy of the ion-electron system (eV)
  ---------------------------------------------------
  alpha Z        PSCENC =       567.12451340
  Ewald energy   TEWEN  =     -7174.45575884
  -Hartree energ DENC   =      -606.78911942
  -exchange      EXHF   =         0.00000000
  -V(xc)+E(xc)   XCENC  =      -996.94913312
  PAW double counting   =      6692.16565901    -5247.93935635
  entropy T*S    EENTRO =         0.00000000
  eigenvalues    EBANDS =      -832.82171064
  atomic energy  EATOM  =      7329.73306348
  Solvation  Ediel_sol  =         0.00000000
  ---------------------------------------------------
  free energy    TOTEN  =      -269.93184248 eV

  energy without entropy =     -269.93184248  energy(sigma->0) =     -269.93184248


--------------------------------------------------------------------------------------------------------




--------------------------------------- Iteration      1(   5)  ---------------------------------------


     EDDAV:  cpu time     85.5034: real time     86.7813
 BZINTS: Fermi energy:    1.781346;  256.000000 electrons
         Band energy:-0.832897E+03;  BLOECHL correction:    0.000000
       DOS:  cpu time      0.0077: real time      0.0078
    CHARGE:  cpu time      0.8209: real time      0.8258
    MIXING:  cpu time      0.0032: real time      0.0032
    --------------------------------------------
      LOOP:  cpu time     86.3352: real time     87.6181

 eigenvalue-minimisations  :  7368
 total energy-change (2. order) :-0.7509411E-01  (-0.7482001E-01)
 number of electron     255.9999944 magnetization 
 augmentation part      -41.5108840 magnetization 

 Broyden mixing:
  rms(total) = 0.19943E+01    rms(broyden)= 0.19942E+01
  rms(prec ) = 0.22677E+01
  weight for this iteration     100.00

 Free energy of the ion-electron system (eV)
  ---------------------------------------------------
  alpha Z        PSCENC =       567.12451340
  Ewald energy   TEWEN  =     -7174.45575884
  -Hartree energ DENC   =      -606.78911942
  -exchange      EXHF   =         0.00000000
  -V(xc)+E(xc)   XCENC  =      -996.94913312
  PAW double counting   =      6692.16565901    -5247.93935635
  entropy T*S    EENTRO =         0.00000000
  eigenvalues    EBANDS =      -832.89680474
  atomic energy  EATOM  =      7329.73306348
  Solvation  Ediel_sol  =         0.00000000
  ---------------------------------------------------
  free energy    TOTEN  =      -270.00693658 eV

  energy without entropy =     -270.00693658  energy(sigma->0) =     -270.00693658


--------------------------------------------------------------------------------------------------------




--------------------------------------- Iteration      1(   6)  ---------------------------------------


    POTLOK:  cpu time      0.1216: real time      0.1271
    SETDIJ:  cpu time      0.0111: real time      0.0112
     EDDAV:  cpu time     83.5686: real time     84.8728
 BZINTS: Fermi energy:    2.038540;  256.000000 electrons
         Band energy:-0.781573E+03;  BLOECHL correction:    0.000000
       DOS:  cpu time      0.0078: real time      0.0078
    CHARGE:  cpu time      0.8126: real time      0.8183
    MIXING:  cpu time      0.0036: real time      0.0036
    --------------------------------------------
      LOOP:  cpu time     84.5252: real time     85.8409

 eigenvalue-minimisations  :  7024
 total energy-change (2. order) : 0.4158532E+01  (-0.6550525E+00)
 number of electron     255.9999946 magnetization 
 augmentation part      -41.3944610 magnetization 

 Broyden mixing:
  rms(total) = 0.11699E+01    rms(broyden)= 0.11699E+01
  rms(prec ) = 0.12903E+01
  weight for this iteration     100.00

 eigenvalues of (default mixing * dielectric matrix)
  average eigenvalue GAMMA=   2.2545
  2.2545

 Free energy of the ion-electron system (eV)
  ---------------------------------------------------
  alpha Z        PSCENC =       567.12451340
  Ewald energy   TEWEN  =     -7174.45575884
  -Hartree energ DENC   =      -657.29542036
  -exchange      EXHF   =         0.00000000
  -V(xc)+E(xc)   XCENC  =      -988.17936095
  PAW double counting   =      9360.61060833    -7921.81320198
  entropy T*S    EENTRO =         0.00000000
  eigenvalues    EBANDS =      -781.57284724
  atomic energy  EATOM  =      7329.73306348
  Solvation  Ediel_sol  =         0.00000000
  ---------------------------------------------------
  free energy    TOTEN  =      -265.84840418 eV

  energy without entropy =     -265.84840418  energy(sigma->0) =     -265.84840418


--------------------------------------------------------------------------------------------------------




--------------------------------------- Iteration      1(   7)  ---------------------------------------


    POTLOK:  cpu time      0.1206: real time      0.1273
    SETDIJ:  cpu time      0.0109: real time      0.0110
     EDDAV:  cpu time     78.7851: real time     79.9634
 BZINTS: Fermi energy:    2.281230;  256.000000 electrons
         Band energy:-0.733380E+03;  BLOECHL correction:   -0.000000
       DOS:  cpu time      0.0086: real time      0.0086
    CHARGE:  cpu time      0.8262: real time      0.8318
    MIXING:  cpu time      0.0035: real time      0.0035
    --------------------------------------------
      LOOP:  cpu time     79.7549: real time     80.9457

 eigenvalue-minimisations  :  7280
 total energy-change (2. order) : 0.8064753E+00  (-0.4298811E+00)
 number of electron     255.9999948 magnetization 
 augmentation part      -41.2824758 magnetization 

 Broyden mixing:
  rms(total) = 0.24466E+00    rms(broyden)= 0.24466E+00
  rms(prec ) = 0.28640E+00
  weight for this iteration     100.00

 eigenvalues of (default mixing * dielectric matrix)
  average eigenvalue GAMMA=   1.9343
  1.6152  2.2534

 Free energy of the ion-electron system (eV)
  ---------------------------------------------------
  alpha Z        PSCENC =       567.12451340
  Ewald energy   TEWEN  =     -7174.45575884
  -Hartree energ DENC   =      -709.73989719
  -exchange      EXHF   =         0.00000000
  -V(xc)+E(xc)   XCENC  =      -977.44248048
  PAW double counting   =     13770.81786333   -12337.69968382
  entropy T*S    EENTRO =         0.00000000
  eigenvalues    EBANDS =      -733.37954871
  atomic energy  EATOM  =      7329.73306348
  Solvation  Ediel_sol  =         0.00000000
  ---------------------------------------------------
  free energy    TOTEN  =      -265.04192883 eV

  energy without entropy =     -265.04192883  energy(sigma->0) =     -265.04192883


--------------------------------------------------------------------------------------------------------




--------------------------------------- Iteration      1(   8)  ---------------------------------------


    POTLOK:  cpu time      0.1181: real time      0.1261
    SETDIJ:  cpu time      0.0111: real time      0.0112
     EDDAV:  cpu time     76.4193: real time     77.6047
 BZINTS: Fermi energy:    2.278064;  256.000000 electrons
         Band energy:-0.735127E+03;  BLOECHL correction:    0.000000
       DOS:  cpu time      0.0078: real time      0.0078
    CHARGE:  cpu time      0.8287: real time      0.8346
    MIXING:  cpu time      0.0036: real time      0.0037
    --------------------------------------------
      LOOP:  cpu time     77.3886: real time     78.5881

 eigenvalue-minimisations  :  7056
 total energy-change (2. order) : 0.4183283E-01  (-0.5138938E-01)
 number of electron     255.9999948 magnetization 
 augmentation part      -41.2839074 magnetization 

 Broyden mixing:
  rms(total) = 0.61392E-01    rms(broyden)= 0.61392E-01
  rms(prec ) = 0.71598E-01
  weight for this iteration     100.00

 eigenvalues of (default mixing * dielectric matrix)
  average eigenvalue GAMMA=   1.9450
  2.6778  1.5786  1.5786

 Free energy of the ion-electron system (eV)
  ---------------------------------------------------
  alpha Z        PSCENC =       567.12451340
  Ewald energy   TEWEN  =     -7174.45575884
  -Hartree energ DENC   =      -708.99791037
  -exchange      EXHF   =         0.00000000
  -V(xc)+E(xc)   XCENC  =      -976.10375115
  PAW double counting   =     14422.30719187   -12989.48013703
  entropy T*S    EENTRO =         0.00000000
  eigenvalues    EBANDS =      -735.12730737
  atomic energy  EATOM  =      7329.73306348
  Solvation  Ediel_sol  =         0.00000000
  ---------------------------------------------------
  free energy    TOTEN  =      -265.00009600 eV

  energy without entropy =     -265.00009600  energy(sigma->0) =     -265.00009600


--------------------------------------------------------------------------------------------------------




--------------------------------------- Iteration      1(   9)  ---------------------------------------


    POTLOK:  cpu time      0.1157: real time      0.1220
    SETDIJ:  cpu time      0.0114: real time      0.0115
     EDDAV:  cpu time     77.0466: real time     78.2208
 BZINTS: Fermi energy:    2.296490;  256.000000 electrons
         Band energy:-0.731068E+03;  BLOECHL correction:    0.000000
       DOS:  cpu time      0.0080: real time      0.0080
    CHARGE:  cpu time      0.8233: real time      0.8285
    MIXING:  cpu time      0.0044: real time      0.0044
    --------------------------------------------
      LOOP:  cpu time     78.0094: real time     79.1952

 eigenvalue-minimisations  :  6912
 total energy-change (2. order) :-0.1155111E-01  (-0.3670437E-02)
 number of electron     255.9999948 magnetization 
 augmentation part      -41.2852902 magnetization 

 Broyden mixing:
  rms(total) = 0.23436E-01    rms(broyden)= 0.23436E-01
  rms(prec ) = 0.24878E-01
  weight for this iteration     100.00

 eigenvalues of (default mixing * dielectric matrix)
  average eigenvalue GAMMA=   1.6740
  2.5683  1.6724  1.6724  0.7831

 Free energy of the ion-electron system (eV)
  ---------------------------------------------------
  alpha Z        PSCENC =       567.12451340
  Ewald energy   TEWEN  =     -7174.45575884
  -Hartree energ DENC   =      -713.78243606
  -exchange      EXHF   =         0.00000000
  -V(xc)+E(xc)   XCENC  =      -975.17948774
  PAW double counting   =     14615.61600182   -13182.99987858
  entropy T*S    EENTRO =         0.00000000
  eigenvalues    EBANDS =      -731.06766459
  atomic energy  EATOM  =      7329.73306348
  Solvation  Ediel_sol  =         0.00000000
  ---------------------------------------------------
  free energy    TOTEN  =      -265.01164711 eV

  energy without entropy =     -265.01164711  energy(sigma->0) =     -265.01164711


--------------------------------------------------------------------------------------------------------




--------------------------------------- Iteration      1(  10)  ---------------------------------------


    POTLOK:  cpu time      0.1211: real time      0.1265
    SETDIJ:  cpu time      0.0112: real time      0.0113
     EDDAV:  cpu time     82.8648: real time     84.1683
 BZINTS: Fermi energy:    2.275555;  256.000000 electrons
         Band energy:-0.731046E+03;  BLOECHL correction:    0.000000
       DOS:  cpu time      0.0080: real time      0.0080
    CHARGE:  cpu time      0.8121: real time      0.8176
    MIXING:  cpu time      0.0035: real time      0.0036
    --------------------------------------------
      LOOP:  cpu time     83.8207: real time     85.1353

 eigenvalue-minimisations  :  7464
 total energy-change (2. order) :-0.1172907E-02  (-0.1076958E-03)
 number of electron     255.9999948 magnetization 
 augmentation part      -41.2856815 magnetization 

 Broyden mixing:
  rms(total) = 0.10339E-01    rms(broyden)= 0.10339E-01
  rms(prec ) = 0.12138E-01
  weight for this iteration     100.00

 eigenvalues of (default mixing * dielectric matrix)
  average eigenvalue GAMMA=   1.9234
  3.1192  2.4972  1.0362  1.4821  1.4821

 Free energy of the ion-electron system (eV)
  ---------------------------------------------------
  alpha Z        PSCENC =       567.12451340
  Ewald energy   TEWEN  =     -7174.45575884
  -Hartree energ DENC   =      -713.84153835
  -exchange      EXHF   =         0.00000000
  -V(xc)+E(xc)   XCENC  =      -975.22689992
  PAW double counting   =     14528.39570766   -13095.69607334
  entropy T*S    EENTRO =         0.00000000
  eigenvalues    EBANDS =      -731.04583411
  atomic energy  EATOM  =      7329.73306348
  Solvation  Ediel_sol  =         0.00000000
  ---------------------------------------------------
  free energy    TOTEN  =      -265.01282002 eV

  energy without entropy =     -265.01282002  energy(sigma->0) =     -265.01282002


--------------------------------------------------------------------------------------------------------




--------------------------------------- Iteration      1(  11)  ---------------------------------------


    POTLOK:  cpu time      0.1193: real time      0.1252
    SETDIJ:  cpu time      0.0113: real time      0.0114
     EDDAV:  cpu time     75.5906: real time     76.6509
 BZINTS: Fermi energy:    2.290593;  256.000000 electrons
         Band energy:-0.730640E+03;  BLOECHL correction:    0.000000
       DOS:  cpu time      0.0081: real time      0.0081
    CHARGE:  cpu time      0.8339: real time      0.8393
    MIXING:  cpu time      0.0039: real time      0.0039
    --------------------------------------------
      LOOP:  cpu time     76.5672: real time     77.6389

 eigenvalue-minimisations  :  6544
 total energy-change (2. order) :-0.1280305E-02  (-0.2235388E-03)
 number of electron     255.9999948 magnetization 
 augmentation part      -41.2829620 magnetization 

 Broyden mixing:
  rms(total) = 0.50718E-02    rms(broyden)= 0.50718E-02
  rms(prec ) = 0.53625E-02
  weight for this iteration     100.00

 eigenvalues of (default mixing * dielectric matrix)
  average eigenvalue GAMMA=   1.7963
  3.0739  2.4803  1.6709  1.6709  0.9785  0.9032

 Free energy of the ion-electron system (eV)
  ---------------------------------------------------
  alpha Z        PSCENC =       567.12451340
  Ewald energy   TEWEN  =     -7174.45575884
  -Hartree energ DENC   =      -714.38384320
  -exchange      EXHF   =         0.00000000
  -V(xc)+E(xc)   XCENC  =      -975.14382892
  PAW double counting   =     14483.42691068   -13050.67524567
  entropy T*S    EENTRO =         0.00000000
  eigenvalues    EBANDS =      -730.63991124
  atomic energy  EATOM  =      7329.73306348
  Solvation  Ediel_sol  =         0.00000000
  ---------------------------------------------------
  free energy    TOTEN  =      -265.01410032 eV

  energy without entropy =     -265.01410032  energy(sigma->0) =     -265.01410032


--------------------------------------------------------------------------------------------------------




--------------------------------------- Iteration      1(  12)  ---------------------------------------


    POTLOK:  cpu time      0.1201: real time      0.1284
    SETDIJ:  cpu time      0.0110: real time      0.0111
     EDDAV:  cpu time     83.5485: real time     84.7838
 BZINTS: Fermi energy:    2.281704;  256.000000 electrons
         Band energy:-0.730586E+03;  BLOECHL correction:    0.000000
       DOS:  cpu time      0.0078: real time      0.0079
    CHARGE:  cpu time      0.8241: real time      0.8294
    MIXING:  cpu time      0.0041: real time      0.0041
    --------------------------------------------
      LOOP:  cpu time     84.5155: real time     85.7647

 eigenvalue-minimisations  :  7408
 total energy-change (2. order) :-0.4763071E-05  (-0.3862894E-05)
 number of electron     255.9999948 magnetization 
 augmentation part      -41.2828832 magnetization 

 Broyden mixing:
  rms(total) = 0.22204E-02    rms(broyden)= 0.22204E-02
  rms(prec ) = 0.24976E-02
  weight for this iteration     100.00

 eigenvalues of (default mixing * dielectric matrix)
  average eigenvalue GAMMA=   1.8819
  3.2459  2.6095  2.6095  1.3295  1.3295  1.0246  1.0246

 Free energy of the ion-electron system (eV)
  ---------------------------------------------------
  alpha Z        PSCENC =       567.12451340
  Ewald energy   TEWEN  =     -7174.45575884
  -Hartree energ DENC   =      -714.42516403
  -exchange      EXHF   =         0.00000000
  -V(xc)+E(xc)   XCENC  =      -975.14967271
  PAW double counting   =     14489.05999367   -13056.31552219
  entropy T*S    EENTRO =         0.00000000
  eigenvalues    EBANDS =      -730.58555787
  atomic energy  EATOM  =      7329.73306348
  Solvation  Ediel_sol  =         0.00000000
  ---------------------------------------------------
  free energy    TOTEN  =      -265.01410508 eV

  energy without entropy =     -265.01410508  energy(sigma->0) =     -265.01410508


--------------------------------------------------------------------------------------------------------




--------------------------------------- Iteration      1(  13)  ---------------------------------------


    POTLOK:  cpu time      0.1187: real time      0.1238
    SETDIJ:  cpu time      0.0113: real time      0.0114
     EDDAV:  cpu time     79.6129: real time     80.7944
 BZINTS: Fermi energy:    2.302938;  256.000000 electrons
         Band energy:-0.730458E+03;  BLOECHL correction:   -0.000000
       DOS:  cpu time      0.0078: real time      0.0078
    CHARGE:  cpu time      0.8348: real time      0.8398
    MIXING:  cpu time      0.0044: real time      0.0044
    --------------------------------------------
      LOOP:  cpu time     80.5898: real time     81.7817

 eigenvalue-minimisations  :  6952
 total energy-change (2. order) :-0.7832303E-05  (-0.8170397E-05)
 number of electron     255.9999948 magnetization 
 augmentation part      -41.2821810 magnetization 

 Broyden mixing:
  rms(total) = 0.93042E-03    rms(broyden)= 0.93042E-03
  rms(prec ) = 0.10399E-02
  weight for this iteration     100.00

 eigenvalues of (default mixing * dielectric matrix)
  average eigenvalue GAMMA=   1.8340
  3.3400  2.7813  2.4672  1.6027  1.6027  1.1110  0.8835  0.8835

 Free energy of the ion-electron system (eV)
  ---------------------------------------------------
  alpha Z        PSCENC =       567.12451340
  Ewald energy   TEWEN  =     -7174.45575884
  -Hartree energ DENC   =      -714.55179790
  -exchange      EXHF   =         0.00000000
  -V(xc)+E(xc)   XCENC  =      -975.14454013
  PAW double counting   =     14492.48610286   -13059.74757591
  entropy T*S    EENTRO =         0.00000000
  eigenvalues    EBANDS =      -730.45811988
  atomic energy  EATOM  =      7329.73306348
  Solvation  Ediel_sol  =         0.00000000
  ---------------------------------------------------
  free energy    TOTEN  =      -265.01411292 eV

  energy without entropy =     -265.01411292  energy(sigma->0) =     -265.01411292


--------------------------------------------------------------------------------------------------------




--------------------------------------- Iteration      1(  14)  ---------------------------------------


    POTLOK:  cpu time      0.1506: real time      0.1561
    SETDIJ:  cpu time      0.0119: real time      0.0120
     EDDAV:  cpu time     69.6254: real time     70.6123
 BZINTS: Fermi energy:    2.298671;  256.000000 electrons
         Band energy:-0.730469E+03;  BLOECHL correction:    0.000000
       DOS:  cpu time      0.0077: real time      0.0077
    --------------------------------------------
      LOOP:  cpu time     69.7956: real time     70.7883

 eigenvalue-minimisations  :  5856
 total energy-change (2. order) : 0.3026216E-06  (-0.4017896E-06)
 number of electron     255.9999948 magnetization 
 augmentation part      -41.2821810 magnetization 

 Free energy of the ion-electron system (eV)
  ---------------------------------------------------
  alpha Z        PSCENC =       567.12451340
  Ewald energy   TEWEN  =     -7174.45575884
  -Hartree energ DENC   =      -714.54194996
  -exchange      EXHF   =         0.00000000
  -V(xc)+E(xc)   XCENC  =      -975.14455186
  PAW double counting   =     14492.54357211   -13059.80396950
  entropy T*S    EENTRO =         0.00000000
  eigenvalues    EBANDS =      -730.46903144
  atomic energy  EATOM  =      7329.73306348
  Solvation  Ediel_sol  =         0.00000000
  ---------------------------------------------------
  free energy    TOTEN  =      -265.01411261 eV

  energy without entropy =     -265.01411261  energy(sigma->0) =     -265.01411261


--------------------------------------------------------------------------------------------------------




 average (electrostatic) potential at core
  the test charge radii are     1.0621  1.2767
  (the norm of the test charge is              1.0000)
       1 -51.9540       2 -51.9540       3 -51.9540       4 -51.9540       5 -51.9540
       6 -51.9540       7 -51.9540       8 -51.9540       9 -51.9540      10 -51.9540
      11 -51.9540      12 -51.9540      13 -51.9540      14 -51.9540      15 -51.9540
      16 -51.9540      17 -51.9540      18 -51.9540      19 -51.9540      20 -51.9540
      21 -51.9540      22 -51.9540      23 -51.9540      24 -51.9540      25 -51.9540
      26 -51.9540      27 -51.9540      28 -51.9540      29 -51.9540      30 -51.9540
      31 -51.9540      32 -51.9540      33 -15.1324      34 -15.1324      35 -15.1324
      36 -15.1324      37 -15.1324      38 -15.1324      39 -15.1324      40 -15.1324
      41 -15.1324      42 -15.1324      43 -15.1324      44 -15.1324      45 -15.1324
      46 -15.1324      47 -15.1324      48 -15.1324      49 -15.1324      50 -15.1324
      51 -15.1324      52 -15.1324      53 -15.1324      54 -15.1324      55 -15.1324
      56 -15.1324      57 -15.1324      58 -15.1324      59 -15.1324      60 -15.1324
      61 -15.1324      62 -15.1324      63 -15.1324      64 -15.1324
 
 
 
 E-fermi :   2.2987     XC(G=0):  -8.9184     alpha+bet : -8.0136

 val. band max:        2.2769228002   @ k =   0.0000   0.0000   0.0000
 cond. band min:       2.3024424987   @ k =   0.0000   0.0000   0.0000
 fundamental gap:      0.0255196985
 Fermi energy:         2.2986714595

 k-point     1 :       0.0000    0.0000    0.0000
  band No.  band energies     occupation 
      1     -10.0282      2.00000
      2      -9.2594      2.00000
      3      -9.2594      2.00000
      4      -9.2229      2.00000
      5      -9.2229      2.00000
      6      -9.2229      2.00000
      7      -9.2229      2.00000
      8      -8.6464      2.00000
      9      -8.6464      2.00000
     10      -8.6464      2.00000
     11      -8.6464      2.00000
     12      -8.6464      2.00000
     13      -8.6464      2.00000
     14      -8.6464      2.00000
     15      -8.6464      2.00000
     16      -8.6329      2.00000
     17      -8.6329      2.00000
     18      -8.6329      2.00000
     19      -8.6329      2.00000
     20      -8.5575      2.00000
     21      -8.5575      2.00000
     22      -8.5575      2.00000
     23      -8.5575      2.00000
     24      -7.9805      2.00000
     25      -7.9000      2.00000
     26      -7.9000      2.00000
     27      -7.9000      2.00000
     28      -7.9000      2.00000
     29      -7.8913      2.00000
     30      -7.8913      2.00000
     31      -7.8622      2.00000
     32      -7.8622      2.00000
     33      -4.3757      2.00000
     34      -4.2139      2.00000
     35      -4.2139      2.00000
     36      -4.1180      2.00000
     37      -4.1180      2.00000
     38      -4.1180      2.00000
     39      -4.1180      2.00000
     40      -4.0589      2.00000
     41      -4.0589      2.00000
     42      -4.0423      2.00000
     43      -4.0423      2.00000
     44      -4.0423      2.00000
     45      -4.0423      2.00000
     46      -3.2449      2.00000
     47      -3.2449      2.00000
     48      -3.2449      2.00000
     49      -3.2449      2.00000
     50      -3.1972      2.00000
     51      -3.1972      2.00000
     52      -3.1972      2.00000
     53      -3.1972      2.00000
     54      -3.1972      2.00000
     55      -3.1972      2.00000
     56      -3.1972      2.00000
     57      -3.1972      2.00000
     58      -1.9194      2.00000
     59      -1.9194      2.00000
     60      -1.7779      2.00000
     61      -1.7779      2.00000
     62      -1.7779      2.00000
     63      -1.7779      2.00000
[...]
   15.409765    0.368671    0.405872    0.405872   -0.000000    0.000000   -0.000000
   15.429470    0.370783    0.407668    0.407668   -0.000000    0.000000   -0.000000
   15.449176    0.372869    0.409422    0.409422   -0.000000    0.000000   -0.000000
   15.468881    0.374925    0.411127    0.411127   -0.000000    0.000000   -0.000000
   15.488587    0.376945    0.412782    0.412782   -0.000000    0.000000   -0.000000
   15.508293    0.378925    0.414393    0.414393   -0.000000    0.000000   -0.000000
   15.527998    0.380864    0.415973    0.415973   -0.000000    0.000000   -0.000000
   15.547704    0.382766    0.417539    0.417539   -0.000000    0.000000   -0.000000
   15.567409    0.384641    0.419103    0.419103   -0.000000    0.000000   -0.000000
   15.587115    0.386497    0.420671    0.420671   -0.000000    0.000000   -0.000000
   15.606820    0.388340    0.422248    0.422248   -0.000000    0.000000   -0.000000
   15.626526    0.390173    0.423833    0.423833   -0.000000    0.000000   -0.000000
   15.646232    0.391995    0.425427    0.425427   -0.000000    0.000000   -0.000000
   15.665937    0.393805    0.427031    0.427031   -0.000000    0.000000   -0.000000
   15.685643    0.395604    0.428645    0.428645   -0.000000    0.000000   -0.000000
   15.705348    0.397392    0.430270    0.430270   -0.000000    0.000000   -0.000000
   15.725054    0.399170    0.431907    0.431907   -0.000000    0.000000   -0.000000
   15.744760    0.400940    0.433554    0.433554   -0.000000    0.000000   -0.000000
   15.764465    0.402700    0.435209    0.435209   -0.000000    0.000000   -0.000000
   15.784171    0.404451    0.436869    0.436869   -0.000000    0.000000   -0.000000
   15.803876    0.406193    0.438532    0.438532   -0.000000    0.000000   -0.000000
   15.823582    0.407927    0.440194    0.440194   -0.000000    0.000000   -0.000000
   15.843287    0.409651    0.441853    0.441853   -0.000000    0.000000   -0.000000
   15.862993    0.411367    0.443513    0.443513   -0.000000    0.000000   -0.000000
   15.882699    0.413078    0.445177    0.445177   -0.000000    0.000000   -0.000000
   15.902404    0.414786    0.446850    0.446850   -0.000000    0.000000   -0.000000
   15.922110    0.416493    0.448535    0.448535   -0.000000    0.000000   -0.000000
   15.941815    0.418198    0.450226    0.450226   -0.000000    0.000000   -0.000000
   15.961521    0.419898    0.451920    0.451920   -0.000000    0.000000   -0.000000
   15.981227    0.421594    0.453613    0.453613   -0.000000    0.000000   -0.000000
   16.000932    0.423285    0.455302    0.455302   -0.000000    0.000000   -0.000000
   16.020638    0.424974    0.456986    0.456986   -0.000000    0.000000   -0.000000
   16.040343    0.426663    0.458664    0.458664   -0.000000    0.000000   -0.000000
   16.060049    0.428351    0.460336    0.460336   -0.000000    0.000000   -0.000000
   16.079754    0.430039    0.461999    0.461999   -0.000000    0.000000   -0.000000
   16.099460    0.431723    0.463653    0.463653   -0.000000    0.000000   -0.000000
   16.119166    0.433402    0.465297    0.465297   -0.000000    0.000000   -0.000000
   16.138871    0.435073    0.466930    0.466930   -0.000000    0.000000   -0.000000
   16.158577    0.436735    0.468551    0.468551   -0.000000    0.000000   -0.000000
   16.178282    0.438387    0.470159    0.470159   -0.000000    0.000000   -0.000000
   16.197988    0.440028    0.471756    0.471756   -0.000000    0.000000   -0.000000
   16.217694    0.441659    0.473341    0.473341   -0.000000    0.000000   -0.000000
   16.237399    0.443280    0.474914    0.474914   -0.000000    0.000000   -0.000000
   16.257105    0.444890    0.476476    0.476476   -0.000000    0.000000   -0.000000
   16.276810    0.446490    0.478027    0.478027   -0.000000    0.000000   -0.000000
   16.296516    0.448080    0.479567    0.479567   -0.000000    0.000000   -0.000000
   16.316221    0.449660    0.481096    0.481096   -0.000000    0.000000   -0.000000
   16.335927    0.451230    0.482615    0.482615   -0.000000    0.000000   -0.000000
   16.355633    0.452791    0.484123    0.484123   -0.000000    0.000000   -0.000000
   16.375338    0.454343    0.485621    0.485621   -0.000000    0.000000   -0.000000
   16.395044    0.455885    0.487110    0.487110   -0.000000    0.000000   -0.000000
   16.414749    0.457418    0.488589    0.488589   -0.000000    0.000000   -0.000000
   16.434455    0.458942    0.490058    0.490058   -0.000000    0.000000   -0.000000
   16.454160    0.460457    0.491517    0.491517   -0.000000    0.000000   -0.000000
   16.473866    0.461963    0.492968    0.492968   -0.000000    0.000000   -0.000000
   16.493572    0.463461    0.494410    0.494410   -0.000000    0.000000   -0.000000
   16.513277    0.464951    0.495842    0.495842   -0.000000    0.000000   -0.000000
   16.532983    0.466432    0.497267    0.497267   -0.000000    0.000000   -0.000000
   16.552688    0.467905    0.498682    0.498682   -0.000000    0.000000   -0.000000
   16.572394    0.469371    0.500090    0.500090   -0.000000    0.000000   -0.000000
   16.592100    0.470828    0.501489    0.501489   -0.000000    0.000000   -0.000000
   16.611805    0.472278    0.502881    0.502881   -0.000000    0.000000   -0.000000
   16.631511    0.473720    0.504264    0.504264   -0.000000    0.000000   -0.000000
   16.651216    0.475155    0.505640    0.505640   -0.000000    0.000000   -0.000000
   16.670922    0.476582    0.507008    0.507008   -0.000000    0.000000   -0.000000
   16.690627    0.478002    0.508369    0.508369   -0.000000    0.000000   -0.000000
   16.710333    0.479415    0.509722    0.509722   -0.000000    0.000000   -0.000000
   16.730039    0.480820    0.511069    0.511069   -0.000000    0.000000   -0.000000
   16.749744    0.482219    0.512408    0.512408   -0.000000    0.000000   -0.000000
   16.769450    0.483611    0.513740    0.513740   -0.000000    0.000000   -0.000000
   16.789155    0.484996    0.515065    0.515065   -0.000000    0.000000   -0.000000
   16.808861    0.486374    0.516383    0.516383   -0.000000    0.000000   -0.000000
   16.828567    0.487745    0.517695    0.517695   -0.000000    0.000000   -0.000000
   16.848272    0.489110    0.519000    0.519000   -0.000000    0.000000   -0.000000
   16.867978    0.490468    0.520298    0.520298   -0.000000    0.000000   -0.000000
   16.887683    0.491820    0.521589    0.521589   -0.000000    0.000000   -0.000000
   16.907389    0.493165    0.522875    0.522875   -0.000000    0.000000   -0.000000
   16.927094    0.494504    0.524154    0.524154   -0.000000    0.000000   -0.000000
   16.946800    0.495837    0.525426    0.525426   -0.000000    0.000000   -0.000000
   16.966506    0.497163    0.526693    0.526693   -0.000000    0.000000   -0.000000
   16.986211    0.498484    0.527953    0.527953   -0.000000    0.000000   -0.000000
   17.005917    0.499798    0.529207    0.529207   -0.000000    0.000000   -0.000000
   17.025622    0.501106    0.530455    0.530455   -0.000000    0.000000   -0.000000
   17.045328    0.502408    0.531697    0.531697   -0.000000    0.000000   -0.000000
   17.065034    0.503704    0.532934    0.532934   -0.000000    0.000000   -0.000000
   17.084739    0.504995    0.534164    0.534164   -0.000000    0.000000   -0.000000
   17.104445    0.506279    0.535389    0.535389   -0.000000    0.000000   -0.000000
   17.124150    0.507558    0.536608    0.536608   -0.000000    0.000000   -0.000000
   17.143856    0.508831    0.537821    0.537821   -0.000000    0.000000   -0.000000
   17.163561    0.510098    0.539028    0.539028   -0.000000    0.000000   -0.000000
   17.183267    0.511360    0.540231    0.540231   -0.000000    0.000000   -0.000000
   17.202973    0.512616    0.541427    0.541427   -0.000000    0.000000   -0.000000
   17.222678    0.513866    0.542618    0.542618   -0.000000    0.000000   -0.000000
   17.242384    0.515111    0.543804    0.543804   -0.000000    0.000000   -0.000000
   17.262089    0.516351    0.544984    0.544984   -0.000000    0.000000   -0.000000
   17.281795    0.517585    0.546159    0.546159   -0.000000    0.000000   -0.000000
   17.301500    0.518814    0.547329    0.547329   -0.000000    0.000000   -0.000000
   17.321206    0.520037    0.548493    0.548493   -0.000000    0.000000   -0.000000
   17.340912    0.521256    0.549652    0.549652   -0.000000    0.000000   -0.000000
   17.360617    0.522469    0.550806    0.550806   -0.000000    0.000000   -0.000000
   17.380323    0.523676    0.551955    0.551955   -0.000000    0.000000   -0.000000
   17.400028    0.524879    0.553099    0.553099   -0.000000    0.000000   -0.000000
   17.419734    0.526076    0.554238    0.554238   -0.000000    0.000000   -0.000000
   17.439440    0.527269    0.555372    0.555372   -0.000000    0.000000   -0.000000
   17.459145    0.528456    0.556501    0.556501   -0.000000    0.000000   -0.000000
   17.478851    0.529638    0.557625    0.557625   -0.000000    0.000000   -0.000000
   17.498556    0.530816    0.558744    0.558744   -0.000000    0.000000   -0.000000
   17.518262    0.531988    0.559859    0.559859   -0.000000    0.000000   -0.000000
   17.537967    0.533156    0.560968    0.560968   -0.000000    0.000000   -0.000000
   17.557673    0.534319    0.562073    0.562073   -0.000000    0.000000   -0.000000
   17.577379    0.535476    0.563173    0.563173   -0.000000    0.000000   -0.000000
   17.597084    0.536629    0.564269    0.564269   -0.000000    0.000000   -0.000000
   17.616790    0.537778    0.565360    0.565360   -0.000000    0.000000   -0.000000
   17.636495    0.538921    0.566446    0.566446   -0.000000    0.000000   -0.000000
   17.656201    0.540060    0.567528    0.567528   -0.000000    0.000000   -0.000000
   17.675907    0.541194    0.568605    0.568605   -0.000000    0.000000   -0.000000
   17.695612    0.542324    0.569677    0.569677   -0.000000    0.000000   -0.000000
   17.715318    0.543449    0.570746    0.570746   -0.000000    0.000000   -0.000000
   17.735023    0.544569    0.571809    0.571809   -0.000000    0.000000   -0.000000
   17.754729    0.545685    0.572869    0.572869   -0.000000    0.000000   -0.000000
   17.774434    0.546797    0.573923    0.573923   -0.000000    0.000000   -0.000000
   17.794140    0.547904    0.574974    0.574974   -0.000000    0.000000   -0.000000
   17.813846    0.549006    0.576020    0.576020   -0.000000    0.000000   -0.000000
   17.833551    0.550104    0.577062    0.577062   -0.000000    0.000000   -0.000000
   17.853257    0.551198    0.578100    0.578100   -0.000000    0.000000   -0.000000
   17.872962    0.552287    0.579133    0.579133   -0.000000    0.000000   -0.000000
   17.892668    0.553372    0.580162    0.580162   -0.000000    0.000000   -0.000000
   17.912374    0.554453    0.581188    0.581188   -0.000000    0.000000   -0.000000
   17.932079    0.555529    0.582208    0.582208   -0.000000    0.000000   -0.000000
   17.951785    0.556601    0.583225    0.583225   -0.000000    0.000000   -0.000000
   17.971490    0.557669    0.584238    0.584238   -0.000000    0.000000   -0.000000
   17.991196    0.558733    0.585247    0.585247   -0.000000    0.000000   -0.000000
   18.010901    0.559792    0.586251    0.586251   -0.000000    0.000000   -0.000000
   18.030607    0.560848    0.587252    0.587252   -0.000000    0.000000   -0.000000
   18.050313    0.561899    0.588249    0.588249   -0.000000    0.000000   -0.000000
   18.070018    0.562946    0.589241    0.589241   -0.000000    0.000000   -0.000000
   18.089724    0.563989    0.590230    0.590230   -0.000000    0.000000   -0.000000
   18.109429    0.565028    0.591215    0.591215   -0.000000    0.000000   -0.000000
   18.129135    0.566063    0.592196    0.592196   -0.000000    0.000000   -0.000000
   18.148840    0.567094    0.593173    0.593173   -0.000000    0.000000   -0.000000
   18.168546    0.568121    0.594146    0.594146   -0.000000    0.000000   -0.000000
   18.188252    0.569145    0.595115    0.595115   -0.000000    0.000000   -0.000000
   18.207957    0.570164    0.596081    0.596081   -0.000000    0.000000   -0.000000
   18.227663    0.571179    0.597043    0.597043   -0.000000    0.000000   -0.000000
   18.247368    0.572191    0.598001    0.598001   -0.000000    0.000000   -0.000000
   18.267074    0.573198    0.598956    0.598956   -0.000000    0.000000   -0.000000
   18.286780    0.574202    0.599906    0.599906   -0.000000    0.000000   -0.000000
   18.306485    0.575202    0.600853    0.600853   -0.000000    0.000000   -0.000000
   18.326191    0.576198    0.601797    0.601797   -0.000000    0.000000   -0.000000
   18.345896    0.577191    0.602737    0.602737   -0.000000    0.000000   -0.000000
   18.365602    0.578179    0.603673    0.603673   -0.000000    0.000000   -0.000000
   18.385307    0.579164    0.604606    0.604606   -0.000000    0.000000   -0.000000
   18.405013    0.580145    0.605535    0.605535   -0.000000    0.000000   -0.000000
   18.424719    0.581123    0.606460    0.606460   -0.000000    0.000000   -0.000000
   18.444424    0.582097    0.607382    0.607382   -0.000000    0.000000   -0.000000
   18.464130    0.583067    0.608301    0.608301   -0.000000    0.000000   -0.000000
   18.483835    0.584034    0.609216    0.609216   -0.000000    0.000000   -0.000000
   18.503541    0.584997    0.610127    0.610127   -0.000000    0.000000   -0.000000
   18.523247    0.585957    0.611035    0.611035   -0.000000    0.000000   -0.000000
   18.542952    0.586913    0.611940    0.611940   -0.000000    0.000000   -0.000000
   18.562658    0.587865    0.612841    0.612841   -0.000000    0.000000   -0.000000
   18.582363    0.588814    0.613739    0.613739   -0.000000    0.000000   -0.000000
   18.602069    0.589760    0.614634    0.614634   -0.000000    0.000000   -0.000000
   18.621774    0.590702    0.615525    0.615525   -0.000000    0.000000   -0.000000
   18.641480    0.591640    0.616413    0.616413   -0.000000    0.000000   -0.000000
   18.661186    0.592575    0.617298    0.617298   -0.000000    0.000000   -0.000000
   18.680891    0.593507    0.618179    0.618179   -0.000000    0.000000   -0.000000
   18.700597    0.594435    0.619057    0.619057   -0.000000    0.000000   -0.000000
   18.720302    0.595360    0.619932    0.619932   -0.000000    0.000000   -0.000000
   18.740008    0.596282    0.620804    0.620804   -0.000000    0.000000   -0.000000
   18.759714    0.597200    0.621672    0.621672   -0.000000    0.000000   -0.000000
   18.779419    0.598115    0.622537    0.622537   -0.000000    0.000000   -0.000000
   18.799125    0.599026    0.623399    0.623399   -0.000000    0.000000   -0.000000
   18.818830    0.599935    0.624258    0.624258   -0.000000    0.000000   -0.000000
   18.838536    0.600840    0.625114    0.625114   -0.000000    0.000000   -0.000000
   18.858241    0.601741    0.625967    0.625967   -0.000000    0.000000   -0.000000
   18.877947    0.602640    0.626816    0.626816   -0.000000    0.000000   -0.000000
   18.897653    0.603535    0.627663    0.627663   -0.000000    0.000000   -0.000000
   18.917358    0.604427    0.628506    0.628506   -0.000000    0.000000   -0.000000
   18.937064    0.605316    0.629347    0.629347   -0.000000    0.000000   -0.000000
   18.956769    0.606202    0.630184    0.630184   -0.000000    0.000000   -0.000000
   18.976475    0.607085    0.631018    0.631018   -0.000000    0.000000   -0.000000
   18.996180    0.607964    0.631849    0.631849   -0.000000    0.000000   -0.000000
   19.015886    0.608841    0.632678    0.632678   -0.000000    0.000000   -0.000000
   19.035592    0.609714    0.633503    0.633503   -0.000000    0.000000   -0.000000
   19.055297    0.610584    0.634326    0.634326   -0.000000    0.000000   -0.000000
   19.075003    0.611451    0.635145    0.635145   -0.000000    0.000000   -0.000000
   19.094708    0.612315    0.635962    0.635962   -0.000000    0.000000   -0.000000
   19.114414    0.613176    0.636775    0.636775   -0.000000    0.000000   -0.000000
   19.134120    0.614034    0.637586    0.637586   -0.000000    0.000000   -0.000000
   19.153825    0.614889    0.638394    0.638394   -0.000000    0.000000   -0.000000
   19.173531    0.615741    0.639199    0.639199   -0.000000    0.000000   -0.000000
   19.193236    0.616591    0.640001    0.640001   -0.000000    0.000000   -0.000000
   19.212942    0.617437    0.640800    0.640800   -0.000000    0.000000   -0.000000
   19.232647    0.618280    0.641597    0.641597   -0.000000    0.000000   -0.000000
   19.252353    0.619120    0.642390    0.642390   -0.000000    0.000000   -0.000000
   19.272059    0.619957    0.643181    0.643181   -0.000000    0.000000   -0.000000
   19.291764    0.620792    0.643969    0.643969   -0.000000    0.000000   -0.000000
   19.311470    0.621623    0.644755    0.644755   -0.000000    0.000000   -0.000000
   19.331175    0.622452    0.645537    0.645537   -0.000000    0.000000   -0.000000
   19.350881    0.623278    0.646317    0.646317   -0.000000    0.000000   -0.000000
   19.370587    0.624101    0.647095    0.647095   -0.000000    0.000000   -0.000000
   19.390292    0.624921    0.647869    0.647869   -0.000000    0.000000   -0.000000
   19.409998    0.625738    0.648641    0.648641   -0.000000    0.000000   -0.000000
   19.429703    0.626553    0.649410    0.649410   -0.000000    0.000000   -0.000000
   19.449409    0.627364    0.650176    0.650176   -0.000000    0.000000   -0.000000
   19.469114    0.628173    0.650940    0.650940   -0.000000    0.000000   -0.000000
   19.488820    0.628980    0.651701    0.651701   -0.000000    0.000000   -0.000000
   19.508526    0.629783    0.652460    0.652460   -0.000000    0.000000   -0.000000
   19.528231    0.630584    0.653216    0.653216   -0.000000    0.000000   -0.000000
   19.547937    0.631382    0.653969    0.653969   -0.000000    0.000000   -0.000000
   19.567642    0.632177    0.654720    0.654720   -0.000000    0.000000   -0.000000
   19.587348    0.632970    0.655468    0.655468   -0.000000    0.000000   -0.000000
   19.607054    0.633760    0.656214    0.656214   -0.000000    0.000000   -0.000000
   19.626759    0.634547    0.656957    0.656957   -0.000000    0.000000   -0.000000
   19.646465    0.635332    0.657698    0.657698   -0.000000    0.000000   -0.000000
   19.666170    0.636114    0.658436    0.658436   -0.000000    0.000000   -0.000000
   19.685876    0.636893    0.659171    0.659171   -0.000000    0.000000   -0.000000
 
 The outermost node in the dielectric function lies at epsilon=   4.0


--------------------------------------------------------------------------------------------------------


    OPTICS:  cpu time     35.3648: real time     35.9195
    4ORBIT:  cpu time      0.0000: real time      0.0000
 BZINTS: Fermi energy:    2.299945;  256.000000 electrons
         Band energy:-0.730481E+03;  BLOECHL correction:    0.000000

 total amount of memory used by VASP MPI-rank0   365159. kBytes
=======================================================================

   base      :      30000. kBytes
   nonl-proj :     134076. kBytes
   fftplans  :       7212. kBytes
   grid      :      18251. kBytes
   one-center:        519. kBytes
   wavefun   :     175101. kBytes
 
  
  
 General timing and accounting informations for this job:
 ========================================================
  
                  Total CPU time used (sec):    12293.169
                            User time (sec):    11887.863
                          System time (sec):      405.306
                         Elapsed time (sec):    12453.860
  
                   Maximum memory used (kb):     1891624.
                   Average memory used (kb):          N/A
  
                          Minor page faults:       178302
                          Major page faults:          218
                 Voluntary context switches:        25096
