 running    8 mpi-ranks, on    1 nodes
 distrk:  each k-point on    8 cores,    1 groups
 distr:  one band on    1 cores,    8 groups
 vasp.6.4.3 19Mar24 (build Aug 29 2024 15:27:20) complex                        
  
 POSCAR found type information on POSCAR AsGa
 POSCAR found :  2 types and      64 ions
 scaLAPACK will be used
 -----------------------------------------------------------------------------
|                                                                             |
|           W    W    AA    RRRRR   N    N  II  N    N   GGGG   !!!           |
|           W    W   A  A   R    R  NN   N  II  NN   N  G    G  !!!           |
|           W    W  A    A  R    R  N N  N  II  N N  N  G       !!!           |
|           W WW W  AAAAAA  RRRRR   N  N N  II  N  N N  G  GGG   !            |
|           WW  WW  A    A  R   R   N   NN  II  N   NN  G    G                |
|           W    W  A    A  R    R  N    N  II  N    N   GGGG   !!!           |
|                                                                             |
|     For optimal performance we recommend to set                             |
|       NCORE = 2 up to number-of-cores-per-socket                            |
|     NCORE specifies how many cores store one orbital (NPAR=cpu/NCORE).      |
|     This setting can greatly improve the performance of VASP for DFT.       |
|     The default, NCORE=1 might be grossly inefficient on modern             |
|     multi-core architectures or massively parallel machines. Do your        |
|     own testing! More info at https://www.vasp.at/wiki/index.php/NCORE      |
|     Unfortunately you need to use the default for GW and RPA                |
|     calculations (for HF NCORE is supported but not extensively tested      |
|     yet).                                                                   |
|                                                                             |
 -----------------------------------------------------------------------------

 -----------------------------------------------------------------------------
|                                                                             |
|               ----> ADVICE to this user running VASP <----                  |
|                                                                             |
|     You have a (more or less) 'large supercell' and for larger cells it     |
|     might be more efficient to use real-space projection operators.         |
|     Therefore, try LREAL= Auto in the INCAR file.                           |
|     Mind: For very accurate calculation, you might also keep the            |
|     reciprocal projection scheme (i.e. LREAL=.FALSE.).                      |
|                                                                             |
 -----------------------------------------------------------------------------

 LDA part: xc-table for (Slater+PW92), standard interpolation
 POSCAR, INCAR and KPOINTS ok, starting setup
 FFT: planning ... GRIDC
 FFT: planning ... GRID_SOFT
 FFT: planning ... GRID
 WAVECAR not read
 entering main loop
       N       E                     dE             d eps       ncg     rms          rms(c)
DAV:   1     0.933573250295E+03    0.93357E+03   -0.80707E+04  6048   0.101E+03
DAV:   2    -0.166319816114E+03   -0.10999E+04   -0.10480E+04  7184   0.169E+02
DAV:   3    -0.267400916734E+03   -0.10108E+03   -0.99687E+02  7408   0.523E+01
DAV:   4    -0.269931842477E+03   -0.25309E+01   -0.25014E+01  7304   0.864E+00
DAV:   5    -0.270006936584E+03   -0.75094E-01   -0.74820E-01  7368   0.131E+00    0.199E+01
DAV:   6    -0.265848404175E+03    0.41585E+01   -0.65505E+00  7024   0.358E+00    0.117E+01
DAV:   7    -0.265041928826E+03    0.80648E+00   -0.42988E+00  7280   0.297E+00    0.245E+00
DAV:   8    -0.265000096000E+03    0.41833E-01   -0.51389E-01  7056   0.110E+00    0.614E-01
DAV:   9    -0.265011647108E+03   -0.11551E-01   -0.36704E-02  6912   0.398E-01    0.234E-01
DAV:  10    -0.265012820015E+03   -0.11729E-02   -0.10770E-03  7464   0.636E-02    0.103E-01
DAV:  11    -0.265014100320E+03   -0.12803E-02   -0.22354E-03  6544   0.868E-02    0.507E-02
DAV:  12    -0.265014105083E+03   -0.47631E-05   -0.38629E-05  7408   0.129E-02    0.222E-02
DAV:  13    -0.265014112915E+03   -0.78323E-05   -0.81704E-05  6952   0.134E-02    0.930E-03
DAV:  14    -0.265014112613E+03    0.30262E-06   -0.40179E-06  5856   0.387E-03
 Linear response reoptimize wavefunctions to high precision
DAV:   1    -0.265014113085E+03   -0.47266E-06   -0.18674E-06  7176   0.185E-03
DAV:   2    -0.265014113093E+03   -0.82173E-08   -0.81518E-08  6136   0.530E-04
DAV:   3    -0.265014113093E+03    0.83674E-10   -0.14960E-09  3736   0.762E-05
 Linear response G [H, r] |phi>, progress :
  Direction:   1
       N       E                     dE             d eps       ncg     rms
RMM:   1    -0.127055180088E+04   -0.12706E+04    0.17613E+03 14203   0.837E+01
RMM:   2    -0.109809006783E+04    0.17246E+03   -0.20436E+02  9802   0.227E+01
RMM:   3    -0.110026255758E+04   -0.21725E+01   -0.99823E+00 10082   0.380E+00
RMM:   4    -0.110038020945E+04   -0.11765E+00   -0.29737E-01 10487   0.674E-01
RMM:   5    -0.110038402221E+04   -0.38128E-02   -0.17785E-02 10483   0.144E-01
RMM:   6    -0.110038429138E+04   -0.26917E-03   -0.28466E-03 10963   0.371E-02
RMM:   7    -0.110038430835E+04   -0.16973E-04   -0.20606E-03 11428   0.169E-02
RMM:   8    -0.110038431326E+04   -0.49039E-05   -0.20643E-03 12147   0.134E-02
RMM:   9    -0.110038430803E+04    0.52262E-05   -0.22636E-03 12281   0.129E-02
RMM:  10    -0.110038430923E+04   -0.12045E-05   -0.18284E-03 12513   0.129E-02
RMM:  11    -0.110038430895E+04    0.28165E-06   -0.19361E-03 12745   0.129E-02
 Linear response G [H, r] |phi>, progress :
  Direction:   2
       N       E                     dE             d eps       ncg     rms
RMM:   1    -0.125123323893E+04   -0.12512E+04    0.18823E+03 14298   0.838E+01
RMM:   2    -0.112657729731E+04    0.12466E+03   -0.20269E+02  9763   0.227E+01
RMM:   3    -0.112884778018E+04   -0.22705E+01   -0.98367E+00 10066   0.378E+00
RMM:   4    -0.112896645316E+04   -0.11867E+00   -0.39893E-01 10498   0.662E-01
RMM:   5    -0.112896197740E+04    0.44758E-02   -0.43246E-02 10434   0.143E-01
RMM:   6    -0.112896036937E+04    0.16080E-02   -0.77153E-03 10969   0.375E-02
RMM:   7    -0.112896005242E+04    0.31694E-03   -0.33687E-03 11430   0.173E-02
RMM:   8    -0.112896010743E+04   -0.55008E-04   -0.34006E-03 12192   0.138E-02
RMM:   9    -0.112896005373E+04    0.53705E-04   -0.32887E-03 12324   0.133E-02
RMM:  10    -0.112896006804E+04   -0.14314E-04   -0.35559E-03 12535   0.132E-02
RMM:  11    -0.112896004210E+04    0.25936E-04   -0.31366E-03 12785   0.132E-02
 Linear response G [H, r] |phi>, progress :
  Direction:   3
       N       E                     dE             d eps       ncg     rms
RMM:   1    -0.137521943960E+04   -0.13752E+04    0.14965E+03 14643   0.859E+01
RMM:   2    -0.113177645969E+04    0.24344E+03   -0.23543E+02  9778   0.241E+01
RMM:   3    -0.113413113066E+04   -0.23547E+01   -0.11337E+01 10093   0.400E+00
RMM:   4    -0.113425975688E+04   -0.12863E+00   -0.41235E-01 10537   0.694E-01
RMM:   5    -0.113425496469E+04    0.47922E-02   -0.45637E-02 10484   0.149E-01
RMM:   6    -0.113425328901E+04    0.16757E-02   -0.93718E-03 10939   0.393E-02
RMM:   7    -0.113425290849E+04    0.38052E-03   -0.42910E-03 11483   0.189E-02
RMM:   8    -0.113425297642E+04   -0.67932E-04   -0.47860E-03 12230   0.154E-02
RMM:   9    -0.113425294322E+04    0.33201E-04   -0.47354E-03 12366   0.149E-02
RMM:  10    -0.113425292318E+04    0.20035E-04   -0.42879E-03 12586   0.148E-02
RMM:  11    -0.113425291737E+04    0.58126E-05   -0.44717E-03 12826   0.148E-02
 Linear response to external field, progress :
  Direction:   1
       N       E                     dE             d eps       ncg     rms          rms(c)
RMM:   1    -0.102096359238E+03   -0.10210E+03   -0.74703E+02 15495   0.674E+00
RMM:   2    -0.201911221877E+03   -0.99815E+02    0.17646E+01 14687   0.150E+00    0.118E+01
RMM:   3    -0.201259873003E+03    0.65135E+00   -0.13706E+00 14636   0.174E+00    0.690E+00
RMM:   4    -0.193367567676E+03    0.78923E+01   -0.19165E+00 14213   0.229E+00    0.811E-01
RMM:   5    -0.192600248329E+03    0.76732E+00   -0.81367E-02 14996   0.480E-01    0.147E-01
RMM:   6    -0.192547588620E+03    0.52660E-01   -0.44335E-03 15359   0.962E-02    0.822E-02
RMM:   7    -0.192474922218E+03    0.72666E-01   -0.47585E-03 14934   0.688E-02    0.248E-02
RMM:   8    -0.192459005881E+03    0.15916E-01   -0.56291E-04 15291   0.127E-02    0.716E-03
RMM:   9    -0.192464642830E+03   -0.56369E-02   -0.43884E-04 15705   0.676E-03    0.143E-03
RMM:  10    -0.192464033419E+03    0.60941E-03   -0.68641E-05 16131   0.198E-03    0.475E-04
RMM:  11    -0.192464107277E+03   -0.73858E-04   -0.83905E-05 15415   0.167E-03    0.125E-04
RMM:  12    -0.192464130792E+03   -0.23515E-04   -0.39409E-05 13203   0.150E-03    0.321E-05
RMM:  13    -0.192464117851E+03    0.12941E-04   -0.74223E-05 13186   0.149E-03    0.649E-06
 change of polarisation eV/A/(eV/A) component  1 :   404.102    -8.432   -12.444
 dielectric tensor                  component  1 :    48.353    -0.988    -1.458
 Linear response to external field, progress :
  Direction:   2
       N       E                     dE             d eps       ncg     rms          rms(c)
RMM:   1    -0.996296644579E+03   -0.99630E+03   -0.83255E+03 22690   0.702E+00
RMM:   2    -0.350807905006E+05   -0.34084E+05   -0.16537E+03 21386   0.162E+00    0.785E+01
RMM:   3    -0.347423441264E+05    0.33845E+03   -0.16314E+02 20116   0.158E+01    0.422E+01
RMM:   4    -0.345278296581E+05    0.21451E+03   -0.17882E+02 24059   0.165E+01    0.515E+00
RMM:   5    -0.344991333945E+05    0.28696E+02   -0.11616E+01 21467   0.438E+00    0.179E+00
RMM:   6    -0.344928663739E+05    0.62670E+01   -0.18639E+00 22351   0.809E-01    0.821E-01
RMM:   7    -0.344921084812E+05    0.75789E+00   -0.48860E-01 22144   0.340E-01    0.173E-01
RMM:   8    -0.344911793476E+05    0.92913E+00   -0.32149E-01 22761   0.111E-01    0.642E-02
RMM:   9    -0.344910586050E+05    0.12074E+00   -0.14898E-01 21671   0.424E-02    0.156E-02
RMM:  10    -0.344910370073E+05    0.21598E-01   -0.67742E-02 22296   0.153E-02    0.704E-03
RMM:  11    -0.344910391093E+05   -0.21020E-02   -0.24011E-02 24370   0.693E-03    0.179E-03
RMM:  12    -0.344910340339E+05    0.50755E-02   -0.56868E-03 25963   0.508E-03    0.509E-04
RMM:  13    -0.344910330589E+05    0.97495E-03   -0.30634E-04 26520   0.488E-03    0.130E-04
RMM:  14    -0.344910337574E+05   -0.69843E-03   -0.14766E-03 26976   0.483E-03    0.106E-04
RMM:  15    -0.344910334622E+05    0.29512E-03    0.15473E-04 27598   0.482E-03    0.114E-05
RMM:  16    -0.344910334956E+05   -0.33395E-04   -0.57414E-04 28245   0.482E-03    0.239E-06
 change of polarisation eV/A/(eV/A) component  2 :    -3.947 69465.745   -13.551
 dielectric tensor                  component  2 :    -0.462  8141.043    -1.588
 Linear response to external field, progress :
  Direction:   3
       N       E                     dE             d eps       ncg     rms          rms(c)
RMM:   1    -0.996290417411E+03   -0.99629E+03   -0.83254E+03 22689   0.702E+00
RMM:   2    -0.350807726825E+05   -0.34084E+05   -0.16537E+03 21389   0.162E+00    0.785E+01
RMM:   3    -0.347423260717E+05    0.33845E+03   -0.16316E+02 20112   0.158E+01    0.422E+01
RMM:   4    -0.345278141410E+05    0.21451E+03   -0.17886E+02 24062   0.165E+01    0.515E+00
RMM:   5    -0.344991173246E+05    0.28697E+02   -0.11652E+01 21465   0.438E+00    0.179E+00
RMM:   6    -0.344928650890E+05    0.62522E+01   -0.19951E+00 22353   0.809E-01    0.821E-01
RMM:   7    -0.344921238322E+05    0.74126E+00   -0.58984E-01 22127   0.340E-01    0.173E-01
RMM:   8    -0.344911702228E+05    0.95361E+00   -0.40060E-01 22762   0.111E-01    0.642E-02
RMM:   9    -0.344910430316E+05    0.12719E+00   -0.17709E-01 21687   0.424E-02    0.156E-02
RMM:  10    -0.344910183559E+05    0.24676E-01   -0.79437E-02 22320   0.153E-02    0.704E-03
RMM:  11    -0.344910196055E+05   -0.12495E-02   -0.28441E-02 24379   0.694E-03    0.180E-03
RMM:  12    -0.344910134798E+05    0.61257E-02   -0.36412E-03 25949   0.509E-03    0.510E-04
RMM:  13    -0.344910124591E+05    0.10206E-02    0.16904E-03 26502   0.490E-03    0.129E-04
RMM:  14    -0.344910134278E+05   -0.96865E-03   -0.27255E-03 26971   0.484E-03    0.105E-04
RMM:  15    -0.344910128490E+05    0.57882E-03    0.20256E-03 27580   0.484E-03    0.122E-05
RMM:  16    -0.344910131819E+05   -0.33291E-03   -0.24367E-03 28225   0.484E-03    0.248E-06
 change of polarisation eV/A/(eV/A) component  3 :   -10.216    -3.595 69465.709
 dielectric tensor                  component  3 :    -1.197    -0.421  8141.039
 Born effective charges drift removed
   1 F= -.26501411E+03 E0= -.26501411E+03  d E =-.265014E+03
 curvature:   0.00 expect dE= 0.000E+00 dE for cont linesearch  0.000E+00
 trial: gam= 0.00000 g(F)=  0.366E-58 g(S)=  0.000E+00 ort = 0.000E+00 (trialstep = 0.100E+01)
 search vector abs. value=  0.100E-09
 reached required accuracy - stopping structural energy minimisation
 writing wavefunctions
 optical routines
 imaginary and real dielectric function
 recalculating local potential from charge density
 direction            1
 direction            2
 direction            3
