<?xml version="1.0" encoding="ISO-8859-1"?>
<modeling>
 <generator>
  <i name="program" type="string">vasp </i>
  <i name="version" type="string">6.4.3  </i>
  <i name="subversion" type="string">19Mar24 (build Aug 29 2024 15:27:20) complex                          parallel </i>
  <i name="platform" type="string">LinuxIFC </i>
  <i name="date" type="string">2025 03 24 </i>
  <i name="time" type="string">15:31:57 </i>
 </generator>
 <incar>
  <i type="string" name="SYSTEM">GaAs</i>
  <i type="string" name="PREC">Normal</i>
  <i type="int" name="IBRION">     2</i>
  <i type="int" name="NFREE">     2</i>
  <i type="int" name="NSW">   100</i>
  <i type="int" name="ISIF">     2</i>
  <i name="ENCUT">    400.00000000</i>
  <i name="POTIM">      0.10000000</i>
  <i type="int" name="ISMEAR">    -5</i>
  <i name="SIGMA">      0.10000000</i>
  <i type="logical" name="LOPTICS"> T  </i>
  <i type="logical" name="LEPSILON"> T  </i>
 </incar>
 <primitive_cell>
  <structure name="primitive_cell" >
   <crystal>
    <varray name="basis" >
     <v>       2.94653821       0.00000000       2.86160010 </v>
     <v>       2.94653821       0.00000000      -2.86160010 </v>
     <v>      -2.94653821       2.86160010       0.00000000 </v>
    </varray>
    <i name="volume">     48.25695978 </i>
    <varray name="rec_basis" >
     <v>       0.16969066       0.17472742       0.17472742 </v>
     <v>       0.16969066       0.17472742      -0.17472742 </v>
     <v>       0.00000000       0.34945484       0.00000000 </v>
    </varray>
   </crystal>
   <varray name="positions" >
    <v>       0.00000000       0.00000000       0.00000000 </v>
    <v>       0.75000000       0.25000000       0.50000000 </v>
   </varray>
  </structure>
  <varray name="primitive_index" >
   <v type="int" >        1 </v>
   <v type="int" >       33 </v>
  </varray>
 </primitive_cell>
 <kpoints>
  <generation param="Gamma">
   <v type="int" name="divisions">       5        5        5 </v>
   <v name="usershift">      0.00000000       0.00000000       0.00000000 </v>
   <v name="genvec1">      0.20000000       0.00000000       0.00000000 </v>
   <v name="genvec2">      0.00000000       0.20000000       0.00000000 </v>
   <v name="genvec3">      0.00000000       0.00000000       0.20000000 </v>
   <v name="shift">      0.00000000       0.00000000       0.00000000 </v>
  </generation>
  <varray name="kpointlist" >
   <v>       0.00000000       0.00000000       0.00000000 </v>
   <v>       0.20000000       0.00000000       0.00000000 </v>
   <v>       0.40000000       0.00000000       0.00000000 </v>
   <v>       0.00000000       0.20000000       0.00000000 </v>
   <v>       0.20000000       0.20000000       0.00000000 </v>
   <v>       0.40000000       0.20000000       0.00000000 </v>
   <v>       0.00000000       0.40000000       0.00000000 </v>
   <v>       0.20000000       0.40000000       0.00000000 </v>
   <v>       0.40000000       0.40000000       0.00000000 </v>
   <v>       0.00000000       0.20000000       0.20000000 </v>
   <v>       0.20000000       0.20000000       0.20000000 </v>
   <v>       0.40000000       0.20000000       0.20000000 </v>
   <v>       0.00000000       0.40000000       0.20000000 </v>
   <v>       0.20000000       0.40000000       0.20000000 </v>
   <v>       0.40000000       0.40000000       0.20000000 </v>
   <v>       0.00000000       0.40000000       0.40000000 </v>
   <v>       0.20000000       0.40000000       0.40000000 </v>
   <v>       0.40000000       0.40000000       0.40000000 </v>
  </varray>
  <varray name="weights" >
   <v>       0.00800000 </v>
   <v>       0.01600000 </v>
   <v>       0.01600000 </v>
   <v>       0.03200000 </v>
   <v>       0.06400000 </v>
   <v>       0.06400000 </v>
   <v>       0.03200000 </v>
   <v>       0.06400000 </v>
   <v>       0.06400000 </v>
   <v>       0.03200000 </v>
   <v>       0.06400000 </v>
   <v>       0.06400000 </v>
   <v>       0.06400000 </v>
   <v>       0.12800000 </v>
   <v>       0.12800000 </v>
   <v>       0.03200000 </v>
   <v>       0.06400000 </v>
   <v>       0.06400000 </v>
  </varray>
  <varray name="tetrahedronlist"  type="int" >
   <v type="int" >        4       11       12       14       15 </v>
   <v type="int" >        4       11       14       14       15 </v>
   <v type="int" >        8       14       14       15       17 </v>
   <v type="int" >        4       12       14       15       15 </v>
   <v type="int" >        8       14       15       15       18 </v>
   <v type="int" >        4       14       15       17       18 </v>
   <v type="int" >        2       12       12       15       15 </v>
   <v type="int" >        4       12       15       15       15 </v>
   <v type="int" >       12       15       15       15       18 </v>
   <v type="int" >       10       15       15       18       18 </v>
   <v type="int" >        4       10       11       13       14 </v>
   <v type="int" >        4       11       13       14       14 </v>
   <v type="int" >        8       13       14       14       17 </v>
   <v type="int" >        4       10       13       13       14 </v>
   <v type="int" >        8       13       13       14       16 </v>
   <v type="int" >        4       13       14       16       17 </v>
   <v type="int" >        4       14       15       15       17 </v>
   <v type="int" >        4       14       15       17       17 </v>
   <v type="int" >        4       15       15       17       18 </v>
   <v type="int" >        4       15       17       18       18 </v>
   <v type="int" >        4       15       17       17       18 </v>
   <v type="int" >        8       15       18       18       18 </v>
   <v type="int" >        4       14       14       15       18 </v>
   <v type="int" >        4       14       15       18       18 </v>
   <v type="int" >        4       14       14       17       18 </v>
   <v type="int" >        4       14       17       17       18 </v>
   <v type="int" >        4       14       17       18       18 </v>
   <v type="int" >        4       13       13       14       17 </v>
   <v type="int" >        4       13       14       17       17 </v>
   <v type="int" >        4       13       13       16       17 </v>
   <v type="int" >        4       13       16       16       17 </v>
   <v type="int" >        4       13       16       17       17 </v>
   <v type="int" >        4       13       14       14       16 </v>
   <v type="int" >        4       13       14       16       16 </v>
   <v type="int" >        4       14       14       16       17 </v>
   <v type="int" >        4       14       16       17       17 </v>
   <v type="int" >        4       14       16       16       17 </v>
   <v type="int" >        4       12       14       15       17 </v>
   <v type="int" >        4       11       12       14       17 </v>
   <v type="int" >        4       12       15       17       18 </v>
   <v type="int" >        4       12       15       15       18 </v>
   <v type="int" >        4       12       12       15       18 </v>
   <v type="int" >        4       12       15       18       18 </v>
   <v type="int" >        4       11       14       15       18 </v>
   <v type="int" >        4       11       12       15       18 </v>
   <v type="int" >        4       11       14       17       18 </v>
   <v type="int" >        4       10       13       14       17 </v>
   <v type="int" >        4       10       11       14       17 </v>
   <v type="int" >        4       10       13       16       17 </v>
   <v type="int" >        4       11       13       14       16 </v>
   <v type="int" >        4       10       11       13       16 </v>
   <v type="int" >        4       11       14       16       17 </v>
   <v type="int" >        4        6       11       12       14 </v>
   <v type="int" >        4        5        6       11       14 </v>
   <v type="int" >        4        5        6        8       14 </v>
   <v type="int" >        4        6       12       14       15 </v>
   <v type="int" >        4        6        9       14       15 </v>
   <v type="int" >        4        6        8        9       14 </v>
   <v type="int" >        4        6       12       12       15 </v>
   <v type="int" >        4        6        6       12       15 </v>
   <v type="int" >        4        6        6        9       15 </v>
   <v type="int" >        4        6       12       15       15 </v>
   <v type="int" >        4        6        9       15       15 </v>
   <v type="int" >        4        6        9        9       15 </v>
   <v type="int" >        4        5       11       12       15 </v>
   <v type="int" >        4        5        6       12       15 </v>
   <v type="int" >        4        5        6        9       15 </v>
   <v type="int" >        4        5       11       14       15 </v>
   <v type="int" >        4        5        8       14       15 </v>
   <v type="int" >        4        5        8        9       15 </v>
   <v type="int" >        4        4       10       11       14 </v>
   <v type="int" >        4        4        5       11       14 </v>
   <v type="int" >        4        4        5        8       14 </v>
   <v type="int" >        4        4       10       13       14 </v>
   <v type="int" >        4        4        7       13       14 </v>
   <v type="int" >        4        4        7        8       14 </v>
   <v type="int" >        4        5       10       11       13 </v>
   <v type="int" >        4        4        5       10       13 </v>
   <v type="int" >        4        4        5        7       13 </v>
   <v type="int" >        4        5       11       13       14 </v>
   <v type="int" >        4        5        8       13       14 </v>
   <v type="int" >        4        5        7        8       13 </v>
   <v type="int" >        4        5        6        8       12 </v>
   <v type="int" >        4        5        8       11       12 </v>
   <v type="int" >        4        8       11       12       14 </v>
   <v type="int" >        4        6        8        9       12 </v>
   <v type="int" >        4        8        9       12       15 </v>
   <v type="int" >        4        8       12       14       15 </v>
   <v type="int" >        4        6        6        9       12 </v>
   <v type="int" >        4        6        9       12       12 </v>
   <v type="int" >        4        9       12       12       15 </v>
   <v type="int" >        4        6        9        9       12 </v>
   <v type="int" >        4        9        9       12       15 </v>
   <v type="int" >        4        9       12       15       15 </v>
   <v type="int" >        4        5        6        9       11 </v>
   <v type="int" >        4        6        9       11       12 </v>
   <v type="int" >        4        9       11       12       15 </v>
   <v type="int" >        4        5        8        9       11 </v>
   <v type="int" >        4        8        9       11       14 </v>
   <v type="int" >        4        9       11       14       15 </v>
   <v type="int" >        4        4        5        8       10 </v>
   <v type="int" >        4        5        8       10       11 </v>
   <v type="int" >        4        8       10       11       14 </v>
   <v type="int" >        4        4        7        8       10 </v>
   <v type="int" >        4        7        8       10       13 </v>
   <v type="int" >        4        8       10       13       14 </v>
   <v type="int" >        4        4        5        7       11 </v>
   <v type="int" >        4        4        7       10       11 </v>
   <v type="int" >        4        7       10       11       13 </v>
   <v type="int" >        4        5        7        8       11 </v>
   <v type="int" >        4        7        8       11       14 </v>
   <v type="int" >        4        7       11       13       14 </v>
   <v type="int" >        4       17       17       18       18 </v>
   <v type="int" >        4       17       17       17       18 </v>
   <v type="int" >        4       17       18       18       18 </v>
   <v type="int" >        6       18       18       18       18 </v>
   <v type="int" >        4       16       16       17       17 </v>
   <v type="int" >        4       16       17       17       17 </v>
   <v type="int" >        4       16       16       16       17 </v>
   <v type="int" >        4        9       14       14       15 </v>
   <v type="int" >        4        8        9       14       14 </v>
   <v type="int" >        4        8        8        9       14 </v>
   <v type="int" >        4        9       14       15       15 </v>
   <v type="int" >        4        9        9       14       15 </v>
   <v type="int" >        4        8        9        9       14 </v>
   <v type="int" >        8        9       15       15       15 </v>
   <v type="int" >        8        9        9       15       15 </v>
   <v type="int" >        8        9        9        9       15 </v>
   <v type="int" >        4        8       14       15       15 </v>
   <v type="int" >        4        8        9       15       15 </v>
   <v type="int" >        4        8        9        9       15 </v>
   <v type="int" >        4        8       14       14       15 </v>
   <v type="int" >        4        8        8       14       15 </v>
   <v type="int" >        4        8        8        9       15 </v>
   <v type="int" >        4        7       13       14       14 </v>
   <v type="int" >        4        7        8       14       14 </v>
   <v type="int" >        4        7        8        8       14 </v>
   <v type="int" >        4        7       13       13       14 </v>
   <v type="int" >        4        7        7       13       14 </v>
   <v type="int" >        4        7        7        8       14 </v>
   <v type="int" >        4        8       13       13       14 </v>
   <v type="int" >        4        7        8       13       13 </v>
   <v type="int" >        4        7        7        8       13 </v>
   <v type="int" >        4        8       13       14       14 </v>
   <v type="int" >        4        8        8       13       14 </v>
   <v type="int" >        4        7        8        8       13 </v>
   <v type="int" >        4        5        6       11       12 </v>
   <v type="int" >        4        5        5        6       11 </v>
   <v type="int" >        4        2        5        5        6 </v>
   <v type="int" >        4        5        6        6       12 </v>
   <v type="int" >        4        3        5        6        6 </v>
   <v type="int" >        4        2        3        5        6 </v>
   <v type="int" >        2        6        6       12       12 </v>
   <v type="int" >        4        6        6        6       12 </v>
   <v type="int" >        4        3        6        6        6 </v>
   <v type="int" >        2        3        3        6        6 </v>
   <v type="int" >        4        4        5       10       11 </v>
   <v type="int" >        4        4        5        5       11 </v>
   <v type="int" >        4        2        4        5        5 </v>
   <v type="int" >        4        4        4        5       10 </v>
   <v type="int" >        4        1        4        4        5 </v>
   <v type="int" >        4        1        2        4        5 </v>
   <v type="int" >        4        2        5        6       12 </v>
   <v type="int" >        4        2        5       11       12 </v>
   <v type="int" >        4        2        3        6       12 </v>
   <v type="int" >        4        3        6        6       12 </v>
   <v type="int" >        4        3        6       12       12 </v>
   <v type="int" >        4        3        3        6       12 </v>
   <v type="int" >        4        3        5        6       11 </v>
   <v type="int" >        4        3        6       11       12 </v>
   <v type="int" >        4        2        3        5       11 </v>
   <v type="int" >        4        2        4        5       10 </v>
   <v type="int" >        4        2        5       10       11 </v>
   <v type="int" >        4        1        2        4       10 </v>
   <v type="int" >        4        1        4        5       11 </v>
   <v type="int" >        4        1        4       10       11 </v>
   <v type="int" >        4        1        2        5       11 </v>
  </varray>
  <i name="volumeweight">      0.00133333 </i>
 </kpoints>
 <parameters>
  <separator name="general" >
   <i type="string" name="SYSTEM">GaAs</i>
   <i type="logical" name="LCOMPAT"> F  </i>
  </separator>
  <separator name="electronic" >
   <i type="string" name="PREC">normal</i>
   <i name="ENMAX">    400.00000000</i>
   <i name="ENAUG">    462.75800000</i>
   <i name="EDIFF">      0.00000100</i>
   <i type="int" name="IALGO">    38</i>
   <i type="int" name="IWAVPR">    11</i>
   <i type="int" name="NBANDS">   168</i>
   <i type="int" name="NBANDSLOW">    -1</i>
   <i type="int" name="NBANDSHIGH">    -1</i>
   <i name="NELECT">    256.00000000</i>
   <i type="int" name="TURBO">     0</i>
   <i type="int" name="IRESTART">     0</i>
   <i type="int" name="NREBOOT">     0</i>
   <i type="int" name="NMIN">     0</i>
   <i name="EREF">      0.00000000</i>
   <separator name="electronic smearing" >
    <i type="int" name="ISMEAR">    -5</i>
    <i name="SIGMA">      0.10000000</i>
    <i name="KSPACING">      0.50000000</i>
    <i type="logical" name="KGAMMA"> T  </i>
    <i type="logical" name="KBLOWUP"> T  </i>
   </separator>
   <separator name="electronic projectors" >
    <i type="logical" name="LREAL"> F  </i>
    <v name="ROPT">      0.00000000      0.00000000</v>
    <i type="int" name="LMAXPAW">  -100</i>
    <i type="int" name="LMAXMIX">     2</i>
    <i type="logical" name="NLSPLINE"> F  </i>
   </separator>
   <separator name="electronic startup" >
    <i type="int" name="ISTART">     0</i>
    <i type="int" name="ICHARG">     2</i>
    <i type="int" name="INIWAV">     1</i>
   </separator>
   <separator name="electronic spin" >
    <i type="int" name="ISPIN">     1</i>
    <i type="logical" name="LNONCOLLINEAR"> F  </i>
    <v name="MAGMOM">      1.00000000      1.00000000      1.00000000      1.00000000      1.00000000      1.00000000      1.00000000      1.00000000      1.00000000      1.00000000      1.00000000      1.00000000      1.00000000      1.00000000      1.00000000      1.00000000      1.00000000      1.00000000      1.00000000      1.00000000
      1.00000000      1.00000000      1.00000000      1.00000000      1.00000000      1.00000000      1.00000000      1.00000000      1.00000000      1.00000000      1.00000000      1.00000000      1.00000000      1.00000000      1.00000000      1.00000000      1.00000000      1.00000000      1.00000000      1.00000000
      1.00000000      1.00000000      1.00000000      1.00000000      1.00000000      1.00000000      1.00000000      1.00000000      1.00000000      1.00000000      1.00000000      1.00000000      1.00000000      1.00000000      1.00000000      1.00000000      1.00000000      1.00000000      1.00000000      1.00000000
      1.00000000      1.00000000      1.00000000      1.00000000</v>
    <i name="NUPDOWN">     -1.00000000</i>
    <i type="logical" name="LSORBIT"> F  </i>
    <v name="SAXIS">      0.00000000      0.00000000      1.00000000</v>
    <i type="logical" name="LSPIRAL"> F  </i>
    <v name="QSPIRAL">      0.00000000      0.00000000      0.00000000</v>
    <i type="logical" name="LZEROZ"> F  </i>
   </separator>
   <separator name="electronic exchange-correlation" >
    <i type="logical" name="LASPH"> F  </i>
   </separator>
   <separator name="electronic convergence" >
    <i type="int" name="NELM">    60</i>
    <i type="int" name="NELMDL">    -5</i>
    <i type="int" name="NELMIN">     2</i>
    <i name="ENINI">    400.00000000</i>
    <separator name="electronic convergence detail" >
     <i type="logical" name="LDIAG"> T  </i>
     <i type="logical" name="LSUBROT"> F  </i>
     <i name="WEIMIN">      0.00100000</i>
     <i name="EBREAK">      0.00000000</i>
     <i name="DEPER">      0.30000000</i>
     <i type="int" name="NRMM">     4</i>
     <i name="TIME">      0.40000000</i>
    </separator>
   </separator>
   <separator name="electronic mixer" >
    <i name="AMIX">      0.40000000</i>
    <i name="BMIX">      1.00000000</i>
    <i name="AMIN">      0.10000000</i>
    <i name="AMIX_MAG">      1.60000000</i>
    <i name="BMIX_MAG">      1.00000000</i>
    <separator name="electronic mixer details" >
     <i type="int" name="IMIX">     4</i>
     <i type="logical" name="MIXFIRST"> F  </i>
     <i type="int" name="MAXMIX">   -45</i>
     <i name="WC">    100.00000000</i>
     <i type="int" name="INIMIX">     1</i>
     <i type="int" name="MIXPRE">     1</i>
     <i type="int" name="MREMOVE">     5</i>
    </separator>
   </separator>
   <separator name="electronic dipolcorrection" >
    <i type="logical" name="LDIPOL"> F  </i>
    <i type="logical" name="LMONO"> F  </i>
    <i type="int" name="IDIPOL">     0</i>
    <i name="EPSILON">      1.00000000</i>
    <v name="DIPOL">   -100.00000000   -100.00000000   -100.00000000</v>
    <i name="EFIELD">      0.00000000</i>
    <i type="logical" name="LVACPOTAV"> F  </i>
   </separator>
  </separator>
  <separator name="grids" >
   <i type="int" name="NGX">    60</i>
   <i type="int" name="NGY">    56</i>
   <i type="int" name="NGZ">    56</i>
   <i type="int" name="NGXF">   120</i>
   <i type="int" name="NGYF">   112</i>
   <i type="int" name="NGZF">   112</i>
   <i type="logical" name="ADDGRID"> F  </i>
  </separator>
  <separator name="ionic" >
   <i type="int" name="NSW">   100</i>
   <i type="int" name="IBRION">     2</i>
   <i type="int" name="MDALGO">     0</i>
   <i type="int" name="ISIF">     2</i>
   <i name="PSTRESS">      0.00000000</i>
   <i name="EDIFFG">      0.00100000</i>
   <i type="int" name="NFREE">     2</i>
   <i name="POTIM">      0.10000000</i>
   <i name="SMASS">     -3.00000000</i>
   <i name="SCALEE">      1.00000000</i>
  </separator>
  <separator name="ionic md" >
   <i name="TEBEG">      0.00010000</i>
   <i name="TEEND">      0.00010000</i>
   <i type="int" name="NBLOCK">     1</i>
   <i type="int" name="KBLOCK">   100</i>
   <i type="int" name="NPACO">   256</i>
   <i name="APACO">     10.00000000</i>
  </separator>
  <separator name="symmetry" >
   <i type="int" name="ISYM">     2</i>
   <i name="SYMPREC">      0.00001000</i>
  </separator>
  <separator name="dos" >
   <i type="int" name="LORBIT">     0</i>
   <v name="RWIGS">     -1.00000000     -1.00000000</v>
   <i type="int" name="NEDOS">   301</i>
   <i name="EMIN">     10.00000000</i>
   <i name="EMAX">    -10.00000000</i>
   <i name="EFERMI">      0.00000000</i>
  </separator>
  <separator name="writing" >
   <i type="int" name="NWRITE">     2</i>
   <i type="logical" name="LWAVE"> T  </i>
   <i type="logical" name="LDOWNSAMPLE"> F  </i>
   <i type="logical" name="LCHARG"> T  </i>
   <i type="logical" name="LPARD"> F  </i>
   <i type="logical" name="LVTOT"> F  </i>
   <i type="logical" name="LVHAR"> F  </i>
   <i type="logical" name="LELF"> F  </i>
   <i type="logical" name="LOPTICS"> T  </i>
   <v name="STM">      0.00000000      0.00000000      0.00000000      0.00000000      0.00000000      0.00000000      0.00000000</v>
  </separator>
  <separator name="performance" >
   <i type="int" name="NPAR">     8</i>
   <i type="int" name="NSIM">     4</i>
   <i type="int" name="NBLK">    -1</i>
   <i type="logical" name="LPLANE"> T  </i>
   <i type="logical" name="LSCALAPACK"> T  </i>
   <i type="logical" name="LSCAAWARE"> F  </i>
   <i type="logical" name="LSCALU"> F  </i>
   <i type="logical" name="LASYNC"> F  </i>
   <i type="logical" name="LORBITALREAL"> F  </i>
  </separator>
  <separator name="miscellaneous" >
   <i type="int" name="IDIOT">     3</i>
   <i type="int" name="PHON_NSTRUCT">    -1</i>
   <i type="logical" name="LMUSIC"> F  </i>
   <v name="POMASS">     74.92200000     69.72300000</v>
   <v name="DARWINR">      0.00000000      0.00000000</v>
   <v name="DARWINV">      1.00000000      1.00000000</v>
   <i type="logical" name="LCORR"> T  </i>
  </separator>
  <i type="logical" name="GGA_COMPAT"> T  </i>
  <i type="logical" name="LBERRY"> F  </i>
  <i type="int" name="ICORELEVEL">     0</i>
  <i type="logical" name="LDAU"> F  </i>
  <i type="int" name="I_CONSTRAINED_M">     0</i>
  <separator name="electronic exchange-correlation" >
   <i type="string" name="GGA    ">PE</i>
   <i type="string" name="XC_C">1</i>
   <i type="int" name="VOSKOWN">     0</i>
   <i type="logical" name="LHFCALC"> F  </i>
   <i type="string" name="PRECFOCK"></i>
   <i type="logical" name="LSYMGRAD"> F  </i>
   <i type="logical" name="LHFONE"> F  </i>
   <i type="logical" name="LRHFCALC"> F  </i>
   <i type="logical" name="LTHOMAS"> F  </i>
   <i type="logical" name="LMODELHF"> F  </i>
   <i type="logical" name="LFOCKACE"> F  </i>
   <i name="ENCUT4O">     -1.00000000</i>
   <i type="int" name="EXXOEP">     0</i>
   <i type="int" name="FOURORBIT">     0</i>
   <i name="AEXX">      0.00000000</i>
   <i name="HFALPHA">      0.00000000</i>
   <i name="MCALPHA">      0.00000000</i>
   <i name="ALDAX">      1.00000000</i>
   <i name="AGGAX">      1.00000000</i>
   <i name="AMGGAX">      1.00000000</i>
   <i name="ALDAC">      1.00000000</i>
   <i name="AGGAC">      1.00000000</i>
   <i name="AMGGAC">      1.00000000</i>
   <i type="int" name="NKREDX">     1</i>
   <i type="int" name="NKREDY">     1</i>
   <i type="int" name="NKREDZ">     1</i>
   <i type="logical" name="SHIFTRED"> F  </i>
   <i type="logical" name="ODDONLY"> F  </i>
   <i type="logical" name="EVENONLY"> F  </i>
   <i type="int" name="LMAXFOCK">     0</i>
   <i type="int" name="NMAXFOCKAE">     0</i>
   <i type="logical" name="LFOCKAEDFT"> F  </i>
   <i name="HFSCREEN">      0.00000000</i>
   <i name="HFSCREENC">      0.00000000</i>
   <i type="int" name="NBANDSGWLOW">     0</i>
  </separator>
  <separator name="vdW DFT" >
   <i type="logical" name="LUSE_VDW"> F  </i>
   <i type="int" name="IVDW_NL">    -1</i>
   <i type="logical" name="LSPIN_VDW"> F  </i>
   <i name="ZAB_VDW">     -0.84910000</i>
   <i name="GAMMA_VDW">      1.39626340</i>
   <i name="ALPHA_VDW">      0.00000000</i>
   <i name="PARAM1">      0.12340000</i>
   <i name="PARAM2">      1.00000000</i>
   <i name="BPARAM">      6.30000000</i>
   <i name="CPARAM">      0.00930000</i>
  </separator>
  <separator name="model GW" >
   <i type="int" name="MODEL_GW">     0</i>
   <i name="MODEL_EPS0">     14.47708793</i>
   <i name="MODEL_ALPHA">      1.00000000</i>
  </separator>
  <separator name="linear response parameters" >
   <i type="logical" name="LEPSILON"> T  </i>
   <i type="logical" name="LRPA"> F  </i>
   <i type="logical" name="LNABLA"> F  </i>
   <i type="logical" name="LVEL"> F  </i>
   <i name="CSHIFT">      0.10000000</i>
   <i name="OMEGAMAX">     -1.00000000</i>
   <i name="DEG_THRESHOLD">      0.00200000</i>
   <i name="RTIME">     -0.10000000</i>
   <i name="WPLASMAI">      0.00000000</i>
   <v name="DFIELD">      0.00000000      0.00000000      0.00000000</v>
   <v name="WPLASMA">      0.00000000      0.00000000      0.00000000      0.00000000      0.00000000      0.00000000      0.00000000      0.00000000      0.00000000</v>
  </separator>
  <separator name="orbital magnetization" >
   <i type="logical" name="NUCIND"> F  </i>
   <v name="MAGPOS">      0.00000000      0.00000000      0.00000000</v>
   <i type="logical" name="LNICSALL"> T  </i>
   <i type="logical" name="ORBITALMAG"> F  </i>
   <i type="logical" name="LMAGBLOCH"> F  </i>
   <i type="logical" name="LCHIMAG"> F  </i>
   <i type="logical" name="LGAUGE"> T  </i>
   <i type="int" name="MAGATOM">     0</i>
   <v name="MAGDIPOL">      0.00000000      0.00000000      0.00000000</v>
   <v name="AVECCONST">      0.00000000      0.00000000      0.00000000</v>
  </separator>
  <separator name="response functions" >
   <i type="logical" name="LALL_IN_ONE"> F  </i>
   <i type="int" name="IALL_IN_ONE">    -1</i>
   <i type="int" name="NBANDS_WAVE">    -1</i>
   <i type="logical" name="LFINITE_TEMPERATURE"> F  </i>
   <i type="logical" name="LADDER"> F  </i>
   <i type="logical" name="LRPAFORCE"> F  </i>
   <i type="logical" name="LFXC"> F  </i>
   <i type="logical" name="LHARTREE"> T  </i>
   <i type="int" name="IBSE">     0</i>
   <v type="int" name="KPOINT">    -1     0     0     0</v>
   <i type="logical" name="LTCTC"> F  </i>
   <i type="logical" name="LTCTE"> F  </i>
   <i type="logical" name="LTETE"> F  </i>
   <i type="logical" name="LTRIPLET"> F  </i>
   <i type="logical" name="LFXCEPS"> F  </i>
   <i type="logical" name="LFXHEG"> F  </i>
   <i type="int" name="NATURALO">     2</i>
   <i type="logical" name="LHOLEGF"> F  </i>
   <i type="logical" name="L2ORDER"> F  </i>
   <i type="logical" name="LDMP1"> F  </i>
   <i type="logical" name="LMP2LT"> F  </i>
   <i type="logical" name="LSMP2LT"> F  </i>
   <i type="logical" name="LGWLF"> F  </i>
   <i name="ENCUTGW">     -1.60000002</i>
   <i name="ENCUTGWSOFT">     -1.60000002</i>
   <i name="ENCUTLF">     -1.00000000</i>
   <i type="logical" name="ESF_SPLINES"> F  </i>
   <i name="ESF_CONV">      0.01000000</i>
   <i type="int" name="ESF_NINTER">    15</i>
   <i type="int" name="LMAXMP2">    -1</i>
   <i name="SCISSOR">      0.00000000</i>
   <i type="int" name="NOMEGA">     0</i>
   <i type="int" name="NOMEGAR">     0</i>
   <i type="int" name="NBANDSGW">    -1</i>
   <i type="int" name="NBANDSO">    -1</i>
   <i type="int" name="NBANDSV">    -1</i>
   <i type="int" name="NELMGW">     1</i>
   <i type="int" name="NELMHF">     1</i>
   <i type="int" name="DIM">     3</i>
   <i type="int" name="IESPILON">     4</i>
   <i type="int" name="ANTIRES">     0</i>
   <i name="OMEGAMAX">    -30.00000000</i>
   <i name="OMEGAMIN">    -30.00000000</i>
   <i name="OMEGATL">   -200.00000000</i>
   <i type="int" name="OMEGAGRID">     0</i>
   <i name="CSHIFT">     -0.10000000</i>
   <i type="logical" name="LSELFENERGY"> F  </i>
   <i type="logical" name="LSPECTRAL"> F  </i>
   <i type="logical" name="LSPECTRALGW"> F  </i>
   <i type="logical" name="LSINGLES"> F  </i>
   <i type="logical" name="LFERMIGW"> F  </i>
   <i type="logical" name="ODDONLYGW"> F  </i>
   <i type="logical" name="EVENONLYGW"> F  </i>
   <i type="int" name="NKREDLFX">     1</i>
   <i type="int" name="NKREDLFY">     1</i>
   <i type="int" name="NKREDLFZ">     1</i>
   <i type="int" name="MAXMEM">  2800</i>
   <i type="int" name="TELESCOPE">     0</i>
   <i type="int" name="NTAUPAR">    -1</i>
   <i type="int" name="NOMEGAPAR">    -1</i>
   <i name="DAMP_NEWTON">      0.80000001</i>
   <i name="LAMBDA">      1.00000000</i>
  </separator>
  <separator name="External order field" >
   <i name="OFIELD_KAPPA">      0.00000000</i>
   <v name="OFIELD_K">      0.00000000      0.00000000      0.00000000</v>
   <i name="OFIELD_Q6_NEAR">      0.00000000</i>
   <i name="OFIELD_Q6_FAR">      0.00000000</i>
   <i name="OFIELD_A">      0.00000000</i>
  </separator>
  <separator name="optional k-points parameters" >
   <i type="int" name="KPOINTS_OPT_MODE">     1</i>
   <i type="logical" name="LKPOINTS_OPT"> F  </i>
  </separator>
 </parameters>
 <atominfo>
  <atoms>      64 </atoms>
  <types>       2 </types>
  <array name="atoms" >
   <dimension dim="1">ion</dimension>
   <field type="string">element</field>
   <field type="int">atomtype</field>
   <set>
    <rc><c>As</c><c>   1</c></rc>
    <rc><c>As</c><c>   1</c></rc>
    <rc><c>As</c><c>   1</c></rc>
    <rc><c>As</c><c>   1</c></rc>
    <rc><c>As</c><c>   1</c></rc>
    <rc><c>As</c><c>   1</c></rc>
    <rc><c>As</c><c>   1</c></rc>
    <rc><c>As</c><c>   1</c></rc>
    <rc><c>As</c><c>   1</c></rc>
    <rc><c>As</c><c>   1</c></rc>
    <rc><c>As</c><c>   1</c></rc>
    <rc><c>As</c><c>   1</c></rc>
    <rc><c>As</c><c>   1</c></rc>
    <rc><c>As</c><c>   1</c></rc>
    <rc><c>As</c><c>   1</c></rc>
    <rc><c>As</c><c>   1</c></rc>
    <rc><c>As</c><c>   1</c></rc>
    <rc><c>As</c><c>   1</c></rc>
    <rc><c>As</c><c>   1</c></rc>
    <rc><c>As</c><c>   1</c></rc>
    <rc><c>As</c><c>   1</c></rc>
    <rc><c>As</c><c>   1</c></rc>
    <rc><c>As</c><c>   1</c></rc>
    <rc><c>As</c><c>   1</c></rc>
    <rc><c>As</c><c>   1</c></rc>
    <rc><c>As</c><c>   1</c></rc>
    <rc><c>As</c><c>   1</c></rc>
    <rc><c>As</c><c>   1</c></rc>
    <rc><c>As</c><c>   1</c></rc>
    <rc><c>As</c><c>   1</c></rc>
    <rc><c>As</c><c>   1</c></rc>
    <rc><c>As</c><c>   1</c></rc>
    <rc><c>Ga</c><c>   2</c></rc>
    <rc><c>Ga</c><c>   2</c></rc>
    <rc><c>Ga</c><c>   2</c></rc>
    <rc><c>Ga</c><c>   2</c></rc>
    <rc><c>Ga</c><c>   2</c></rc>
    <rc><c>Ga</c><c>   2</c></rc>
    <rc><c>Ga</c><c>   2</c></rc>
    <rc><c>Ga</c><c>   2</c></rc>
    <rc><c>Ga</c><c>   2</c></rc>
    <rc><c>Ga</c><c>   2</c></rc>
    <rc><c>Ga</c><c>   2</c></rc>
    <rc><c>Ga</c><c>   2</c></rc>
    <rc><c>Ga</c><c>   2</c></rc>
    <rc><c>Ga</c><c>   2</c></rc>
    <rc><c>Ga</c><c>   2</c></rc>
    <rc><c>Ga</c><c>   2</c></rc>
    <rc><c>Ga</c><c>   2</c></rc>
    <rc><c>Ga</c><c>   2</c></rc>
    <rc><c>Ga</c><c>   2</c></rc>
    <rc><c>Ga</c><c>   2</c></rc>
    <rc><c>Ga</c><c>   2</c></rc>
    <rc><c>Ga</c><c>   2</c></rc>
    <rc><c>Ga</c><c>   2</c></rc>
    <rc><c>Ga</c><c>   2</c></rc>
    <rc><c>Ga</c><c>   2</c></rc>
    <rc><c>Ga</c><c>   2</c></rc>
    <rc><c>Ga</c><c>   2</c></rc>
    <rc><c>Ga</c><c>   2</c></rc>
    <rc><c>Ga</c><c>   2</c></rc>
    <rc><c>Ga</c><c>   2</c></rc>
    <rc><c>Ga</c><c>   2</c></rc>
    <rc><c>Ga</c><c>   2</c></rc>
   </set>
  </array>
  <array name="atomtypes" >
   <dimension dim="1">type</dimension>
   <field type="int">atomspertype</field>
   <field type="string">element</field>
   <field>mass</field>
   <field>valence</field>
   <field type="string">pseudopotential</field>
   <set>
    <rc><c>  32</c><c>As</c><c>     74.92200000</c><c>      5.00000000</c><c>  PAW_PBE As 22Sep2009                  </c></rc>
    <rc><c>  32</c><c>Ga</c><c>     69.72300000</c><c>      3.00000000</c><c>  PAW_PBE Ga 08Apr2002                  </c></rc>
   </set>
  </array>
 </atominfo>
 <structure name="initialpos" >
  <crystal>
   <varray name="basis" >
    <v>      11.78615283       0.00000000       0.00000000 </v>
    <v>       0.00000000      11.44640040       0.00000000 </v>
    <v>       0.00000000       0.00000000      11.44640040 </v>
   </varray>
   <i name="volume">   1544.22271288 </i>
   <varray name="rec_basis" >
    <v>       0.08484533       0.00000000       0.00000000 </v>
    <v>       0.00000000       0.08736371       0.00000000 </v>
    <v>       0.00000000       0.00000000       0.08736371 </v>
   </varray>
  </crystal>
  <varray name="positions" >
   <v>       0.00000000       0.00000000       0.00000000 </v>
   <v>       0.00000000       0.00000000       0.50000000 </v>
   <v>       0.00000000       0.50000000       0.00000000 </v>
   <v>       0.00000000       0.50000000       0.50000000 </v>
   <v>       0.50000000       0.00000000       0.00000000 </v>
   <v>       0.50000000       0.00000000       0.50000000 </v>
   <v>       0.50000000       0.50000000       0.00000000 </v>
   <v>       0.50000000       0.50000000       0.50000000 </v>
   <v>       0.25000000       0.25000000       0.00000000 </v>
   <v>       0.25000000       0.25000000       0.50000000 </v>
   <v>       0.25000000       0.75000000       0.00000000 </v>
   <v>       0.25000000       0.75000000       0.50000000 </v>
   <v>       0.75000000       0.25000000       0.00000000 </v>
   <v>       0.75000000       0.25000000       0.50000000 </v>
   <v>       0.75000000       0.75000000       0.00000000 </v>
   <v>       0.75000000       0.75000000       0.50000000 </v>
   <v>       0.25000000       0.00000000       0.25000000 </v>
   <v>       0.25000000       0.00000000       0.75000000 </v>
   <v>       0.25000000       0.50000000       0.25000000 </v>
   <v>       0.25000000       0.50000000       0.75000000 </v>
   <v>       0.75000000       0.00000000       0.25000000 </v>
   <v>       0.75000000       0.00000000       0.75000000 </v>
   <v>       0.75000000       0.50000000       0.25000000 </v>
   <v>       0.75000000       0.50000000       0.75000000 </v>
   <v>       0.00000000       0.25000000       0.25000000 </v>
   <v>       0.00000000       0.25000000       0.75000000 </v>
   <v>       0.00000000       0.75000000       0.25000000 </v>
   <v>       0.00000000       0.75000000       0.75000000 </v>
   <v>       0.50000000       0.25000000       0.25000000 </v>
   <v>       0.50000000       0.25000000       0.75000000 </v>
   <v>       0.50000000       0.75000000       0.25000000 </v>
   <v>       0.50000000       0.75000000       0.75000000 </v>
   <v>       0.12500000       0.12500000       0.12500000 </v>
   <v>       0.12500000       0.12500000       0.62500000 </v>
   <v>       0.12500000       0.62500000       0.12500000 </v>
   <v>       0.12500000       0.62500000       0.62500000 </v>
   <v>       0.62500000       0.12500000       0.12500000 </v>
   <v>       0.62500000       0.12500000       0.62500000 </v>
   <v>       0.62500000       0.62500000       0.12500000 </v>
   <v>       0.62500000       0.62500000       0.62500000 </v>
   <v>       0.37500000       0.12500000       0.37500000 </v>
   <v>       0.37500000       0.12500000       0.87500000 </v>
   <v>       0.37500000       0.62500000       0.37500000 </v>
   <v>       0.37500000       0.62500000       0.87500000 </v>
   <v>       0.87500000       0.12500000       0.37500000 </v>
   <v>       0.87500000       0.12500000       0.87500000 </v>
   <v>       0.87500000       0.62500000       0.37500000 </v>
   <v>       0.87500000       0.62500000       0.87500000 </v>
   <v>       0.37500000       0.37500000       0.12500000 </v>
   <v>       0.37500000       0.37500000       0.62500000 </v>
   <v>       0.37500000       0.87500000       0.12500000 </v>
   <v>       0.37500000       0.87500000       0.62500000 </v>
   <v>       0.87500000       0.37500000       0.12500000 </v>
   <v>       0.87500000       0.37500000       0.62500000 </v>
   <v>       0.87500000       0.87500000       0.12500000 </v>
   <v>       0.87500000       0.87500000       0.62500000 </v>
   <v>       0.12500000       0.37500000       0.37500000 </v>
   <v>       0.12500000       0.37500000       0.87500000 </v>
   <v>       0.12500000       0.87500000       0.37500000 </v>
   <v>       0.12500000       0.87500000       0.87500000 </v>
   <v>       0.62500000       0.37500000       0.37500000 </v>
   <v>       0.62500000       0.37500000       0.87500000 </v>
   <v>       0.62500000       0.87500000       0.37500000 </v>
   <v>       0.62500000       0.87500000       0.87500000 </v>
  </varray>
 </structure>
 <calculation>
  <scstep>
   <time name="dav">   74.25   75.40</time>
   <time name="total">   74.40   75.55</time>
   <energy>
    <i name="alphaZ">    567.12451340 </i>
    <i name="ewald">  -7174.45575884 </i>
    <i name="hartreedc">   -606.78911942 </i>
    <i name="XCdc">   -996.94913312 </i>
    <i name="pawpsdc">   6692.16565901 </i>
    <i name="pawaedc">  -5247.93935635 </i>
    <i name="eentropy">      0.00000000 </i>
    <i name="bandstr">    370.68338214 </i>
    <i name="atom">   7329.73306348 </i>
    <i name="e_fr_energy">    933.57325030 </i>
    <i name="e_wo_entrp">    933.57325030 </i>
    <i name="e_0_energy">    933.57325030 </i>
   </energy>
  </scstep>
  <scstep>
   <time name="dav">   84.51   85.75</time>
   <time name="total">   84.52   85.76</time>
   <energy>
    <i name="e_fr_energy">   -166.31981611 </i>
    <i name="e_wo_entrp">   -166.31981611 </i>
    <i name="e_0_energy">   -166.31981611 </i>
   </energy>
  </scstep>
  <scstep>
   <time name="dav">   86.40   87.69</time>
   <time name="total">   86.41   87.70</time>
   <energy>
    <i name="e_fr_energy">   -267.40091673 </i>
    <i name="e_wo_entrp">   -267.40091673 </i>
    <i name="e_0_energy">   -267.40091673 </i>
   </energy>
  </scstep>
  <scstep>
   <time name="dav">   85.56   86.81</time>
   <time name="total">   85.57   86.82</time>
   <energy>
    <i name="e_fr_energy">   -269.93184248 </i>
    <i name="e_wo_entrp">   -269.93184248 </i>
    <i name="e_0_energy">   -269.93184248 </i>
   </energy>
  </scstep>
  <scstep>
   <time name="dav">   85.50   86.78</time>
   <time name="total">   86.34   87.62</time>
   <energy>
    <i name="e_fr_energy">   -270.00693658 </i>
    <i name="e_wo_entrp">   -270.00693658 </i>
    <i name="e_0_energy">   -270.00693658 </i>
   </energy>
  </scstep>
  <scstep>
   <time name="dav">   83.57   84.87</time>
   <time name="total">   84.53   85.84</time>
   <energy>
    <i name="e_fr_energy">   -265.84840418 </i>
    <i name="e_wo_entrp">   -265.84840418 </i>
    <i name="e_0_energy">   -265.84840418 </i>
   </energy>
  </scstep>
  <scstep>
   <time name="dav">   78.79   79.96</time>
   <time name="total">   79.75   80.95</time>
   <energy>
    <i name="e_fr_energy">   -265.04192883 </i>
    <i name="e_wo_entrp">   -265.04192883 </i>
    <i name="e_0_energy">   -265.04192883 </i>
   </energy>
  </scstep>
  <scstep>
   <time name="dav">   76.42   77.60</time>
   <time name="total">   77.39   78.59</time>
   <energy>
    <i name="e_fr_energy">   -265.00009600 </i>
    <i name="e_wo_entrp">   -265.00009600 </i>
    <i name="e_0_energy">   -265.00009600 </i>
   </energy>
  </scstep>
  <scstep>
   <time name="dav">   77.05   78.22</time>
   <time name="total">   78.01   79.20</time>
   <energy>
    <i name="e_fr_energy">   -265.01164711 </i>
    <i name="e_wo_entrp">   -265.01164711 </i>
    <i name="e_0_energy">   -265.01164711 </i>
   </energy>
  </scstep>
  <scstep>
   <time name="dav">   82.86   84.17</time>
   <time name="total">   83.82   85.14</time>
   <energy>
    <i name="e_fr_energy">   -265.01282002 </i>
    <i name="e_wo_entrp">   -265.01282002 </i>
    <i name="e_0_energy">   -265.01282002 </i>
   </energy>
  </scstep>
  <scstep>
   <time name="dav">   75.59   76.65</time>
   <time name="total">   76.57   77.64</time>
   <energy>
    <i name="e_fr_energy">   -265.01410032 </i>
    <i name="e_wo_entrp">   -265.01410032 </i>
    <i name="e_0_energy">   -265.01410032 </i>
   </energy>
  </scstep>
  <scstep>
   <time name="dav">   83.55   84.78</time>
   <time name="total">   84.52   85.76</time>
   <energy>
    <i name="e_fr_energy">   -265.01410508 </i>
    <i name="e_wo_entrp">   -265.01410508 </i>
    <i name="e_0_energy">   -265.01410508 </i>
   </energy>
  </scstep>
  <scstep>
   <time name="dav">   79.61   80.79</time>
   <time name="total">   80.59   81.78</time>
   <energy>
    <i name="e_fr_energy">   -265.01411292 </i>
    <i name="e_wo_entrp">   -265.01411292 </i>
    <i name="e_0_energy">   -265.01411292 </i>
   </energy>
  </scstep>
  <scstep>
   <time name="dav">   69.63   70.61</time>
   <time name="total">   69.80   70.79</time>
   <energy>
    <i name="alphaZ">    567.12451340 </i>
    <i name="ewald">  -7174.45575884 </i>
    <i name="hartreedc">   -714.54194996 </i>
    <i name="XCdc">   -975.14455186 </i>
    <i name="pawpsdc">  14492.54357211 </i>
    <i name="pawaedc"> -13059.80396950 </i>
    <i name="eentropy">      0.00000000 </i>
    <i name="bandstr">   -730.46903144 </i>
    <i name="atom">   7329.73306348 </i>
    <i name="e_fr_energy">   -265.01411261 </i>
    <i name="e_wo_entrp">   -265.01411261 </i>
    <i name="e_0_energy">   -265.01411261 </i>
   </energy>
  </scstep>
  <structure>
   <crystal>
    <varray name="basis" >
     <v>      11.78615283       0.00000000       0.00000000 </v>
     <v>       0.00000000      11.44640040       0.00000000 </v>
     <v>       0.00000000       0.00000000      11.44640040 </v>
    </varray>
    <i name="volume">   1544.22271288 </i>
    <varray name="rec_basis" >
     <v>       0.08484533       0.00000000       0.00000000 </v>
     <v>       0.00000000       0.08736371       0.00000000 </v>
     <v>       0.00000000       0.00000000       0.08736371 </v>
    </varray>
   </crystal>
   <varray name="positions" >
    <v>       0.00000000       0.00000000       0.00000000 </v>
    <v>       0.00000000       0.00000000       0.50000000 </v>
    <v>       0.00000000       0.50000000       0.00000000 </v>
    <v>       0.00000000       0.50000000       0.50000000 </v>
    <v>       0.50000000       0.00000000       0.00000000 </v>
    <v>       0.50000000       0.00000000       0.50000000 </v>
    <v>       0.50000000       0.50000000       0.00000000 </v>
    <v>       0.50000000       0.50000000       0.50000000 </v>
    <v>       0.25000000       0.25000000       0.00000000 </v>
    <v>       0.25000000       0.25000000       0.50000000 </v>
    <v>       0.25000000       0.75000000       0.00000000 </v>
    <v>       0.25000000       0.75000000       0.50000000 </v>
    <v>       0.75000000       0.25000000       0.00000000 </v>
    <v>       0.75000000       0.25000000       0.50000000 </v>
    <v>       0.75000000       0.75000000       0.00000000 </v>
    <v>       0.75000000       0.75000000       0.50000000 </v>
    <v>       0.25000000       0.00000000       0.25000000 </v>
    <v>       0.25000000       0.00000000       0.75000000 </v>
    <v>       0.25000000       0.50000000       0.25000000 </v>
    <v>       0.25000000       0.50000000       0.75000000 </v>
    <v>       0.75000000       0.00000000       0.25000000 </v>
    <v>       0.75000000       0.00000000       0.75000000 </v>
    <v>       0.75000000       0.50000000       0.25000000 </v>
    <v>       0.75000000       0.50000000       0.75000000 </v>
    <v>       0.00000000       0.25000000       0.25000000 </v>
    <v>       0.00000000       0.25000000       0.75000000 </v>
    <v>       0.00000000       0.75000000       0.25000000 </v>
    <v>       0.00000000       0.75000000       0.75000000 </v>
    <v>       0.50000000       0.25000000       0.25000000 </v>
    <v>       0.50000000       0.25000000       0.75000000 </v>
    <v>       0.50000000       0.75000000       0.25000000 </v>
    <v>       0.50000000       0.75000000       0.75000000 </v>
    <v>       0.12500000       0.12500000       0.12500000 </v>
    <v>       0.12500000       0.12500000       0.62500000 </v>
    <v>       0.12500000       0.62500000       0.12500000 </v>
    <v>       0.12500000       0.62500000       0.62500000 </v>
    <v>       0.62500000       0.12500000       0.12500000 </v>
    <v>       0.62500000       0.12500000       0.62500000 </v>
    <v>       0.62500000       0.62500000       0.12500000 </v>
    <v>       0.62500000       0.62500000       0.62500000 </v>
    <v>       0.37500000       0.12500000       0.37500000 </v>
    <v>       0.37500000       0.12500000       0.87500000 </v>
    <v>       0.37500000       0.62500000       0.37500000 </v>
    <v>       0.37500000       0.62500000       0.87500000 </v>
    <v>       0.87500000       0.12500000       0.37500000 </v>
    <v>       0.87500000       0.12500000       0.87500000 </v>
    <v>       0.87500000       0.62500000       0.37500000 </v>
    <v>       0.87500000       0.62500000       0.87500000 </v>
    <v>       0.37500000       0.37500000       0.12500000 </v>
    <v>       0.37500000       0.37500000       0.62500000 </v>
    <v>       0.37500000       0.87500000       0.12500000 </v>
    <v>       0.37500000       0.87500000       0.62500000 </v>
    <v>       0.87500000       0.37500000       0.12500000 </v>
    <v>       0.87500000       0.37500000       0.62500000 </v>
    <v>       0.87500000       0.87500000       0.12500000 </v>
    <v>       0.87500000       0.87500000       0.62500000 </v>
    <v>       0.12500000       0.37500000       0.37500000 </v>
    <v>       0.12500000       0.37500000       0.87500000 </v>
    <v>       0.12500000       0.87500000       0.37500000 </v>
    <v>       0.12500000       0.87500000       0.87500000 </v>
    <v>       0.62500000       0.37500000       0.37500000 </v>
    <v>       0.62500000       0.37500000       0.87500000 </v>
    <v>       0.62500000       0.87500000       0.37500000 </v>
    <v>       0.62500000       0.87500000       0.87500000 </v>
   </varray>
  </structure>
  <varray name="forces" >
   <v>       0.00000000       0.00000000       0.00000000 </v>
   <v>      -0.00000000       0.00000000      -0.00000000 </v>
   <v>       0.00000000      -0.00000000       0.00000000 </v>
   <v>       0.00000000      -0.00000000       0.00000000 </v>
   <v>      -0.00000000      -0.00000000       0.00000000 </v>
   <v>      -0.00000000      -0.00000000      -0.00000000 </v>
   <v>      -0.00000000      -0.00000000       0.00000000 </v>
   <v>      -0.00000000       0.00000000       0.00000000 </v>
   <v>       0.00000000       0.00000000       0.00000000 </v>
   <v>      -0.00000000      -0.00000000       0.00000000 </v>
   <v>      -0.00000000       0.00000000      -0.00000000 </v>
   <v>      -0.00000000      -0.00000000      -0.00000000 </v>
   <v>      -0.00000000      -0.00000000      -0.00000000 </v>
   <v>      -0.00000000      -0.00000000      -0.00000000 </v>
   <v>       0.00000000       0.00000000      -0.00000000 </v>
   <v>       0.00000000      -0.00000000      -0.00000000 </v>
   <v>      -0.00000000      -0.00000000      -0.00000000 </v>
   <v>      -0.00000000      -0.00000000      -0.00000000 </v>
   <v>      -0.00000000       0.00000000       0.00000000 </v>
   <v>      -0.00000000       0.00000000       0.00000000 </v>
   <v>       0.00000000      -0.00000000      -0.00000000 </v>
   <v>       0.00000000       0.00000000      -0.00000000 </v>
   <v>       0.00000000      -0.00000000       0.00000000 </v>
   <v>       0.00000000       0.00000000       0.00000000 </v>
   <v>      -0.00000000       0.00000000      -0.00000000 </v>
   <v>       0.00000000      -0.00000000       0.00000000 </v>
   <v>       0.00000000       0.00000000      -0.00000000 </v>
   <v>      -0.00000000      -0.00000000      -0.00000000 </v>
   <v>       0.00000000       0.00000000       0.00000000 </v>
   <v>      -0.00000000       0.00000000      -0.00000000 </v>
   <v>       0.00000000      -0.00000000      -0.00000000 </v>
   <v>       0.00000000       0.00000000      -0.00000000 </v>
   <v>       0.00000000       0.00000000      -0.00000000 </v>
   <v>      -0.00000000       0.00000000       0.00000000 </v>
   <v>       0.00000000      -0.00000000       0.00000000 </v>
   <v>      -0.00000000      -0.00000000       0.00000000 </v>
   <v>      -0.00000000       0.00000000       0.00000000 </v>
   <v>      -0.00000000      -0.00000000       0.00000000 </v>
   <v>       0.00000000      -0.00000000      -0.00000000 </v>
   <v>      -0.00000000      -0.00000000      -0.00000000 </v>
   <v>      -0.00000000       0.00000000       0.00000000 </v>
   <v>       0.00000000       0.00000000       0.00000000 </v>
   <v>      -0.00000000      -0.00000000       0.00000000 </v>
   <v>      -0.00000000      -0.00000000       0.00000000 </v>
   <v>      -0.00000000       0.00000000       0.00000000 </v>
   <v>      -0.00000000      -0.00000000       0.00000000 </v>
   <v>      -0.00000000      -0.00000000       0.00000000 </v>
   <v>      -0.00000000      -0.00000000       0.00000000 </v>
   <v>      -0.00000000       0.00000000       0.00000000 </v>
   <v>      -0.00000000       0.00000000       0.00000000 </v>
   <v>      -0.00000000      -0.00000000      -0.00000000 </v>
   <v>      -0.00000000      -0.00000000       0.00000000 </v>
   <v>       0.00000000       0.00000000       0.00000000 </v>
   <v>      -0.00000000       0.00000000      -0.00000000 </v>
   <v>      -0.00000000      -0.00000000      -0.00000000 </v>
   <v>      -0.00000000       0.00000000       0.00000000 </v>
   <v>      -0.00000000       0.00000000       0.00000000 </v>
   <v>      -0.00000000       0.00000000       0.00000000 </v>
   <v>       0.00000000      -0.00000000       0.00000000 </v>
   <v>      -0.00000000       0.00000000       0.00000000 </v>
   <v>      -0.00000000      -0.00000000       0.00000000 </v>
   <v>      -0.00000000       0.00000000       0.00000000 </v>
   <v>      -0.00000000      -0.00000000      -0.00000000 </v>
   <v>       0.00000000       0.00000000       0.00000000 </v>
  </varray>
  <varray name="stress" >
   <v>     -16.89551811       0.00000000       0.00000000 </v>
   <v>       0.00000000       0.37483481       0.00000000 </v>
   <v>       0.00000000       0.00000000       0.37483481 </v>
  </varray>
  <scstep>
   <time name="total">  115.31  116.68</time>
   <energy>
    <i name="e_fr_energy">  -1270.55180088 </i>
    <i name="e_wo_entrp">  -1270.55180088 </i>
    <i name="e_0_energy">  -1270.55180088 </i>
   </energy>
  </scstep>
  <scstep>
   <time name="total">   85.37   86.55</time>
   <energy>
    <i name="e_fr_energy">  -1098.09006783 </i>
    <i name="e_wo_entrp">  -1098.09006783 </i>
    <i name="e_0_energy">  -1098.09006783 </i>
   </energy>
  </scstep>
  <scstep>
   <time name="total">   86.71   87.76</time>
   <energy>
    <i name="e_fr_energy">  -1100.26255758 </i>
    <i name="e_wo_entrp">  -1100.26255758 </i>
    <i name="e_0_energy">  -1100.26255758 </i>
   </energy>
  </scstep>
  <scstep>
   <time name="total">   55.30   56.00</time>
   <energy>
    <i name="e_fr_energy">  -1100.38020945 </i>
    <i name="e_wo_entrp">  -1100.38020945 </i>
    <i name="e_0_energy">  -1100.38020945 </i>
   </energy>
  </scstep>
  <scstep>
   <time name="total">   55.54   56.26</time>
   <energy>
    <i name="e_fr_energy">  -1100.38402221 </i>
    <i name="e_wo_entrp">  -1100.38402221 </i>
    <i name="e_0_energy">  -1100.38402221 </i>
   </energy>
  </scstep>
  <scstep>
   <time name="total">   58.02   58.77</time>
   <energy>
    <i name="e_fr_energy">  -1100.38429138 </i>
    <i name="e_wo_entrp">  -1100.38429138 </i>
    <i name="e_0_energy">  -1100.38429138 </i>
   </energy>
  </scstep>
  <scstep>
   <time name="total">   60.44   61.23</time>
   <energy>
    <i name="e_fr_energy">  -1100.38430835 </i>
    <i name="e_wo_entrp">  -1100.38430835 </i>
    <i name="e_0_energy">  -1100.38430835 </i>
   </energy>
  </scstep>
  <scstep>
   <time name="total">   64.08   64.90</time>
   <energy>
    <i name="e_fr_energy">  -1100.38431326 </i>
    <i name="e_wo_entrp">  -1100.38431326 </i>
    <i name="e_0_energy">  -1100.38431326 </i>
   </energy>
  </scstep>
  <scstep>
   <time name="total">   64.98   65.80</time>
   <energy>
    <i name="e_fr_energy">  -1100.38430803 </i>
    <i name="e_wo_entrp">  -1100.38430803 </i>
    <i name="e_0_energy">  -1100.38430803 </i>
   </energy>
  </scstep>
  <scstep>
   <time name="total">   66.69   67.70</time>
   <energy>
    <i name="e_fr_energy">  -1100.38430923 </i>
    <i name="e_wo_entrp">  -1100.38430923 </i>
    <i name="e_0_energy">  -1100.38430923 </i>
   </energy>
  </scstep>
  <scstep>
   <time name="total">   67.77   68.70</time>
   <energy>
    <i name="e_fr_energy">  -1100.38430895 </i>
    <i name="e_wo_entrp">  -1100.38430895 </i>
    <i name="e_0_energy">  -1100.38430895 </i>
   </energy>
  </scstep>
  <scstep>
   <time name="total">  114.28  115.63</time>
   <energy>
    <i name="e_fr_energy">  -1251.23323893 </i>
    <i name="e_wo_entrp">  -1251.23323893 </i>
    <i name="e_0_energy">  -1251.23323893 </i>
   </energy>
  </scstep>
  <scstep>
   <time name="total">   84.37   85.51</time>
   <energy>
    <i name="e_fr_energy">  -1126.57729731 </i>
    <i name="e_wo_entrp">  -1126.57729731 </i>
    <i name="e_0_energy">  -1126.57729731 </i>
   </energy>
  </scstep>
  <scstep>
   <time name="total">   85.42   86.47</time>
   <energy>
    <i name="e_fr_energy">  -1128.84778018 </i>
    <i name="e_wo_entrp">  -1128.84778018 </i>
    <i name="e_0_energy">  -1128.84778018 </i>
   </energy>
  </scstep>
  <scstep>
   <time name="total">   54.15   54.92</time>
   <energy>
    <i name="e_fr_energy">  -1128.96645316 </i>
    <i name="e_wo_entrp">  -1128.96645316 </i>
    <i name="e_0_energy">  -1128.96645316 </i>
   </energy>
  </scstep>
  <scstep>
   <time name="total">   52.49   53.16</time>
   <energy>
    <i name="e_fr_energy">  -1128.96197740 </i>
    <i name="e_wo_entrp">  -1128.96197740 </i>
    <i name="e_0_energy">  -1128.96197740 </i>
   </energy>
  </scstep>
  <scstep>
   <time name="total">   55.62   56.40</time>
   <energy>
    <i name="e_fr_energy">  -1128.96036937 </i>
    <i name="e_wo_entrp">  -1128.96036937 </i>
    <i name="e_0_energy">  -1128.96036937 </i>
   </energy>
  </scstep>
  <scstep>
   <time name="total">   58.22   58.95</time>
   <energy>
    <i name="e_fr_energy">  -1128.96005242 </i>
    <i name="e_wo_entrp">  -1128.96005242 </i>
    <i name="e_0_energy">  -1128.96005242 </i>
   </energy>
  </scstep>
  <scstep>
   <time name="total">   62.70   63.50</time>
   <energy>
    <i name="e_fr_energy">  -1128.96010743 </i>
    <i name="e_wo_entrp">  -1128.96010743 </i>
    <i name="e_0_energy">  -1128.96010743 </i>
   </energy>
  </scstep>
  <scstep>
   <time name="total">   63.44   64.24</time>
   <energy>
    <i name="e_fr_energy">  -1128.96005373 </i>
    <i name="e_wo_entrp">  -1128.96005373 </i>
    <i name="e_0_energy">  -1128.96005373 </i>
   </energy>
  </scstep>
  <scstep>
   <time name="total">   64.89   65.71</time>
   <energy>
    <i name="e_fr_energy">  -1128.96006804 </i>
    <i name="e_wo_entrp">  -1128.96006804 </i>
    <i name="e_0_energy">  -1128.96006804 </i>
   </energy>
  </scstep>
  <scstep>
   <time name="total">   66.58   67.40</time>
   <energy>
    <i name="e_fr_energy">  -1128.96004210 </i>
    <i name="e_wo_entrp">  -1128.96004210 </i>
    <i name="e_0_energy">  -1128.96004210 </i>
   </energy>
  </scstep>
  <scstep>
   <time name="total">  113.84  115.27</time>
   <energy>
    <i name="e_fr_energy">  -1375.21943960 </i>
    <i name="e_wo_entrp">  -1375.21943960 </i>
    <i name="e_0_energy">  -1375.21943960 </i>
   </energy>
  </scstep>
  <scstep>
   <time name="total">   81.04   82.06</time>
   <energy>
    <i name="e_fr_energy">  -1131.77645969 </i>
    <i name="e_wo_entrp">  -1131.77645969 </i>
    <i name="e_0_energy">  -1131.77645969 </i>
   </energy>
  </scstep>
  <scstep>
   <time name="total">   83.88   84.92</time>
   <energy>
    <i name="e_fr_energy">  -1134.13113066 </i>
    <i name="e_wo_entrp">  -1134.13113066 </i>
    <i name="e_0_energy">  -1134.13113066 </i>
   </energy>
  </scstep>
  <scstep>
   <time name="total">   55.80   56.50</time>
   <energy>
    <i name="e_fr_energy">  -1134.25975688 </i>
    <i name="e_wo_entrp">  -1134.25975688 </i>
    <i name="e_0_energy">  -1134.25975688 </i>
   </energy>
  </scstep>
  <scstep>
   <time name="total">   55.62   56.31</time>
   <energy>
    <i name="e_fr_energy">  -1134.25496469 </i>
    <i name="e_wo_entrp">  -1134.25496469 </i>
    <i name="e_0_energy">  -1134.25496469 </i>
   </energy>
  </scstep>
  <scstep>
   <time name="total">   57.90   58.62</time>
   <energy>
    <i name="e_fr_energy">  -1134.25328901 </i>
    <i name="e_wo_entrp">  -1134.25328901 </i>
    <i name="e_0_energy">  -1134.25328901 </i>
   </energy>
  </scstep>
  <scstep>
   <time name="total">   60.34   61.10</time>
   <energy>
    <i name="e_fr_energy">  -1134.25290849 </i>
    <i name="e_wo_entrp">  -1134.25290849 </i>
    <i name="e_0_energy">  -1134.25290849 </i>
   </energy>
  </scstep>
  <scstep>
   <time name="total">   65.19   65.99</time>
   <energy>
    <i name="e_fr_energy">  -1134.25297642 </i>
    <i name="e_wo_entrp">  -1134.25297642 </i>
    <i name="e_0_energy">  -1134.25297642 </i>
   </energy>
  </scstep>
  <scstep>
   <time name="total">   65.80   66.62</time>
   <energy>
    <i name="e_fr_energy">  -1134.25294322 </i>
    <i name="e_wo_entrp">  -1134.25294322 </i>
    <i name="e_0_energy">  -1134.25294322 </i>
   </energy>
  </scstep>
  <scstep>
   <time name="total">   67.11   67.93</time>
   <energy>
    <i name="e_fr_energy">  -1134.25292318 </i>
    <i name="e_wo_entrp">  -1134.25292318 </i>
    <i name="e_0_energy">  -1134.25292318 </i>
   </energy>
  </scstep>
  <scstep>
   <time name="total">   68.20   69.02</time>
   <energy>
    <i name="e_fr_energy">  -1134.25291737 </i>
    <i name="e_wo_entrp">  -1134.25291737 </i>
    <i name="e_0_energy">  -1134.25291737 </i>
   </energy>
  </scstep>
  <kpoints>
   <generation param="Gamma">
    <v type="int" name="divisions">       5        5        5 </v>
    <v name="usershift">      0.00000000       0.00000000       0.00000000 </v>
    <v name="genvec1">      0.20000000       0.00000000       0.00000000 </v>
    <v name="genvec2">      0.00000000       0.20000000       0.00000000 </v>
    <v name="genvec3">      0.00000000       0.00000000       0.20000000 </v>
    <v name="shift">      0.00000000       0.00000000       0.00000000 </v>
   </generation>
   <varray name="kpointlist" >
    <v>       0.00000000       0.00000000       0.00000000 </v>
    <v>       0.20000000       0.00000000       0.00000000 </v>
    <v>       0.40000000       0.00000000       0.00000000 </v>
    <v>       0.00000000       0.20000000       0.00000000 </v>
    <v>       0.20000000       0.20000000       0.00000000 </v>
    <v>       0.40000000       0.20000000       0.00000000 </v>
    <v>       0.00000000       0.40000000       0.00000000 </v>
    <v>       0.20000000       0.40000000       0.00000000 </v>
    <v>       0.40000000       0.40000000       0.00000000 </v>
    <v>       0.00000000       0.20000000       0.20000000 </v>
    <v>       0.00000000      -0.20000000       0.20000000 </v>
    <v>       0.20000000       0.20000000       0.20000000 </v>
    <v>       0.20000000      -0.20000000       0.20000000 </v>
    <v>       0.40000000       0.20000000       0.20000000 </v>
    <v>       0.40000000      -0.20000000       0.20000000 </v>
    <v>       0.00000000       0.40000000       0.20000000 </v>
    <v>       0.00000000      -0.20000000       0.40000000 </v>
    <v>       0.20000000       0.40000000       0.20000000 </v>
    <v>       0.20000000      -0.20000000       0.40000000 </v>
    <v>       0.40000000       0.40000000       0.20000000 </v>
    <v>       0.40000000      -0.20000000       0.40000000 </v>
    <v>       0.00000000       0.40000000       0.40000000 </v>
    <v>       0.00000000      -0.40000000       0.40000000 </v>
    <v>       0.20000000       0.40000000       0.40000000 </v>
    <v>       0.20000000      -0.40000000       0.40000000 </v>
    <v>       0.40000000       0.40000000       0.40000000 </v>
    <v>       0.40000000      -0.40000000       0.40000000 </v>
   </varray>
   <varray name="weights" >
    <v>       0.00800000 </v>
    <v>       0.01600000 </v>
    <v>       0.01600000 </v>
    <v>       0.03200000 </v>
    <v>       0.06400000 </v>
    <v>       0.06400000 </v>
    <v>       0.03200000 </v>
    <v>       0.06400000 </v>
    <v>       0.06400000 </v>
    <v>       0.01600000 </v>
    <v>       0.01600000 </v>
    <v>       0.03200000 </v>
    <v>       0.03200000 </v>
    <v>       0.03200000 </v>
    <v>       0.03200000 </v>
    <v>       0.03200000 </v>
    <v>       0.03200000 </v>
    <v>       0.06400000 </v>
    <v>       0.06400000 </v>
    <v>       0.06400000 </v>
    <v>       0.06400000 </v>
    <v>       0.01600000 </v>
    <v>       0.01600000 </v>
    <v>       0.03200000 </v>
    <v>       0.03200000 </v>
    <v>       0.03200000 </v>
    <v>       0.03200000 </v>
   </varray>
   <varray name="tetrahedronlist"  type="int" >
    <v type="int" >        4       12       14       18       20 </v>
    <v type="int" >        4       12       18       18       20 </v>
    <v type="int" >        4       18       18       20       24 </v>
    <v type="int" >        4       14       18       20       20 </v>
    <v type="int" >        4       18       20       20       26 </v>
    <v type="int" >        4       18       20       24       26 </v>
    <v type="int" >        2       14       14       20       20 </v>
    <v type="int" >        4       14       20       20       20 </v>
    <v type="int" >        4       20       20       20       26 </v>
    <v type="int" >        2       20       20       26       26 </v>
    <v type="int" >        4       10       12       16       18 </v>
    <v type="int" >        4       12       16       18       18 </v>
    <v type="int" >        4       16       18       18       24 </v>
    <v type="int" >        4       10       16       16       18 </v>
    <v type="int" >        4       16       16       18       22 </v>
    <v type="int" >        4       16       18       22       24 </v>
    <v type="int" >        4       18       20       21       24 </v>
    <v type="int" >        4       18       19       21       24 </v>
    <v type="int" >        4       19       21       24       25 </v>
    <v type="int" >        4       20       21       24       26 </v>
    <v type="int" >        4       21       24       26       27 </v>
    <v type="int" >        4       21       24       25       27 </v>
    <v type="int" >        4       20       20       21       26 </v>
    <v type="int" >        4       20       21       21       26 </v>
    <v type="int" >        4       21       21       26       27 </v>
    <v type="int" >        4       20       21       26       26 </v>
    <v type="int" >        4       21       26       26       27 </v>
    <v type="int" >        4       21       26       27       27 </v>
    <v type="int" >        4       18       19       20       26 </v>
    <v type="int" >        4       19       20       21       26 </v>
    <v type="int" >        4       19       21       26       27 </v>
    <v type="int" >        4       18       19       24       26 </v>
    <v type="int" >        4       19       24       25       26 </v>
    <v type="int" >        4       19       25       26       27 </v>
    <v type="int" >        4       16       17       18       24 </v>
    <v type="int" >        4       17       18       19       24 </v>
    <v type="int" >        4       17       19       24       25 </v>
    <v type="int" >        4       16       17       22       24 </v>
    <v type="int" >        4       17       22       23       24 </v>
    <v type="int" >        4       17       23       24       25 </v>
    <v type="int" >        4       16       18       19       22 </v>
    <v type="int" >        4       16       17       19       22 </v>
    <v type="int" >        4       17       19       22       23 </v>
    <v type="int" >        4       18       19       22       24 </v>
    <v type="int" >        4       19       22       24       25 </v>
    <v type="int" >        4       19       22       23       25 </v>
    <v type="int" >        4       15       19       21       25 </v>
    <v type="int" >        4       13       15       19       25 </v>
    <v type="int" >        4       15       21       25       27 </v>
    <v type="int" >        4       15       21       21       27 </v>
    <v type="int" >        4       15       15       21       27 </v>
    <v type="int" >        4       15       21       27       27 </v>
    <v type="int" >        4       13       19       21       27 </v>
    <v type="int" >        4       13       15       21       27 </v>
    <v type="int" >        4       13       19       25       27 </v>
    <v type="int" >        4       11       17       19       25 </v>
    <v type="int" >        4       11       13       19       25 </v>
    <v type="int" >        4       11       17       23       25 </v>
    <v type="int" >        4       13       17       19       23 </v>
    <v type="int" >        4       11       13       17       23 </v>
    <v type="int" >        4       13       19       23       25 </v>
    <v type="int" >        4        6       13       15       19 </v>
    <v type="int" >        4        5        6       13       19 </v>
    <v type="int" >        4        5        6        8       19 </v>
    <v type="int" >        4        6       15       19       21 </v>
    <v type="int" >        4        6        9       19       21 </v>
    <v type="int" >        4        6        8        9       19 </v>
    <v type="int" >        4        6       15       15       21 </v>
    <v type="int" >        4        6        6       15       21 </v>
    <v type="int" >        4        6        6        9       21 </v>
    <v type="int" >        4        6       15       21       21 </v>
    <v type="int" >        4        6        9       21       21 </v>
    <v type="int" >        4        6        9        9       21 </v>
    <v type="int" >        4        5       13       15       21 </v>
    <v type="int" >        4        5        6       15       21 </v>
    <v type="int" >        4        5        6        9       21 </v>
    <v type="int" >        4        5       13       19       21 </v>
    <v type="int" >        4        5        8       19       21 </v>
    <v type="int" >        4        5        8        9       21 </v>
    <v type="int" >        4        4       11       13       19 </v>
    <v type="int" >        4        4        5       13       19 </v>
    <v type="int" >        4        4        5        8       19 </v>
    <v type="int" >        4        4       11       17       19 </v>
    <v type="int" >        4        4        7       17       19 </v>
    <v type="int" >        4        4        7        8       19 </v>
    <v type="int" >        4        5       11       13       17 </v>
    <v type="int" >        4        4        5       11       17 </v>
    <v type="int" >        4        4        5        7       17 </v>
    <v type="int" >        4        5       13       17       19 </v>
    <v type="int" >        4        5        8       17       19 </v>
    <v type="int" >        4        5        7        8       17 </v>
    <v type="int" >        4        5        6        8       14 </v>
    <v type="int" >        4        5        8       12       14 </v>
    <v type="int" >        4        8       12       14       18 </v>
    <v type="int" >        4        6        8        9       14 </v>
    <v type="int" >        4        8        9       14       20 </v>
    <v type="int" >        4        8       14       18       20 </v>
    <v type="int" >        4        6        6        9       14 </v>
    <v type="int" >        4        6        9       14       14 </v>
    <v type="int" >        4        9       14       14       20 </v>
    <v type="int" >        4        6        9        9       14 </v>
    <v type="int" >        4        9        9       14       20 </v>
    <v type="int" >        4        9       14       20       20 </v>
    <v type="int" >        4        5        6        9       12 </v>
    <v type="int" >        4        6        9       12       14 </v>
    <v type="int" >        4        9       12       14       20 </v>
    <v type="int" >        4        5        8        9       12 </v>
    <v type="int" >        4        8        9       12       18 </v>
    <v type="int" >        4        9       12       18       20 </v>
    <v type="int" >        4        4        5        8       10 </v>
    <v type="int" >        4        5        8       10       12 </v>
    <v type="int" >        4        8       10       12       18 </v>
    <v type="int" >        4        4        7        8       10 </v>
    <v type="int" >        4        7        8       10       16 </v>
    <v type="int" >        4        8       10       16       18 </v>
    <v type="int" >        4        4        5        7       12 </v>
    <v type="int" >        4        4        7       10       12 </v>
    <v type="int" >        4        7       10       12       16 </v>
    <v type="int" >        4        5        7        8       12 </v>
    <v type="int" >        4        7        8       12       18 </v>
    <v type="int" >        4        7       12       16       18 </v>
    <v type="int" >        4       24       25       26       27 </v>
    <v type="int" >        4       24       25       25       27 </v>
    <v type="int" >        4       25       26       27       27 </v>
    <v type="int" >        2       26       26       27       27 </v>
    <v type="int" >        4       26       27       27       27 </v>
    <v type="int" >        4       22       23       24       25 </v>
    <v type="int" >        4       23       24       25       25 </v>
    <v type="int" >        4       22       23       23       25 </v>
    <v type="int" >        4        9       18       19       21 </v>
    <v type="int" >        4        8        9       18       19 </v>
    <v type="int" >        4        8        8        9       18 </v>
    <v type="int" >        4        9       18       20       21 </v>
    <v type="int" >        4        9        9       18       20 </v>
    <v type="int" >        4        8        9        9       18 </v>
    <v type="int" >        4        9       20       21       21 </v>
    <v type="int" >        4        9        9       20       21 </v>
    <v type="int" >        8        9        9        9       20 </v>
    <v type="int" >        4        9       20       20       21 </v>
    <v type="int" >        4        9        9       20       20 </v>
    <v type="int" >        4        8       19       20       21 </v>
    <v type="int" >        4        8        9       20       21 </v>
    <v type="int" >        4        8        9        9       20 </v>
    <v type="int" >        4        8       18       19       20 </v>
    <v type="int" >        4        8        8       18       20 </v>
    <v type="int" >        4        8        8        9       20 </v>
    <v type="int" >        4        7       17       18       19 </v>
    <v type="int" >        4        7        8       18       19 </v>
    <v type="int" >        4        7        8        8       18 </v>
    <v type="int" >        4        7       16       17       18 </v>
    <v type="int" >        4        7        7       16       18 </v>
    <v type="int" >        4        7        7        8       18 </v>
    <v type="int" >        4        8       16       17       19 </v>
    <v type="int" >        4        7        8       16       17 </v>
    <v type="int" >        4        7        7        8       16 </v>
    <v type="int" >        4        8       16       18       19 </v>
    <v type="int" >        4        8        8       16       18 </v>
    <v type="int" >        4        7        8        8       16 </v>
    <v type="int" >        4        5        6       12       14 </v>
    <v type="int" >        4        5        5        6       12 </v>
    <v type="int" >        4        2        5        5        6 </v>
    <v type="int" >        4        5        6        6       14 </v>
    <v type="int" >        4        3        5        6        6 </v>
    <v type="int" >        4        2        3        5        6 </v>
    <v type="int" >        2        6        6       14       14 </v>
    <v type="int" >        4        6        6        6       14 </v>
    <v type="int" >        4        3        6        6        6 </v>
    <v type="int" >        2        3        3        6        6 </v>
    <v type="int" >        4        4        5       10       12 </v>
    <v type="int" >        4        4        5        5       12 </v>
    <v type="int" >        4        2        4        5        5 </v>
    <v type="int" >        4        4        4        5       10 </v>
    <v type="int" >        4        1        4        4        5 </v>
    <v type="int" >        4        1        2        4        5 </v>
    <v type="int" >        4        2        5        6       15 </v>
    <v type="int" >        4        2        5       13       15 </v>
    <v type="int" >        4        2        3        6       15 </v>
    <v type="int" >        4        3        6        6       15 </v>
    <v type="int" >        4        3        6       15       15 </v>
    <v type="int" >        4        3        3        6       15 </v>
    <v type="int" >        4        3        5        6       13 </v>
    <v type="int" >        4        3        6       13       15 </v>
    <v type="int" >        4        2        3        5       13 </v>
    <v type="int" >        4        2        4        5       11 </v>
    <v type="int" >        4        2        5       11       13 </v>
    <v type="int" >        4        1        2        4       11 </v>
    <v type="int" >        4        1        4        5       13 </v>
    <v type="int" >        4        1        4       11       13 </v>
    <v type="int" >        4        1        2        5       13 </v>
   </varray>
   <i name="volumeweight">      0.00133333 </i>
  </kpoints>
  <scstep>
   <time name="total">  127.46  129.13</time>
   <energy>
    <i name="e_fr_energy">   -102.09635924 </i>
    <i name="e_wo_entrp">   -102.09635924 </i>
    <i name="e_0_energy">   -102.09635924 </i>
   </energy>
  </scstep>
  <scstep>
   <time name="total">  116.85  118.38</time>
   <energy>
    <i name="e_fr_energy">   -201.91122188 </i>
    <i name="e_wo_entrp">   -201.91122188 </i>
    <i name="e_0_energy">   -201.91122188 </i>
   </energy>
  </scstep>
  <scstep>
   <time name="total">  116.52  118.04</time>
   <energy>
    <i name="e_fr_energy">   -201.25987300 </i>
    <i name="e_wo_entrp">   -201.25987300 </i>
    <i name="e_0_energy">   -201.25987300 </i>
   </energy>
  </scstep>
  <scstep>
   <time name="total">  114.83  116.32</time>
   <energy>
    <i name="e_fr_energy">   -193.36756768 </i>
    <i name="e_wo_entrp">   -193.36756768 </i>
    <i name="e_0_energy">   -193.36756768 </i>
   </energy>
  </scstep>
  <scstep>
   <time name="total">  118.96  120.51</time>
   <energy>
    <i name="e_fr_energy">   -192.60024833 </i>
    <i name="e_wo_entrp">   -192.60024833 </i>
    <i name="e_0_energy">   -192.60024833 </i>
   </energy>
  </scstep>
  <scstep>
   <time name="total">  120.79  122.36</time>
   <energy>
    <i name="e_fr_energy">   -192.54758862 </i>
    <i name="e_wo_entrp">   -192.54758862 </i>
    <i name="e_0_energy">   -192.54758862 </i>
   </energy>
  </scstep>
  <scstep>
   <time name="total">  118.66  120.20</time>
   <energy>
    <i name="e_fr_energy">   -192.47492222 </i>
    <i name="e_wo_entrp">   -192.47492222 </i>
    <i name="e_0_energy">   -192.47492222 </i>
   </energy>
  </scstep>
  <scstep>
   <time name="total">  116.21  117.76</time>
   <energy>
    <i name="e_fr_energy">   -192.45900588 </i>
    <i name="e_wo_entrp">   -192.45900588 </i>
    <i name="e_0_energy">   -192.45900588 </i>
   </energy>
  </scstep>
  <scstep>
   <time name="total">  115.88  117.51</time>
   <energy>
    <i name="e_fr_energy">   -192.46464283 </i>
    <i name="e_wo_entrp">   -192.46464283 </i>
    <i name="e_0_energy">   -192.46464283 </i>
   </energy>
  </scstep>
  <scstep>
   <time name="total">  122.41  124.11</time>
   <energy>
    <i name="e_fr_energy">   -192.46403342 </i>
    <i name="e_wo_entrp">   -192.46403342 </i>
    <i name="e_0_energy">   -192.46403342 </i>
   </energy>
  </scstep>
  <scstep>
   <time name="total">  124.30  125.93</time>
   <energy>
    <i name="e_fr_energy">   -192.46410728 </i>
    <i name="e_wo_entrp">   -192.46410728 </i>
    <i name="e_0_energy">   -192.46410728 </i>
   </energy>
  </scstep>
  <scstep>
   <time name="total">  114.56  116.29</time>
   <energy>
    <i name="e_fr_energy">   -192.46413079 </i>
    <i name="e_wo_entrp">   -192.46413079 </i>
    <i name="e_0_energy">   -192.46413079 </i>
   </energy>
  </scstep>
  <scstep>
   <time name="total">  114.76  116.29</time>
   <energy>
    <i name="e_fr_energy">   -192.46411785 </i>
    <i name="e_wo_entrp">   -192.46411785 </i>
    <i name="e_0_energy">   -192.46411785 </i>
   </energy>
  </scstep>
  <kpoints>
[...]
     <r>     7.2887     0.0000     0.0000     0.0000     0.0000     0.0000     0.0000 </r>
     <r>     7.2987     0.0000     0.0000     0.0000     0.0000     0.0000     0.0000 </r>
    </set>
   </array>
  </conductivity>
  <dos>
   <i name="efermi">      2.29994460 </i>
   <total>
    <array>
     <dimension dim="1">gridpoints</dimension>
     <dimension dim="2">spin</dimension>
     <field>energy</field>
     <field>total</field>
     <field>integrated</field>
     <set>
      <set comment="spin 1">
       <r>   -11.0283     0.0000     0.0000 </r>
       <r>   -10.9669     0.0000     0.0000 </r>
       <r>   -10.9056     0.0000     0.0000 </r>
       <r>   -10.8442     0.0000     0.0000 </r>
       <r>   -10.7829     0.0000     0.0000 </r>
       <r>   -10.7215     0.0000     0.0000 </r>
       <r>   -10.6602     0.0000     0.0000 </r>
       <r>   -10.5988     0.0000     0.0000 </r>
       <r>   -10.5375     0.0000     0.0000 </r>
       <r>   -10.4761     0.0000     0.0000 </r>
       <r>   -10.4148     0.0000     0.0000 </r>
       <r>   -10.3534     0.0000     0.0000 </r>
       <r>   -10.2921     0.0000     0.0000 </r>
       <r>   -10.2307     0.0000     0.0000 </r>
       <r>   -10.1694     0.0000     0.0000 </r>
       <r>   -10.1080     0.0000     0.0000 </r>
       <r>   -10.0467     0.0000     0.0000 </r>
       <r>    -9.9853     2.8977     0.0450 </r>
       <r>    -9.9240     4.7601     0.2869 </r>
       <r>    -9.8626    11.4874     0.7388 </r>
       <r>    -9.8013     8.1941     1.2751 </r>
       <r>    -9.7399     6.4286     1.7467 </r>
       <r>    -9.6786    11.4281     2.2223 </r>
       <r>    -9.6172    11.3489     2.9059 </r>
       <r>    -9.5559    15.3052     3.7660 </r>
       <r>    -9.4945    12.0560     4.5005 </r>
       <r>    -9.4332    22.0779     5.4072 </r>
       <r>    -9.3718    11.9380     6.4830 </r>
       <r>    -9.3105    14.8491     7.2559 </r>
       <r>    -9.2491    15.1706     8.1837 </r>
       <r>    -9.1878    27.4021     9.3861 </r>
       <r>    -9.1264    29.3973    11.0822 </r>
       <r>    -9.0651    15.7689    12.5635 </r>
       <r>    -9.0037    21.1810    13.3016 </r>
       <r>    -8.9424    25.6238    15.0158 </r>
       <r>    -8.8810    15.9608    16.2201 </r>
       <r>    -8.8197    42.6450    17.9670 </r>
       <r>    -8.7583    32.0470    20.1780 </r>
       <r>    -8.6970    32.4156    21.9938 </r>
       <r>    -8.6356    49.7171    24.1191 </r>
       <r>    -8.5743    53.6491    26.5133 </r>
       <r>    -8.5129    59.9594    29.9004 </r>
       <r>    -8.4516    52.7962    33.4637 </r>
       <r>    -8.3902    60.2874    36.8708 </r>
       <r>    -8.3289    58.0863    40.0859 </r>
       <r>    -8.2675    46.2138    42.3896 </r>
       <r>    -8.2062    66.4396    45.4483 </r>
       <r>    -8.1448    92.1092    49.1888 </r>
       <r>    -8.0835    54.3710    52.4586 </r>
       <r>    -8.0221    65.3509    55.8760 </r>
       <r>    -7.9608    82.4242    60.1782 </r>
       <r>    -7.8994    35.6816    63.4799 </r>
       <r>    -7.8381     2.6080    64.0000 </r>
       <r>    -7.7767     0.0000    64.0000 </r>
       <r>    -7.7154     0.0000    64.0000 </r>
       <r>    -7.6540     0.0000    64.0000 </r>
       <r>    -7.5927     0.0000    64.0000 </r>
       <r>    -7.5313     0.0000    64.0000 </r>
       <r>    -7.4700     0.0000    64.0000 </r>
       <r>    -7.4086     0.0000    64.0000 </r>
       <r>    -7.3473     0.0000    64.0000 </r>
       <r>    -7.2859     0.0000    64.0000 </r>
       <r>    -7.2246     0.0000    64.0000 </r>
       <r>    -7.1632     0.0000    64.0000 </r>
       <r>    -7.1019     0.0000    64.0000 </r>
       <r>    -7.0405     0.0000    64.0000 </r>
       <r>    -6.9792     0.0000    64.0000 </r>
       <r>    -6.9178     0.0000    64.0000 </r>
       <r>    -6.8565     0.0000    64.0000 </r>
       <r>    -6.7951     0.0000    64.0000 </r>
       <r>    -6.7338     0.0000    64.0000 </r>
       <r>    -6.6724     0.0000    64.0000 </r>
       <r>    -6.6111     0.0000    64.0000 </r>
       <r>    -6.5497     0.0000    64.0000 </r>
       <r>    -6.4884     0.0000    64.0000 </r>
       <r>    -6.4270     0.0000    64.0000 </r>
       <r>    -6.3657     0.0000    64.0000 </r>
       <r>    -6.3043     0.0000    64.0000 </r>
       <r>    -6.2430     0.0000    64.0000 </r>
       <r>    -6.1816     0.0000    64.0000 </r>
       <r>    -6.1203     0.0000    64.0000 </r>
       <r>    -6.0589     0.0000    64.0000 </r>
       <r>    -5.9976     0.0000    64.0000 </r>
       <r>    -5.9362     0.0000    64.0000 </r>
       <r>    -5.8749     0.0000    64.0000 </r>
       <r>    -5.8135     0.0000    64.0000 </r>
       <r>    -5.7522     0.0000    64.0000 </r>
       <r>    -5.6908     0.0000    64.0000 </r>
       <r>    -5.6295     0.0000    64.0000 </r>
       <r>    -5.5681     0.0000    64.0000 </r>
       <r>    -5.5068     0.0000    64.0000 </r>
       <r>    -5.4454     0.0000    64.0000 </r>
       <r>    -5.3841     0.0000    64.0000 </r>
       <r>    -5.3227     0.0000    64.0000 </r>
       <r>    -5.2614     0.0000    64.0000 </r>
       <r>    -5.2001     0.0000    64.0000 </r>
       <r>    -5.1387     0.0000    64.0000 </r>
       <r>    -5.0774     0.0000    64.0000 </r>
       <r>    -5.0160     0.0000    64.0000 </r>
       <r>    -4.9547     0.0000    64.0000 </r>
       <r>    -4.8933     0.0000    64.0000 </r>
       <r>    -4.8320     0.0000    64.0000 </r>
       <r>    -4.7706     0.0000    64.0000 </r>
       <r>    -4.7093     0.0000    64.0000 </r>
       <r>    -4.6479     0.0000    64.0000 </r>
       <r>    -4.5866     0.0000    64.0000 </r>
       <r>    -4.5252     0.0000    64.0000 </r>
       <r>    -4.4639     0.0000    64.0000 </r>
       <r>    -4.4025     0.0000    64.0000 </r>
       <r>    -4.3412     1.2405    64.0172 </r>
       <r>    -4.2798     5.0532    64.1989 </r>
       <r>    -4.2185     9.8208    64.5993 </r>
       <r>    -4.1571    25.1860    65.6482 </r>
       <r>    -4.0958    40.7216    67.4726 </r>
       <r>    -4.0344    75.2716    71.2020 </r>
       <r>    -3.9731    92.5844    75.6920 </r>
       <r>    -3.9117   154.1839    82.3187 </r>
       <r>    -3.8504    66.3978    87.1647 </r>
       <r>    -3.7890   107.5667    90.8174 </r>
       <r>    -3.7277    38.9877    93.6449 </r>
       <r>    -3.6663    17.5927    95.2065 </r>
       <r>    -3.6050    29.4473    96.5546 </r>
       <r>    -3.5436    43.8774    99.1664 </r>
       <r>    -3.4823    22.2908   100.9037 </r>
       <r>    -3.4209    17.4657   102.0970 </r>
       <r>    -3.3596    18.3017   103.1204 </r>
       <r>    -3.2982    56.1501   105.0699 </r>
       <r>    -3.2369    18.1472   106.9304 </r>
       <r>    -3.1755    15.3527   107.7500 </r>
       <r>    -3.1142     8.5634   108.5125 </r>
       <r>    -3.0528     9.4967   109.0364 </r>
       <r>    -2.9915    12.7483   109.7581 </r>
       <r>    -2.9301    19.8958   110.6234 </r>
       <r>    -2.8688    14.9962   111.6518 </r>
       <r>    -2.8074    13.3369   112.4886 </r>
       <r>    -2.7461    13.1728   113.3007 </r>
       <r>    -2.6847    13.3089   114.1125 </r>
       <r>    -2.6234    11.3597   114.8907 </r>
       <r>    -2.5620     9.4501   115.5513 </r>
       <r>    -2.5007     5.9316   116.0036 </r>
       <r>    -2.4393     7.1841   116.4048 </r>
       <r>    -2.3780     7.9217   116.8589 </r>
       <r>    -2.3166    10.1357   117.3960 </r>
       <r>    -2.2553    11.7109   118.0909 </r>
       <r>    -2.1939     9.3129   118.7514 </r>
       <r>    -2.1326     7.5766   119.2458 </r>
       <r>    -2.0712     7.6364   119.7479 </r>
       <r>    -2.0099     4.9514   120.0935 </r>
       <r>    -1.9485     4.3481   120.3650 </r>
       <r>    -1.8872     3.9691   120.6198 </r>
       <r>    -1.8258     3.8465   120.8582 </r>
       <r>    -1.7645     3.9820   121.0971 </r>
       <r>    -1.7031     5.5469   121.3725 </r>
       <r>    -1.6418     9.3123   121.8210 </r>
       <r>    -1.5804     8.8723   122.4175 </r>
       <r>    -1.5191     7.7414   122.9330 </r>
       <r>    -1.4577     6.0867   123.3365 </r>
       <r>    -1.3964     7.0161   123.7104 </r>
       <r>    -1.3350    15.2624   124.2819 </r>
       <r>    -1.2737    30.9944   125.7453 </r>
       <r>    -1.2123    39.3898   127.6749 </r>
       <r>    -1.1510    53.4451   130.8134 </r>
       <r>    -1.0896    39.9038   133.3789 </r>
       <r>    -1.0283    59.3330   136.4764 </r>
       <r>    -0.9669    46.1271   139.4912 </r>
       <r>    -0.9056    34.5657   141.7153 </r>
       <r>    -0.8442    33.3499   143.8943 </r>
       <r>    -0.7829    33.2334   145.8482 </r>
       <r>    -0.7215    34.4364   147.7043 </r>
       <r>    -0.6602    34.9836   149.9122 </r>
       <r>    -0.5988    40.9077   152.0189 </r>
       <r>    -0.5375    44.3461   154.5489 </r>
       <r>    -0.4761    44.6244   157.2022 </r>
       <r>    -0.4148    47.3472   160.2147 </r>
       <r>    -0.3534    50.8363   163.1267 </r>
       <r>    -0.2921    49.6674   166.3438 </r>
       <r>    -0.2307    44.9135   169.2555 </r>
       <r>    -0.1694    55.7060   171.9717 </r>
       <r>    -0.1080    55.2824   175.3481 </r>
       <r>    -0.0467    57.0456   179.0287 </r>
       <r>     0.0147    69.0123   182.2908 </r>
       <r>     0.0760    50.6143   185.4736 </r>
       <r>     0.1374    62.4892   188.4200 </r>
       <r>     0.1987    40.8219   191.7239 </r>
       <r>     0.2601    40.7994   193.9606 </r>
       <r>     0.3214    63.1943   197.5992 </r>
       <r>     0.3828    44.7247   200.6818 </r>
       <r>     0.4441    50.7824   203.7388 </r>
       <r>     0.5055    71.0113   207.3767 </r>
       <r>     0.5668    45.9703   210.4368 </r>
       <r>     0.6282    53.5897   213.4642 </r>
       <r>     0.6895    38.8616   216.3612 </r>
       <r>     0.7509    54.8956   219.2821 </r>
       <r>     0.8122    42.6625   221.6979 </r>
       <r>     0.8736    53.4097   224.7249 </r>
       <r>     0.9349    39.9327   227.5356 </r>
       <r>     0.9963    41.8967   230.0010 </r>
       <r>     1.0576    47.0966   232.7369 </r>
       <r>     1.1190    35.2668   235.1901 </r>
       <r>     1.1803    46.9920   237.9640 </r>
       <r>     1.2417    40.2647   240.5533 </r>
       <r>     1.3030    35.4547   242.7673 </r>
       <r>     1.3644    27.6351   244.6198 </r>
       <r>     1.4257    24.1956   246.1910 </r>
       <r>     1.4871    20.9540   247.5414 </r>
       <r>     1.5484    19.5256   248.7970 </r>
       <r>     1.6098    17.7107   249.8772 </r>
       <r>     1.6711    13.3567   250.7763 </r>
       <r>     1.7325    15.2648   251.6276 </r>
       <r>     1.7938    15.7087   252.7480 </r>
       <r>     1.8552     8.6157   253.3447 </r>
       <r>     1.9165    10.7967   253.8827 </r>
       <r>     1.9779    12.6953   254.6813 </r>
       <r>     2.0392     6.6465   255.3023 </r>
       <r>     2.1006     4.5097   255.6460 </r>
       <r>     2.1619     3.9471   255.8732 </r>
       <r>     2.2233     0.6864   255.9880 </r>
       <r>     2.2846     0.0000   256.0000 </r>
       <r>     2.3460     0.0005   256.0000 </r>
       <r>     2.4073     0.0031   256.0001 </r>
       <r>     2.4687     0.0078   256.0004 </r>
       <r>     2.5300     0.0146   256.0011 </r>
       <r>     2.5914     0.0236   256.0023 </r>
       <r>     2.6527     0.0347   256.0040 </r>
       <r>     2.7141     0.0479   256.0066 </r>
       <r>     2.7754     0.0632   256.0100 </r>
       <r>     2.8368     0.0806   256.0144 </r>
       <r>     2.8981     0.1002   256.0199 </r>
       <r>     2.9595     0.1219   256.0267 </r>
       <r>     3.0208     0.1457   256.0349 </r>
       <r>     3.0822     0.1821   256.0447 </r>
       <r>     3.1435     0.4805   256.0624 </r>
       <r>     3.2049     1.2916   256.1171 </r>
       <r>     3.2662     2.0400   256.2196 </r>
       <r>     3.3276     2.7540   256.3662 </r>
       <r>     3.3889     6.3000   256.6872 </r>
       <r>     3.4503     6.4939   257.0332 </r>
       <r>     3.5116     8.5268   257.5077 </r>
       <r>     3.5729     6.8196   257.9673 </r>
       <r>     3.6343     8.3339   258.4395 </r>
       <r>     3.6956    10.9874   259.0305 </r>
       <r>     3.7570    14.4374   259.7326 </r>
       <r>     3.8183    30.2749   261.0233 </r>
       <r>     3.8797    27.0219   262.2543 </r>
       <r>     3.9410    28.2941   263.9403 </r>
       <r>     4.0024    27.8262   265.7637 </r>
       <r>     4.0637    20.9185   267.1126 </r>
       <r>     4.1251    21.7605   268.4338 </r>
       <r>     4.1864    31.0180   270.0425 </r>
       <r>     4.2478    44.7826   272.3926 </r>
       <r>     4.3091    38.7333   274.8727 </r>
       <r>     4.3705    52.3734   277.7417 </r>
       <r>     4.4318    51.4179   280.7388 </r>
       <r>     4.4932    56.5419   284.1274 </r>
       <r>     4.5545    68.0641   287.7753 </r>
       <r>     4.6159    60.7089   291.6177 </r>
       <r>     4.6772    62.9486   295.2199 </r>
       <r>     4.7386    51.2759   298.5916 </r>
       <r>     4.7999    54.0438   301.7913 </r>
       <r>     4.8613    48.5581   304.8138 </r>
       <r>     4.9226    37.6981   307.4076 </r>
       <r>     4.9840    36.5990   309.6636 </r>
       <r>     5.0453    33.7239   311.8963 </r>
       <r>     5.1067    29.5881   313.7662 </r>
       <r>     5.1680    38.3743   315.8786 </r>
       <r>     5.2294    21.4319   317.5919 </r>
       <r>     5.2907    31.4080   319.0685 </r>
       <r>     5.3521    33.4233   320.9199 </r>
       <r>     5.4134    25.2695   322.7712 </r>
       <r>     5.4748    36.6089   324.5110 </r>
       <r>     5.5361    28.8947   326.5746 </r>
       <r>     5.5975    20.4492   327.9286 </r>
       <r>     5.6588    22.4115   329.1852 </r>
       <r>     5.7202    23.9073   330.5401 </r>
       <r>     5.7815    21.6022   331.8695 </r>
       <r>     5.8429    15.9622   333.0108 </r>
       <r>     5.9042    12.4242   333.8754 </r>
       <r>     5.9656     9.6776   334.5728 </r>
       <r>     6.0269     6.2306   335.0427 </r>
       <r>     6.0883     4.2815   335.3900 </r>
       <r>     6.1496     2.9134   335.5941 </r>
       <r>     6.2110     2.1806   335.7498 </r>
       <r>     6.2723     1.6040   335.8676 </r>
       <r>     6.3337     0.9649   335.9430 </r>
       <r>     6.3950     0.5216   336.0000 </r>
       <r>     6.4564     0.0000   336.0000 </r>
       <r>     6.5177     0.0000   336.0000 </r>
       <r>     6.5791     0.0000   336.0000 </r>
       <r>     6.6404     0.0000   336.0000 </r>
       <r>     6.7018     0.0000   336.0000 </r>
       <r>     6.7631     0.0000   336.0000 </r>
       <r>     6.8245     0.0000   336.0000 </r>
       <r>     6.8858     0.0000   336.0000 </r>
       <r>     6.9472     0.0000   336.0000 </r>
       <r>     7.0085     0.0000   336.0000 </r>
       <r>     7.0699     0.0000   336.0000 </r>
       <r>     7.1312     0.0000   336.0000 </r>
       <r>     7.1926     0.0000   336.0000 </r>
       <r>     7.2539     0.0000   336.0000 </r>
       <r>     7.3153     0.0000   336.0000 </r>
       <r>     7.3766     0.0000   336.0000 </r>
      </set>
     </set>
    </array>
   </total>
  </dos>
 </calculation>
 <structure name="finalpos" >
  <crystal>
   <varray name="basis" >
    <v>      11.78615283       0.00000000       0.00000000 </v>
    <v>       0.00000000      11.44640040       0.00000000 </v>
    <v>       0.00000000       0.00000000      11.44640040 </v>
   </varray>
   <i name="volume">   1544.22271288 </i>
   <varray name="rec_basis" >
    <v>       0.08484533       0.00000000       0.00000000 </v>
    <v>       0.00000000       0.08736371       0.00000000 </v>
    <v>       0.00000000       0.00000000       0.08736371 </v>
   </varray>
  </crystal>
  <varray name="positions" >
   <v>       0.00000000       0.00000000       0.00000000 </v>
   <v>       0.00000000       0.00000000       0.50000000 </v>
   <v>       0.00000000       0.50000000       0.00000000 </v>
   <v>       0.00000000       0.50000000       0.50000000 </v>
   <v>       0.50000000       0.00000000       0.00000000 </v>
   <v>       0.50000000       0.00000000       0.50000000 </v>
   <v>       0.50000000       0.50000000       0.00000000 </v>
   <v>       0.50000000       0.50000000       0.50000000 </v>
   <v>       0.25000000       0.25000000       0.00000000 </v>
   <v>       0.25000000       0.25000000       0.50000000 </v>
   <v>       0.25000000       0.75000000       0.00000000 </v>
   <v>       0.25000000       0.75000000       0.50000000 </v>
   <v>       0.75000000       0.25000000       0.00000000 </v>
   <v>       0.75000000       0.25000000       0.50000000 </v>
   <v>       0.75000000       0.75000000       0.00000000 </v>
   <v>       0.75000000       0.75000000       0.50000000 </v>
   <v>       0.25000000       0.00000000       0.25000000 </v>
   <v>       0.25000000       0.00000000       0.75000000 </v>
   <v>       0.25000000       0.50000000       0.25000000 </v>
   <v>       0.25000000       0.50000000       0.75000000 </v>
   <v>       0.75000000       0.00000000       0.25000000 </v>
   <v>       0.75000000       0.00000000       0.75000000 </v>
   <v>       0.75000000       0.50000000       0.25000000 </v>
   <v>       0.75000000       0.50000000       0.75000000 </v>
   <v>       0.00000000       0.25000000       0.25000000 </v>
   <v>       0.00000000       0.25000000       0.75000000 </v>
   <v>       0.00000000       0.75000000       0.25000000 </v>
   <v>       0.00000000       0.75000000       0.75000000 </v>
   <v>       0.50000000       0.25000000       0.25000000 </v>
   <v>       0.50000000       0.25000000       0.75000000 </v>
   <v>       0.50000000       0.75000000       0.25000000 </v>
   <v>       0.50000000       0.75000000       0.75000000 </v>
   <v>       0.12500000       0.12500000       0.12500000 </v>
   <v>       0.12500000       0.12500000       0.62500000 </v>
   <v>       0.12500000       0.62500000       0.12500000 </v>
   <v>       0.12500000       0.62500000       0.62500000 </v>
   <v>       0.62500000       0.12500000       0.12500000 </v>
   <v>       0.62500000       0.12500000       0.62500000 </v>
   <v>       0.62500000       0.62500000       0.12500000 </v>
   <v>       0.62500000       0.62500000       0.62500000 </v>
   <v>       0.37500000       0.12500000       0.37500000 </v>
   <v>       0.37500000       0.12500000       0.87500000 </v>
   <v>       0.37500000       0.62500000       0.37500000 </v>
   <v>       0.37500000       0.62500000       0.87500000 </v>
   <v>       0.87500000       0.12500000       0.37500000 </v>
   <v>       0.87500000       0.12500000       0.87500000 </v>
   <v>       0.87500000       0.62500000       0.37500000 </v>
   <v>       0.87500000       0.62500000       0.87500000 </v>
   <v>       0.37500000       0.37500000       0.12500000 </v>
   <v>       0.37500000       0.37500000       0.62500000 </v>
   <v>       0.37500000       0.87500000       0.12500000 </v>
   <v>       0.37500000       0.87500000       0.62500000 </v>
   <v>       0.87500000       0.37500000       0.12500000 </v>
   <v>       0.87500000       0.37500000       0.62500000 </v>
   <v>       0.87500000       0.87500000       0.12500000 </v>
   <v>       0.87500000       0.87500000       0.62500000 </v>
   <v>       0.12500000       0.37500000       0.37500000 </v>
   <v>       0.12500000       0.37500000       0.87500000 </v>
   <v>       0.12500000       0.87500000       0.37500000 </v>
   <v>       0.12500000       0.87500000       0.87500000 </v>
   <v>       0.62500000       0.37500000       0.37500000 </v>
   <v>       0.62500000       0.37500000       0.87500000 </v>
   <v>       0.62500000       0.87500000       0.37500000 </v>
   <v>       0.62500000       0.87500000       0.87500000 </v>
  </varray>
 </structure>
</modeling>
