  64  64   0   0
  0.2408551E+02  0.1172852E-08  0.1146427E-08  0.1146427E-08  0.1000000E-15
  1.000000000000000E-004
  CAR 
 GaAs                                    
      7.43337252    -11.02693130  301      2.27987104      1.00000000
    -11.027  0.0000E+00  0.0000E+00
    -10.965  0.0000E+00  0.0000E+00
    -10.904  0.0000E+00  0.0000E+00
    -10.842  0.0000E+00  0.0000E+00
    -10.781  0.0000E+00  0.0000E+00
    -10.719  0.0000E+00  0.0000E+00
    -10.658  0.0000E+00  0.0000E+00
    -10.596  0.0000E+00  0.0000E+00
    -10.535  0.0000E+00  0.0000E+00
    -10.473  0.0000E+00  0.0000E+00
    -10.412  0.0000E+00  0.0000E+00
    -10.350  0.0000E+00  0.0000E+00
    -10.289  0.0000E+00  0.0000E+00
    -10.227  0.0000E+00  0.0000E+00
    -10.165  0.0000E+00  0.0000E+00
    -10.104  0.0000E+00  0.0000E+00
    -10.042  0.0000E+00  0.0000E+00
     -9.981  0.3128E-01  0.5417E-03
     -9.919  0.4875E-01  0.3018E-02
     -9.858  0.1177E+00  0.7740E-02
     -9.796  0.7606E-01  0.1299E-01
     -9.735  0.5816E-01  0.1766E-01
     -9.673  0.1144E+00  0.2256E-01
     -9.612  0.1336E+00  0.2938E-01
     -9.550  0.1411E+00  0.3802E-01
     -9.489  0.1172E+00  0.4535E-01
     -9.427  0.2242E+00  0.5478E-01
     -9.366  0.1107E+00  0.6524E-01
     -9.304  0.1496E+00  0.7302E-01
     -9.242  0.1499E+00  0.8228E-01
     -9.181  0.2737E+00  0.9486E-01
     -9.119  0.2943E+00  0.1119E+00
     -9.058  0.1519E+00  0.1262E+00
     -8.996  0.2283E+00  0.1336E+00
     -8.935  0.2410E+00  0.1509E+00
     -8.873  0.1643E+00  0.1628E+00
     -8.812  0.4421E+00  0.1812E+00
     -8.750  0.3087E+00  0.2028E+00
     -8.689  0.3244E+00  0.2210E+00
     -8.627  0.4338E+00  0.2426E+00
     -8.566  0.5233E+00  0.2668E+00
     -8.504  0.5997E+00  0.3011E+00
     -8.442  0.5272E+00  0.3366E+00
     -8.381  0.5841E+00  0.3704E+00
     -8.319  0.6100E+00  0.4024E+00
     -8.258  0.4468E+00  0.4245E+00
     -8.196  0.3670E+00  0.4543E+00
     -8.135  0.8144E+00  0.4939E+00
     -8.073  0.5368E+00  0.5256E+00
     -8.012  0.6493E+00  0.5598E+00
     -7.950  0.8377E+00  0.6045E+00
     -7.889  0.2735E+00  0.6370E+00
     -7.827  0.1560E-01  0.6400E+00
     -7.766  0.0000E+00  0.6400E+00
     -7.704  0.0000E+00  0.6400E+00
     -7.643  0.0000E+00  0.6400E+00
     -7.581  0.0000E+00  0.6400E+00
     -7.519  0.0000E+00  0.6400E+00
     -7.458  0.0000E+00  0.6400E+00
     -7.396  0.0000E+00  0.6400E+00
     -7.335  0.0000E+00  0.6400E+00
     -7.273  0.0000E+00  0.6400E+00
     -7.212  0.0000E+00  0.6400E+00
     -7.150  0.0000E+00  0.6400E+00
     -7.089  0.0000E+00  0.6400E+00
     -7.027  0.0000E+00  0.6400E+00
     -6.966  0.0000E+00  0.6400E+00
     -6.904  0.0000E+00  0.6400E+00
     -6.843  0.0000E+00  0.6400E+00
     -6.781  0.0000E+00  0.6400E+00
     -6.720  0.0000E+00  0.6400E+00
     -6.658  0.0000E+00  0.6400E+00
     -6.596  0.0000E+00  0.6400E+00
     -6.535  0.0000E+00  0.6400E+00
     -6.473  0.0000E+00  0.6400E+00
     -6.412  0.0000E+00  0.6400E+00
     -6.350  0.0000E+00  0.6400E+00
     -6.289  0.0000E+00  0.6400E+00
     -6.227  0.0000E+00  0.6400E+00
     -6.166  0.0000E+00  0.6400E+00
     -6.104  0.0000E+00  0.6400E+00
     -6.043  0.0000E+00  0.6400E+00
     -5.981  0.0000E+00  0.6400E+00
     -5.920  0.0000E+00  0.6400E+00
     -5.858  0.0000E+00  0.6400E+00
     -5.797  0.0000E+00  0.6400E+00
     -5.735  0.0000E+00  0.6400E+00
     -5.673  0.0000E+00  0.6400E+00
     -5.612  0.0000E+00  0.6400E+00
     -5.550  0.0000E+00  0.6400E+00
     -5.489  0.0000E+00  0.6400E+00
     -5.427  0.0000E+00  0.6400E+00
     -5.366  0.0000E+00  0.6400E+00
     -5.304  0.0000E+00  0.6400E+00
     -5.243  0.0000E+00  0.6400E+00
     -5.181  0.0000E+00  0.6400E+00
     -5.120  0.0000E+00  0.6400E+00
     -5.058  0.0000E+00  0.6400E+00
     -4.997  0.0000E+00  0.6400E+00
     -4.935  0.0000E+00  0.6400E+00
     -4.873  0.0000E+00  0.6400E+00
     -4.812  0.0000E+00  0.6400E+00
     -4.750  0.0000E+00  0.6400E+00
     -4.689  0.0000E+00  0.6400E+00
     -4.627  0.0000E+00  0.6400E+00
     -4.566  0.0000E+00  0.6400E+00
     -4.504  0.0000E+00  0.6400E+00
     -4.443  0.0000E+00  0.6400E+00
     -4.381  0.0000E+00  0.6400E+00
     -4.320  0.9598E-02  0.6401E+00
     -4.258  0.4885E-01  0.6417E+00
     -4.197  0.1503E+00  0.6464E+00
     -4.135  0.2726E+00  0.6591E+00
     -4.074  0.6525E+00  0.6831E+00
     -4.012  0.7448E+00  0.7245E+00
     -3.950  0.1296E+01  0.7753E+00
     -3.889  0.1260E+01  0.8401E+00
     -3.827  0.5052E+00  0.8775E+00
     -3.766  0.7030E+00  0.9212E+00
     -3.704  0.3490E+00  0.9422E+00
     -3.643  0.1708E+00  0.9547E+00
     -3.581  0.4815E+00  0.9715E+00
     -3.520  0.3702E+00  0.9970E+00
     -3.458  0.1929E+00  0.1012E+01
     -3.397  0.1633E+00  0.1023E+01
     -3.335  0.2080E+00  0.1034E+01
     -3.274  0.4823E+00  0.1060E+01
     -3.212  0.1292E+00  0.1072E+01
     -3.151  0.1371E+00  0.1080E+01
     -3.089  0.7896E-01  0.1087E+01
     -3.027  0.1139E+00  0.1092E+01
     -2.966  0.1290E+00  0.1100E+01
     -2.904  0.1986E+00  0.1109E+01
     -2.843  0.1397E+00  0.1119E+01
     -2.781  0.1335E+00  0.1127E+01
     -2.720  0.1309E+00  0.1135E+01
     -2.658  0.1339E+00  0.1143E+01
     -2.597  0.1124E+00  0.1151E+01
     -2.535  0.7948E-01  0.1157E+01
     -2.474  0.6164E-01  0.1161E+01
     -2.412  0.7110E-01  0.1165E+01
     -2.351  0.8148E-01  0.1170E+01
     -2.289  0.1101E+00  0.1176E+01
     -2.228  0.1131E+00  0.1183E+01
     -2.166  0.8465E-01  0.1189E+01
     -2.104  0.7927E-01  0.1194E+01
     -2.043  0.6070E-01  0.1199E+01
     -1.981  0.5572E-01  0.1202E+01
     -1.920  0.4264E-01  0.1204E+01
     -1.858  0.3855E-01  0.1207E+01
     -1.797  0.3811E-01  0.1209E+01
     -1.735  0.4012E-01  0.1212E+01
     -1.674  0.6643E-01  0.1215E+01
     -1.612  0.1001E+00  0.1220E+01
     -1.551  0.7401E-01  0.1226E+01
     -1.489  0.7362E-01  0.1231E+01
     -1.428  0.5797E-01  0.1235E+01
     -1.366  0.8333E-01  0.1239E+01
     -1.305  0.2343E+00  0.1247E+01
     -1.243  0.2972E+00  0.1265E+01
     -1.181  0.5092E+00  0.1289E+01
     -1.120  0.4927E+00  0.1319E+01
     -1.058  0.4937E+00  0.1344E+01
     -0.997  0.6002E+00  0.1378E+01
     -0.935  0.3857E+00  0.1405E+01
     -0.874  0.3444E+00  0.1425E+01
     -0.812  0.3625E+00  0.1446E+01
     -0.751  0.2879E+00  0.1466E+01
     -0.689  0.3764E+00  0.1486E+01
     -0.628  0.3712E+00  0.1508E+01
     -0.566  0.3869E+00  0.1531E+01
     -0.505  0.4571E+00  0.1556E+01
     -0.443  0.5190E+00  0.1584E+01
     -0.381  0.4859E+00  0.1614E+01
     -0.320  0.5275E+00  0.1645E+01
     -0.258  0.4864E+00  0.1675E+01
     -0.197  0.4198E+00  0.1703E+01
     -0.135  0.6045E+00  0.1735E+01
     -0.074  0.6472E+00  0.1768E+01
     -0.012  0.6357E+00  0.1804E+01
      0.049  0.5511E+00  0.1838E+01
      0.111  0.4846E+00  0.1867E+01
      0.172  0.5455E+00  0.1901E+01
      0.234  0.4406E+00  0.1928E+01
      0.295  0.5862E+00  0.1954E+01
      0.357  0.5265E+00  0.1988E+01
      0.418  0.5763E+00  0.2020E+01
      0.480  0.7664E+00  0.2051E+01
      0.542  0.7327E+00  0.2091E+01
      0.603  0.4799E+00  0.2117E+01
      0.665  0.4584E+00  0.2149E+01
      0.726  0.4415E+00  0.2177E+01
      0.788  0.4477E+00  0.2205E+01
      0.849  0.5017E+00  0.2230E+01
      0.911  0.4740E+00  0.2261E+01
      0.972  0.3771E+00  0.2286E+01
      1.034  0.4301E+00  0.2311E+01
      1.095  0.4531E+00  0.2338E+01
      1.157  0.5099E+00  0.2363E+01
      1.218  0.4413E+00  0.2393E+01
      1.280  0.3838E+00  0.2419E+01
      1.341  0.2836E+00  0.2438E+01
      1.403  0.2438E+00  0.2454E+01
      1.465  0.2149E+00  0.2468E+01
      1.526  0.2296E+00  0.2481E+01
      1.588  0.1863E+00  0.2494E+01
      1.649  0.1368E+00  0.2504E+01
      1.711  0.1203E+00  0.2511E+01
      1.772  0.2475E+00  0.2522E+01
      1.834  0.9331E-01  0.2531E+01
      1.895  0.7594E-01  0.2536E+01
      1.957  0.1417E+00  0.2542E+01
      2.018  0.1073E+00  0.2550E+01
      2.080  0.5797E-01  0.2555E+01
      2.141  0.2685E-01  0.2558E+01
      2.203  0.1934E-01  0.2560E+01
      2.264  0.4305E-03  0.2560E+01
      2.326  0.0000E+00  0.2560E+01
      2.388  0.9000E-05  0.2560E+01
      2.449  0.3973E-04  0.2560E+01
      2.511  0.9228E-04  0.2560E+01
      2.572  0.1667E-03  0.2560E+01
      2.634  0.2629E-03  0.2560E+01
      2.695  0.3809E-03  0.2560E+01
      2.757  0.5207E-03  0.2560E+01
      2.818  0.6824E-03  0.2560E+01
      2.880  0.8659E-03  0.2560E+01
      2.941  0.1071E-02  0.2560E+01
      3.003  0.1298E-02  0.2560E+01
      3.064  0.1547E-02  0.2560E+01
      3.126  0.2271E-02  0.2560E+01
      3.188  0.7736E-02  0.2561E+01
      3.249  0.1555E-01  0.2561E+01
      3.311  0.2282E-01  0.2563E+01
      3.372  0.5986E-01  0.2565E+01
      3.434  0.5610E-01  0.2568E+01
      3.495  0.7517E-01  0.2572E+01
      3.557  0.8491E-01  0.2577E+01
      3.618  0.7003E-01  0.2581E+01
      3.680  0.8661E-01  0.2586E+01
      3.741  0.1173E+00  0.2593E+01
      3.803  0.1680E+00  0.2601E+01
      3.864  0.2082E+00  0.2614E+01
      3.926  0.2931E+00  0.2628E+01
      3.987  0.3194E+00  0.2646E+01
      4.049  0.2335E+00  0.2664E+01
      4.111  0.2493E+00  0.2677E+01
      4.172  0.2851E+00  0.2691E+01
      4.234  0.4457E+00  0.2710E+01
      4.295  0.4498E+00  0.2736E+01
      4.357  0.3301E+00  0.2760E+01
      4.418  0.6109E+00  0.2791E+01
      4.480  0.5273E+00  0.2820E+01
      4.541  0.6769E+00  0.2855E+01
      4.603  0.6593E+00  0.2895E+01
      4.664  0.5666E+00  0.2934E+01
      4.726  0.6521E+00  0.2971E+01
      4.787  0.5129E+00  0.3004E+01
      4.849  0.4854E+00  0.3034E+01
      4.910  0.4656E+00  0.3062E+01
      4.972  0.4044E+00  0.3086E+01
      5.034  0.3461E+00  0.3109E+01
      5.095  0.3184E+00  0.3129E+01
      5.157  0.3420E+00  0.3149E+01
      5.218  0.3175E+00  0.3170E+01
      5.280  0.1922E+00  0.3183E+01
      5.341  0.2949E+00  0.3199E+01
      5.403  0.3203E+00  0.3222E+01
      5.464  0.2595E+00  0.3236E+01
      5.526  0.3773E+00  0.3257E+01
      5.587  0.2289E+00  0.3274E+01
      5.649  0.1834E+00  0.3286E+01
      5.710  0.2225E+00  0.3299E+01
      5.772  0.1966E+00  0.3312E+01
      5.833  0.1863E+00  0.3324E+01
      5.895  0.1361E+00  0.3334E+01
      5.957  0.1079E+00  0.3341E+01
      6.018  0.8738E-01  0.3348E+01
      6.080  0.5685E-01  0.3352E+01
      6.141  0.4068E-01  0.3355E+01
      6.203  0.2568E-01  0.3357E+01
      6.264  0.1696E-01  0.3358E+01
      6.326  0.1190E-01  0.3359E+01
      6.387  0.6308E-02  0.3360E+01
      6.449  0.5200E-02  0.3360E+01
      6.510  0.0000E+00  0.3360E+01
      6.572  0.0000E+00  0.3360E+01
      6.633  0.0000E+00  0.3360E+01
      6.695  0.0000E+00  0.3360E+01
      6.756  0.0000E+00  0.3360E+01
      6.818  0.0000E+00  0.3360E+01
      6.880  0.0000E+00  0.3360E+01
      6.941  0.0000E+00  0.3360E+01
      7.003  0.0000E+00  0.3360E+01
      7.064  0.0000E+00  0.3360E+01
      7.126  0.0000E+00  0.3360E+01
      7.187  0.0000E+00  0.3360E+01
      7.249  0.0000E+00  0.3360E+01
      7.310  0.0000E+00  0.3360E+01
      7.372  0.0000E+00  0.3360E+01
      7.433  0.0000E+00  0.3360E+01
