 vasp.6.4.3 19Mar24 (build Aug 29 2024 15:27:20) complex                        
  
 executed on             LinuxIFC date 2025.03.24  15:26:28
 running    8 mpi-ranks, on    1 nodes
 distrk:  each k-point on    8 cores,    1 groups
 distr:  one band on NCORE=   1 cores,    8 groups


--------------------------------------------------------------------------------------------------------


 INCAR:
   SYSTEM = GaAs
   PREC = Normal
   ENCUT = 400
   ISMEAR = -5
   SIGMA = 0.1
   IBRION = 2
   POTIM = 0.1
   NFREE = 2
   NSW = 100
   ISIF = 2
   LEPSILON = .TRUE.
   LOPTICS = .TRUE.

 POTCAR:    PAW_PBE As 22Sep2009                  
 POTCAR:    PAW_PBE Ga 08Apr2002                  
 -----------------------------------------------------------------------------
|                                                                             |
|           W    W    AA    RRRRR   N    N  II  N    N   GGGG   !!!           |
|           W    W   A  A   R    R  NN   N  II  NN   N  G    G  !!!           |
|           W    W  A    A  R    R  N N  N  II  N N  N  G       !!!           |
|           W WW W  AAAAAA  RRRRR   N  N N  II  N  N N  G  GGG   !            |
|           WW  WW  A    A  R   R   N   NN  II  N   NN  G    G                |
|           W    W  A    A  R    R  N    N  II  N    N   GGGG   !!!           |
|                                                                             |
|     For optimal performance we recommend to set                             |
|       NCORE = 2 up to number-of-cores-per-socket                            |
|     NCORE specifies how many cores store one orbital (NPAR=cpu/NCORE).      |
|     This setting can greatly improve the performance of VASP for DFT.       |
|     The default, NCORE=1 might be grossly inefficient on modern             |
|     multi-core architectures or massively parallel machines. Do your        |
|     own testing! More info at https://www.vasp.at/wiki/index.php/NCORE      |
|     Unfortunately you need to use the default for GW and RPA                |
|     calculations (for HF NCORE is supported but not extensively tested      |
|     yet).                                                                   |
|                                                                             |
 -----------------------------------------------------------------------------

 POTCAR:    PAW_PBE As 22Sep2009                  
   VRHFIN =As: s2p3                                                                                 
   LEXCH  = PE                                                                                      
   EATOM  =   170.1867 eV,   12.5084 Ry                                                             
                                                                                                    
   TITEL  = PAW_PBE As 22Sep2009                                                                    
   LULTRA =        F    use ultrasoft PP ?                                                          
   IUNSCR =        1    unscreen: 0-lin 1-nonlin 2-no                                               
   RPACOR =    1.900    partial core radius                                                         
   POMASS =   74.922; ZVAL   =    5.000    mass and valenz                                          
   RCORE  =    2.100    outmost cutoff radius                                                       
   RWIGS  =    2.300; RWIGS  =    1.217    wigner-seitz radius (au A)                               
   ENMAX  =  208.702; ENMIN  =  156.526 eV                                                          
   ICORE  =        3    local potential                                                             
   LCOR   =        T    correct aug charges                                                         
   LPAW   =        T    paw PP                                                                      
   EAUG   =  462.758                                                                                
   DEXC   =    0.000                                                                                
   RMAX   =    2.144    core radius for proj-oper                                                   
   RAUG   =    1.300    factor for augmentation sphere                                              
   RDEP   =    2.140    radius for radial grids                                                     
   RDEPT  =    1.956    core radius for aug-charge                                                  
                                                                                                    
   Atomic configuration                                                                             
   10 entries                                                                                       
     n  l   j            E        occ.                                                              
     1  0  0.50    -11718.0418   2.0000                                                             
     2  0  0.50     -1486.5454   2.0000                                                             
     2  1  1.50     -1303.3889   6.0000                                                             
     3  0  0.50      -190.2849   2.0000                                                             
     3  1  1.50      -133.6555   6.0000                                                             
     3  2  2.50       -40.6443  10.0000                                                             
     4  0  0.50       -14.4936   2.0000                                                             
     4  1  0.50        -5.1947   3.0000                                                             
     4  2  1.50        -5.4423   0.0000                                                             
     4  3  2.50        -5.4423   0.0000                                                             
   Description                                                                                      
     l       E           TYP  RCUT    TYP  RCUT                                                     
     0    -14.4935570     23  2.100                                                                 
     0    -11.9212055     23  2.100                                                                 
     1     -5.1947127     23  2.100                                                                 
     1     27.2116520     23  2.100                                                                 
     2     -5.4423304     23  2.100                                                                 
     3     -1.3605826      7  2.100                                                                 
  local pseudopotential read in
  partial core-charges read in
  partial kinetic energy density read in
  atomic valenz-charges read in
  non local Contribution for L=           0  read in
    real space projection operators read in
  non local Contribution for L=           0  read in
    real space projection operators read in
  non local Contribution for L=           1  read in
    real space projection operators read in
  non local Contribution for L=           1  read in
    real space projection operators read in
  non local Contribution for L=           2  read in
    real space projection operators read in
    PAW grid and wavefunctions read in
 
   number of l-projection  operators is LMAX  =           5
   number of lm-projection operators is LMMAX =          13
 
 POTCAR:    PAW_PBE Ga 08Apr2002                  
   VRHFIN =Ga: s2p1                                                                                 
   LEXCH  = PE                                                                                      
   EATOM  =    58.8688 eV,    4.3267 Ry                                                             
                                                                                                    
   TITEL  = PAW_PBE Ga 08Apr2002                                                                    
   LULTRA =        F    use ultrasoft PP ?                                                          
   IUNSCR =        1    unscreen: 0-lin 1-nonlin 2-no                                               
   RPACOR =    2.170    partial core radius                                                         
   POMASS =   69.723; ZVAL   =    3.000    mass and valenz                                          
   RCORE  =    2.600    outmost cutoff radius                                                       
   RWIGS  =    2.650; RWIGS  =    1.402    wigner-seitz radius (au A)                               
   ENMAX  =  134.678; ENMIN  =  101.009 eV                                                          
   ICORE  =        3    local potential                                                             
   LCOR   =        T    correct aug charges                                                         
   LPAW   =        T    paw PP                                                                      
   EAUG   =  320.264                                                                                
   DEXC   =    0.000                                                                                
   RMAX   =    2.658    core radius for proj-oper                                                   
   RAUG   =    1.300    factor for augmentation sphere                                              
   RDEP   =    2.684    radius for radial grids                                                     
   RDEPT  =    2.308    core radius for aug-charge                                                  
                                                                                                    
   Atomic configuration                                                                             
   10 entries                                                                                       
     n  l   j            E        occ.                                                              
     1  0  0.50    -10228.7830   2.0000                                                             
     2  0  0.50     -1262.1604   2.0000                                                             
     2  1  1.50     -1098.6333   6.0000                                                             
     3  0  0.50      -148.1110   2.0000                                                             
     3  1  1.50       -98.8436   6.0000                                                             
     3  2  2.50       -19.1549  10.0000                                                             
     4  0  0.50        -8.9483   2.0000                                                             
     4  1  0.50        -2.5791   1.0000                                                             
     4  2  1.50         5.4423   0.0000                                                             
     4  3  2.50        -2.7416   0.0000                                                             
   Description                                                                                      
     l       E           TYP  RCUT    TYP  RCUT                                                     
     0     -8.9483097     23  2.600                                                                 
     0     -5.8232215     23  2.600                                                                 
     1     -2.5790793     23  2.600                                                                 
     1      5.2230115     23  2.600                                                                 
     2      1.3605826     23  2.600                                                                 
     3     -1.3605826      7  2.600                                                                 
  local pseudopotential read in
  partial core-charges read in
  partial kinetic energy density read in
  atomic valenz-charges read in
  non local Contribution for L=           0  read in
    real space projection operators read in
  non local Contribution for L=           0  read in
    real space projection operators read in
  non local Contribution for L=           1  read in
    real space projection operators read in
  non local Contribution for L=           1  read in
    real space projection operators read in
  non local Contribution for L=           2  read in
    real space projection operators read in
    PAW grid and wavefunctions read in
 
   number of l-projection  operators is LMAX  =           5
   number of lm-projection operators is LMMAX =          13
 
 -----------------------------------------------------------------------------
|                                                                             |
|               ----> ADVICE to this user running VASP <----                  |
|                                                                             |
|     You have a (more or less) 'large supercell' and for larger cells it     |
|     might be more efficient to use real-space projection operators.         |
|     Therefore, try LREAL= Auto in the INCAR file.                           |
|     Mind: For very accurate calculation, you might also keep the            |
|     reciprocal projection scheme (i.e. LREAL=.FALSE.).                      |
|                                                                             |
 -----------------------------------------------------------------------------

  PAW_PBE As 22Sep2009                  :
 energy of atom  1       EATOM= -170.1867
 kinetic energy error for atom=    0.0013 (will be added to EATOM!!)
  PAW_PBE Ga 08Apr2002                  :
 energy of atom  2       EATOM=  -58.8688
 kinetic energy error for atom=    0.0001 (will be added to EATOM!!)
 
 
 POSCAR: cubic gallium arsenide
  positions in direct lattice
  velocities in cartesian coordinates


 exchange-correlation table for PE
   RHO(1)=    0.500       N(1)  =     2000
   RHO(2)=  100.500       N(2)  =     4000
 


--------------------------------------------------------------------------------------------------------


 ion  position               nearest neighbor table
   1  0.000  0.000  0.000-  33 2.50  46 2.50  55 2.50  60 2.50
   2  0.000  0.000  0.500-  34 2.50  45 2.50  56 2.50  59 2.50
   3  0.000  0.500  0.000-  35 2.50  48 2.50  53 2.50  58 2.50
   4  0.000  0.500  0.500-  36 2.50  47 2.50  54 2.50  57 2.50
   5  0.500  0.000  0.000-  37 2.50  42 2.50  51 2.50  64 2.50
   6  0.500  0.000  0.500-  38 2.50  41 2.50  52 2.50  63 2.50
   7  0.500  0.500  0.000-  39 2.50  44 2.50  49 2.50  62 2.50
   8  0.500  0.500  0.500-  40 2.50  43 2.50  50 2.50  61 2.50
   9  0.250  0.250  0.000-  33 2.50  42 2.50  49 2.50  58 2.50
  10  0.250  0.250  0.500-  34 2.50  41 2.50  50 2.50  57 2.50
  11  0.250  0.750  0.000-  35 2.50  44 2.50  51 2.50  60 2.50
  12  0.250  0.750  0.500-  36 2.50  43 2.50  52 2.50  59 2.50
  13  0.750  0.250  0.000-  37 2.50  46 2.50  53 2.50  62 2.50
  14  0.750  0.250  0.500-  38 2.50  45 2.50  54 2.50  61 2.50
  15  0.750  0.750  0.000-  39 2.50  48 2.50  55 2.50  64 2.50
  16  0.750  0.750  0.500-  40 2.50  47 2.50  56 2.50  63 2.50
  17  0.250  0.000  0.250-  33 2.50  41 2.50  51 2.50  59 2.50
  18  0.250  0.000  0.750-  34 2.50  42 2.50  52 2.50  60 2.50
  19  0.250  0.500  0.250-  35 2.50  43 2.50  49 2.50  57 2.50
  20  0.250  0.500  0.750-  36 2.50  44 2.50  50 2.50  58 2.50
  21  0.750  0.000  0.250-  37 2.50  45 2.50  55 2.50  63 2.50
  22  0.750  0.000  0.750-  38 2.50  46 2.50  56 2.50  64 2.50
  23  0.750  0.500  0.250-  39 2.50  47 2.50  53 2.50  61 2.50
  24  0.750  0.500  0.750-  40 2.50  48 2.50  54 2.50  62 2.50
  25  0.000  0.250  0.250-  33 2.50  45 2.50  53 2.50  57 2.50
  26  0.000  0.250  0.750-  34 2.50  46 2.50  54 2.50  58 2.50
  27  0.000  0.750  0.250-  35 2.50  47 2.50  55 2.50  59 2.50
  28  0.000  0.750  0.750-  36 2.50  48 2.50  56 2.50  60 2.50
  29  0.500  0.250  0.250-  37 2.50  41 2.50  49 2.50  61 2.50
  30  0.500  0.250  0.750-  38 2.50  42 2.50  50 2.50  62 2.50
  31  0.500  0.750  0.250-  39 2.50  43 2.50  51 2.50  63 2.50
  32  0.500  0.750  0.750-  40 2.50  44 2.50  52 2.50  64 2.50
  33  0.125  0.125  0.125-   1 2.50   9 2.50  17 2.50  25 2.50
  34  0.125  0.125  0.625-   2 2.50  10 2.50  18 2.50  26 2.50
  35  0.125  0.625  0.125-   3 2.50  11 2.50  19 2.50  27 2.50
  36  0.125  0.625  0.625-   4 2.50  12 2.50  20 2.50  28 2.50
  37  0.625  0.125  0.125-   5 2.50  13 2.50  21 2.50  29 2.50
  38  0.625  0.125  0.625-   6 2.50  14 2.50  22 2.50  30 2.50
  39  0.625  0.625  0.125-   7 2.50  15 2.50  23 2.50  31 2.50
  40  0.625  0.625  0.625-   8 2.50  16 2.50  24 2.50  32 2.50
  41  0.375  0.125  0.375-   6 2.50  10 2.50  17 2.50  29 2.50
  42  0.375  0.125  0.875-   5 2.50   9 2.50  18 2.50  30 2.50
  43  0.375  0.625  0.375-   8 2.50  12 2.50  19 2.50  31 2.50
  44  0.375  0.625  0.875-   7 2.50  11 2.50  20 2.50  32 2.50
  45  0.875  0.125  0.375-   2 2.50  14 2.50  21 2.50  25 2.50
  46  0.875  0.125  0.875-   1 2.50  13 2.50  22 2.50  26 2.50
  47  0.875  0.625  0.375-   4 2.50  16 2.50  23 2.50  27 2.50
  48  0.875  0.625  0.875-   3 2.50  15 2.50  24 2.50  28 2.50
  49  0.375  0.375  0.125-   7 2.50   9 2.50  19 2.50  29 2.50
  50  0.375  0.375  0.625-   8 2.50  10 2.50  20 2.50  30 2.50
  51  0.375  0.875  0.125-   5 2.50  11 2.50  17 2.50  31 2.50
  52  0.375  0.875  0.625-   6 2.50  12 2.50  18 2.50  32 2.50
  53  0.875  0.375  0.125-   3 2.50  13 2.50  23 2.50  25 2.50
  54  0.875  0.375  0.625-   4 2.50  14 2.50  24 2.50  26 2.50
  55  0.875  0.875  0.125-   1 2.50  15 2.50  21 2.50  27 2.50
  56  0.875  0.875  0.625-   2 2.50  16 2.50  22 2.50  28 2.50
  57  0.125  0.375  0.375-   4 2.50  10 2.50  19 2.50  25 2.50
  58  0.125  0.375  0.875-   3 2.50   9 2.50  20 2.50  26 2.50
  59  0.125  0.875  0.375-   2 2.50  12 2.50  17 2.50  27 2.50
  60  0.125  0.875  0.875-   1 2.50  11 2.50  18 2.50  28 2.50
  61  0.625  0.375  0.375-   8 2.50  14 2.50  23 2.50  29 2.50
  62  0.625  0.375  0.875-   7 2.50  13 2.50  24 2.50  30 2.50
  63  0.625  0.875  0.375-   6 2.50  16 2.50  21 2.50  31 2.50
  64  0.625  0.875  0.875-   5 2.50  15 2.50  22 2.50  32 2.50
 
  LATTYP: Found a simple tetragonal cell.
 ALAT       =    11.4642669445
 C/A-ratio  =     1.0230500465
  
  Lattice vectors:
  
 A1 = (   0.0000000000,  11.4642669445,   0.0000000000)
 A2 = (   0.0000000000,   0.0000000000,  11.4642669445)
 A3 = (  11.7285188307,   0.0000000000,   0.0000000000)


Analysis of symmetry for initial positions (statically):
=====================================================================
 Subroutine PRICEL returns following result:
 
  LATTYP: Found a body centered tetragonal cell.
 ALAT       =     4.0532304489
 C/A-ratio  =     1.4468112507
  
  Lattice vectors:
  
 A1 = (   2.9321297077,   0.0000000000,   2.8660667361)
 A2 = (   2.9321297077,   0.0000000000,  -2.8660667361)
 A3 = (  -2.9321297077,   2.8660667361,   0.0000000000)
 
  32 primitive cells build up your supercell.
 

 Routine SETGRP: Setting up the symmetry group for a 
 simple tetragonal supercell.


 Subroutine GETGRP returns: Found  8 space group operations
 (whereof  8 operations were pure point group operations)
 out of a pool of 16 trial point group operations.


The static configuration has the point symmetry D_2d.


Analysis of symmetry for dynamics (positions and initial velocities):
=====================================================================
 Subroutine PRICEL returns following result:
 
  LATTYP: Found a body centered tetragonal cell.
 ALAT       =     4.0532304489
 C/A-ratio  =     1.4468112507
  
  Lattice vectors:
  
 A1 = (   2.9321297077,   0.0000000000,   2.8660667361)
 A2 = (   2.9321297077,   0.0000000000,  -2.8660667361)
 A3 = (  -2.9321297077,   2.8660667361,   0.0000000000)
 
  32 primitive cells build up your supercell.
 

 Routine SETGRP: Setting up the symmetry group for a 
 simple tetragonal supercell.


 Subroutine GETGRP returns: Found  8 space group operations
 (whereof  8 operations were pure point group operations)
 out of a pool of 16 trial point group operations.


The dynamic configuration has the point symmetry D_2d.


 Subroutine INISYM returns: Found  8 space group operations
 (whereof  8 operations are pure point group operations),
 and found    32 'primitive' translations


----------------------------------------------------------------------------------------

                                     Primitive cell                                     

  volume of cell :      48.1710

  direct lattice vectors                    reciprocal lattice vectors
     2.932129708  0.000000000  2.866066736     0.170524516  0.174455114  0.174455114
     2.932129708  0.000000000 -2.866066736     0.170524516  0.174455114 -0.174455114
    -2.932129708  2.866066736  0.000000000     0.000000000  0.348910229  0.000000000

  length of vectors
     4.100210136  4.100210136  4.100210136     0.299912961  0.299912961  0.348910229

  position of ions in fractional coordinates (direct lattice)
     0.000000000  0.000000000  0.000000000
     0.750000000  0.250000000  0.500000000

  ion indices of the primitive-cell ions
   primitive index   ion index
                 1           1
                 2          33

----------------------------------------------------------------------------------------

 
 
 KPOINTS: Automatic mesh                          

Automatic generation of k-mesh.
 Grid dimensions read from file:
 generate k-points for:    5    5    5

 Generating k-lattice:

  Cartesian coordinates                     Fractional coordinates (reciprocal lattice)
     0.017052452  0.000000000  0.000000000     0.200000000  0.000000000  0.000000000
     0.000000000  0.017445511  0.000000000     0.000000000  0.200000000  0.000000000
     0.000000000  0.000000000  0.017445511     0.000000000  0.000000000  0.200000000

  Length of vectors
     0.017052452  0.017445511  0.017445511

  Shift w.r.t. Gamma in fractional coordinates (k-lattice)
     0.000000000  0.000000000  0.000000000

 TETIRR: Found    177 inequivalent tetrahedra from      750
 
 Subroutine IBZKPT returns following result:
 ===========================================
 
 Found     18 irreducible k-points:
 
 Following reciprocal coordinates:
            Coordinates               Weight
  0.000000  0.000000  0.000000      1.000000
  0.200000  0.000000  0.000000      2.000000
  0.400000  0.000000  0.000000      2.000000
  0.000000  0.200000  0.000000      4.000000
  0.200000  0.200000  0.000000      8.000000
  0.400000  0.200000  0.000000      8.000000
  0.000000  0.400000  0.000000      4.000000
  0.200000  0.400000  0.000000      8.000000
  0.400000  0.400000  0.000000      8.000000
  0.000000  0.200000  0.200000      4.000000
  0.200000  0.200000  0.200000      8.000000
  0.400000  0.200000  0.200000      8.000000
  0.000000  0.400000  0.200000      8.000000
  0.200000  0.400000  0.200000     16.000000
  0.400000  0.400000  0.200000     16.000000
  0.000000  0.400000  0.400000      4.000000
  0.200000  0.400000  0.400000      8.000000
  0.400000  0.400000  0.400000      8.000000
 
 Following cartesian coordinates:
            Coordinates               Weight
  0.000000  0.000000  0.000000      1.000000
  0.017052  0.000000  0.000000      2.000000
  0.034105  0.000000  0.000000      2.000000
  0.000000  0.017446  0.000000      4.000000
  0.017052  0.017446  0.000000      8.000000
  0.034105  0.017446  0.000000      8.000000
  0.000000  0.034891  0.000000      4.000000
  0.017052  0.034891  0.000000      8.000000
  0.034105  0.034891  0.000000      8.000000
  0.000000  0.017446  0.017446      4.000000
  0.017052  0.017446  0.017446      8.000000
  0.034105  0.017446  0.017446      8.000000
  0.000000  0.034891  0.017446      8.000000
  0.017052  0.034891  0.017446     16.000000
  0.034105  0.034891  0.017446     16.000000
  0.000000  0.034891  0.034891      4.000000
  0.017052  0.034891  0.034891      8.000000
  0.034105  0.034891  0.034891      8.000000
 
 
 Subroutine IBZKPT_HF returns following result:
 ==============================================
 
 Found    125 k-points in 1st BZ
 the following    125 k-points will be used (e.g. in the exchange kernel)
 Following reciprocal coordinates:   # in IRBZ
  0.000000  0.000000  0.000000    0.00800000   1 t-inv F
  0.200000  0.000000  0.000000    0.00800000   2 t-inv F
  0.400000  0.000000  0.000000    0.00800000   3 t-inv F
  0.000000  0.200000  0.000000    0.00800000   4 t-inv F
  0.200000  0.200000  0.000000    0.00800000   5 t-inv F
  0.400000  0.200000  0.000000    0.00800000   6 t-inv F
  0.000000  0.400000  0.000000    0.00800000   7 t-inv F
  0.200000  0.400000  0.000000    0.00800000   8 t-inv F
  0.400000  0.400000  0.000000    0.00800000   9 t-inv F
  0.000000  0.200000  0.200000    0.00800000  10 t-inv F
  0.200000  0.200000  0.200000    0.00800000  11 t-inv F
  0.400000  0.200000  0.200000    0.00800000  12 t-inv F
  0.000000  0.400000  0.200000    0.00800000  13 t-inv F
  0.200000  0.400000  0.200000    0.00800000  14 t-inv F
  0.400000  0.400000  0.200000    0.00800000  15 t-inv F
  0.000000  0.400000  0.400000    0.00800000  16 t-inv F
  0.200000  0.400000  0.400000    0.00800000  17 t-inv F
  0.400000  0.400000  0.400000    0.00800000  18 t-inv F
 -0.200000  0.000000  0.000000    0.00800000   2 t-inv F
 -0.400000  0.000000  0.000000    0.00800000   3 t-inv F
  0.000000  0.000000 -0.200000    0.00800000   4 t-inv F
  0.000000 -0.200000  0.000000    0.00800000   4 t-inv F
  0.000000  0.000000  0.200000    0.00800000   4 t-inv F
 -0.200000  0.000000 -0.200000    0.00800000   5 t-inv F
  0.200000 -0.200000  0.000000    0.00800000   5 t-inv F
 -0.200000  0.000000  0.200000    0.00800000   5 t-inv F
 -0.200000 -0.200000  0.000000    0.00800000   5 t-inv F
  0.200000  0.000000 -0.200000    0.00800000   5 t-inv F
 -0.200000  0.200000  0.000000    0.00800000   5 t-inv F
  0.200000  0.000000  0.200000    0.00800000   5 t-inv F
 -0.400000  0.000000 -0.200000    0.00800000   6 t-inv F
  0.400000 -0.200000  0.000000    0.00800000   6 t-inv F
 -0.400000  0.000000  0.200000    0.00800000   6 t-inv F
 -0.400000 -0.200000  0.000000    0.00800000   6 t-inv F
  0.400000  0.000000 -0.200000    0.00800000   6 t-inv F
 -0.400000  0.200000  0.000000    0.00800000   6 t-inv F
  0.400000  0.000000  0.200000    0.00800000   6 t-inv F
  0.000000  0.000000 -0.400000    0.00800000   7 t-inv F
  0.000000 -0.400000  0.000000    0.00800000   7 t-inv F
  0.000000  0.000000  0.400000    0.00800000   7 t-inv F
 -0.200000  0.000000 -0.400000    0.00800000   8 t-inv F
  0.200000 -0.400000  0.000000    0.00800000   8 t-inv F
 -0.200000  0.000000  0.400000    0.00800000   8 t-inv F
 -0.200000 -0.400000  0.000000    0.00800000   8 t-inv F
  0.200000  0.000000 -0.400000    0.00800000   8 t-inv F
 -0.200000  0.400000  0.000000    0.00800000   8 t-inv F
  0.200000  0.000000  0.400000    0.00800000   8 t-inv F
 -0.400000  0.000000 -0.400000    0.00800000   9 t-inv F
  0.400000 -0.400000  0.000000    0.00800000   9 t-inv F
 -0.400000  0.000000  0.400000    0.00800000   9 t-inv F
 -0.400000 -0.400000  0.000000    0.00800000   9 t-inv F
  0.400000  0.000000 -0.400000    0.00800000   9 t-inv F
 -0.400000  0.400000  0.000000    0.00800000   9 t-inv F
  0.400000  0.000000  0.400000    0.00800000   9 t-inv F
  0.000000  0.200000 -0.200000    0.00800000  10 t-inv F
  0.000000 -0.200000 -0.200000    0.00800000  10 t-inv F
  0.000000 -0.200000  0.200000    0.00800000  10 t-inv F
 -0.200000  0.200000 -0.200000    0.00800000  11 t-inv F
  0.200000 -0.200000 -0.200000    0.00800000  11 t-inv F
 -0.200000 -0.200000  0.200000    0.00800000  11 t-inv F
 -0.400000  0.200000 -0.200000    0.00800000  12 t-inv F
  0.400000 -0.200000 -0.200000    0.00800000  12 t-inv F
 -0.400000 -0.200000  0.200000    0.00800000  12 t-inv F
  0.000000  0.200000 -0.400000    0.00800000  13 t-inv F
  0.000000 -0.400000 -0.200000    0.00800000  13 t-inv F
  0.000000 -0.200000  0.400000    0.00800000  13 t-inv F
  0.000000 -0.400000  0.200000    0.00800000  13 t-inv F
  0.000000 -0.200000 -0.400000    0.00800000  13 t-inv F
  0.000000  0.400000 -0.200000    0.00800000  13 t-inv F
  0.000000  0.200000  0.400000    0.00800000  13 t-inv F
 -0.200000  0.200000 -0.400000    0.00800000  14 t-inv F
  0.200000 -0.400000 -0.200000    0.00800000  14 t-inv F
 -0.200000 -0.200000  0.400000    0.00800000  14 t-inv F
 -0.200000 -0.400000  0.200000    0.00800000  14 t-inv F
  0.200000 -0.200000 -0.400000    0.00800000  14 t-inv F
 -0.200000  0.400000 -0.200000    0.00800000  14 t-inv F
  0.200000  0.200000  0.400000    0.00800000  14 t-inv F
 -0.400000  0.200000 -0.400000    0.00800000  15 t-inv F
  0.400000 -0.400000 -0.200000    0.00800000  15 t-inv F
 -0.400000 -0.200000  0.400000    0.00800000  15 t-inv F
 -0.400000 -0.400000  0.200000    0.00800000  15 t-inv F
  0.400000 -0.200000 -0.400000    0.00800000  15 t-inv F
 -0.400000  0.400000 -0.200000    0.00800000  15 t-inv F
  0.400000  0.200000  0.400000    0.00800000  15 t-inv F
  0.000000  0.400000 -0.400000    0.00800000  16 t-inv F
  0.000000 -0.400000 -0.400000    0.00800000  16 t-inv F
  0.000000 -0.400000  0.400000    0.00800000  16 t-inv F
 -0.200000  0.400000 -0.400000    0.00800000  17 t-inv F
  0.200000 -0.400000 -0.400000    0.00800000  17 t-inv F
 -0.200000 -0.400000  0.400000    0.00800000  17 t-inv F
 -0.400000  0.400000 -0.400000    0.00800000  18 t-inv F
  0.400000 -0.400000 -0.400000    0.00800000  18 t-inv F
 -0.400000 -0.400000  0.400000    0.00800000  18 t-inv F
 -0.200000 -0.200000 -0.200000    0.00800000  11 t-inv T
  0.200000 -0.200000  0.200000    0.00800000  11 t-inv T
 -0.200000  0.200000  0.200000    0.00800000  11 t-inv T
  0.200000  0.200000 -0.200000    0.00800000  11 t-inv T
 -0.400000 -0.200000 -0.200000    0.00800000  12 t-inv T
  0.400000 -0.200000  0.200000    0.00800000  12 t-inv T
 -0.400000  0.200000  0.200000    0.00800000  12 t-inv T
  0.400000  0.200000 -0.200000    0.00800000  12 t-inv T
 -0.200000 -0.400000 -0.200000    0.00800000  14 t-inv T
  0.200000 -0.200000  0.400000    0.00800000  14 t-inv T
 -0.200000  0.400000  0.200000    0.00800000  14 t-inv T
  0.200000  0.200000 -0.400000    0.00800000  14 t-inv T
  0.200000  0.400000 -0.200000    0.00800000  14 t-inv T
 -0.200000  0.200000  0.400000    0.00800000  14 t-inv T
  0.200000 -0.400000  0.200000    0.00800000  14 t-inv T
 -0.200000 -0.200000 -0.400000    0.00800000  14 t-inv T
 -0.400000 -0.400000 -0.200000    0.00800000  15 t-inv T
  0.400000 -0.200000  0.400000    0.00800000  15 t-inv T
 -0.400000  0.400000  0.200000    0.00800000  15 t-inv T
  0.400000  0.200000 -0.400000    0.00800000  15 t-inv T
  0.400000  0.400000 -0.200000    0.00800000  15 t-inv T
 -0.400000  0.200000  0.400000    0.00800000  15 t-inv T
  0.400000 -0.400000  0.200000    0.00800000  15 t-inv T
 -0.400000 -0.200000 -0.400000    0.00800000  15 t-inv T
 -0.200000 -0.400000 -0.400000    0.00800000  17 t-inv T
  0.200000 -0.400000  0.400000    0.00800000  17 t-inv T
 -0.200000  0.400000  0.400000    0.00800000  17 t-inv T
  0.200000  0.400000 -0.400000    0.00800000  17 t-inv T
 -0.400000 -0.400000 -0.400000    0.00800000  18 t-inv T
  0.400000 -0.400000  0.400000    0.00800000  18 t-inv T
 -0.400000  0.400000  0.400000    0.00800000  18 t-inv T
  0.400000  0.400000 -0.400000    0.00800000  18 t-inv T


--------------------------------------------------------------------------------------------------------




 Dimension of arrays:
   k-points           NKPTS =     18   k-points in BZ     NKDIM =     18   number of bands    NBANDS=    168
   number of dos      NEDOS =    301   number of ions     NIONS =     64
   non local maximal  LDIM  =      5   non local SUM 2l+1 LMDIM =     13
   total plane-waves  NPLWV = 188160
   max r-space proj   IRMAX =      1   max aug-charges    IRDMAX=   8971
   dimension x,y,z NGX =    60 NGY =   56 NGZ =   56
   dimension x,y,z NGXF=   120 NGYF=  112 NGZF=  112
   support grid    NGXF=   120 NGYF=  112 NGZF=  112
   ions per type =              32  32
   NGX,Y,Z   is equivalent  to a cutoff of   8.50,  8.12,  8.12 a.u.
   NGXF,Y,Z  is equivalent  to a cutoff of  17.01, 16.24, 16.24 a.u.

 SYSTEM =  GaAs                                    
 POSCAR =  cubic gallium arsenide                  

 Startparameter for this run:
   NWRITE =      2    write-flag & timer
   PREC   = normal    normal or accurate (medium, high low for compatibility)
   ISTART =      0    job   : 0-new  1-cont  2-samecut
   ICHARG =      2    charge: 1-file 2-atom 10-const
   ISPIN  =      1    spin polarized calculation?
   LNONCOLLINEAR =      F non collinear calculations
   LSORBIT =      F    spin-orbit coupling
   INIWAV =      1    electr: 0-lowe 1-rand  2-diag
   LASPH  =      F    aspherical Exc in radial PAW
 Electronic Relaxation 1
   ENCUT  =  400.0 eV  29.40 Ry    5.42 a.u.  19.13 18.70 18.70*2*pi/ulx,y,z
   ENINI  =  400.0     initial cutoff
   ENAUG  =  462.8 eV  augmentation charge cutoff
   NELM   =     60;   NELMIN=  2; NELMDL= -5     # of ELM steps 
   EDIFF  = 0.1E-05   stopping-criterion for ELM
   LREAL  =      F    real-space projection
   NLSPLINE    = F    spline interpolate recip. space projectors
   LCOMPAT=      F    compatible to vasp.4.4
   GGA_COMPAT  = T    GGA compatible to vasp.4.4-vasp.4.6
   LMAXPAW     = -100 max onsite density
   LMAXMIX     =    2 max onsite mixed and CHGCAR
   VOSKOWN=      0    Vosko Wilk Nusair interpolation
   ROPT   =    0.00000   0.00000
 Ionic relaxation
   EDIFFG = 0.1E-02   stopping-criterion for IOM
   NSW    =    100    number of steps for IOM
   NBLOCK =      1;   KBLOCK =    100    inner block; outer block 
   IBRION =      2    ionic relax: 0-MD 1-quasi-New 2-CG
   NFREE  =      2    steps in history (QN), initial steepest desc. (CG)
   ISIF   =      2    stress and relaxation
   IWAVPR =     11    prediction:  0-non 1-charg 2-wave 3-comb
   ISYM   =      2    0-nonsym 1-usesym 2-fastsym
   LCORR  =      T    Harris-Foulkes like correction to forces

   POTIM  = 0.1000    time-step for ionic-motion
   TEIN   =    0.0    initial temperature
   TEBEG  =    0.0;   TEEND  =   0.0 temperature during run
   SMASS  =  -3.00    Nose mass-parameter (am)
   estimated Nose-frequenzy (Omega)   =  0.10E-29 period in steps = 0.63E+47 mass=  -0.314E-26a.u.
   SCALEE = 1.0000    scale energy and forces
   NPACO  =    256;   APACO  = 10.0  distance and # of slots for P.C.
   PSTRESS=    0.0 pullay stress

  Mass of Ions in am
   POMASS =  74.92 69.72
  Ionic Valenz
   ZVAL   =   5.00  3.00
  Atomic Wigner-Seitz radii
   RWIGS  =  -1.00 -1.00
  virtual crystal weights 
   VCA    =   1.00  1.00
   NELECT =     256.0000    total number of electrons
   NUPDOWN=      -1.0000    fix difference up-down

 DOS related values:
   EMIN   =  10.00;   EMAX   =-10.00  energy-range for DOS
   EFERMI =   0.00;   METHOD = LEGACY      
   ISMEAR =    -5;   SIGMA  =   0.10  broadening in eV -4-tet -1-fermi 0-gaus

 Electronic relaxation 2 (details)
   IALGO  =     38    algorithm
   LDIAG  =      T    sub-space diagonalisation (order eigenvalues)
   LSUBROT=      F    optimize rotation matrix (better conditioning)
   TURBO    =      0    0=normal 1=particle mesh
   IRESTART =      0    0=no restart 2=restart with 2 vectors
   NREBOOT  =      0    no. of reboots
   NMIN     =      0    reboot dimension
   EREF     =   0.00    reference energy to select bands
   IMIX   =      4    mixing-type and parameters
     AMIX     =   0.40;   BMIX     =  1.00
     AMIX_MAG =   1.60;   BMIX_MAG =  1.00
     AMIN     =   0.10
     WC   =   100.;   INIMIX=   1;  MIXPRE=   1;  MAXMIX= -45

 Intra band minimization:
   WEIMIN = 0.0010     energy-eigenvalue tresh-hold
   EBREAK =  0.15E-08  absolut break condition
   DEPER  =   0.30     relativ break condition  

   TIME   =   0.40     timestep for ELM

  volume/ion in A,a.u.               =      24.09       162.54
  Fermi-wavevector in a.u.,A,eV,Ry     =   0.899863  1.700494 11.017356  0.809753
  Thomas-Fermi vector in A             =   2.022749
 
 Write flags
   LWAVE        =      T    write WAVECAR
   LDOWNSAMPLE  =      F    k-point downsampling of WAVECAR
   LCHARG       =      T    write CHGCAR
   LVTOT        =      F    write LOCPOT, total local potential
   LVHAR        =      F    write LOCPOT, Hartree potential only
   WRT_POTENTIAL= false  ! write potential to hdf5 file
   LELF         =      F    write electronic localiz. function (ELF)
   LORBIT       =      0    0 simple, 1 ext, 2 COOP (PROOUT), +10 PAW based schemes


 Dipole corrections
   LMONO      =      F    monopole corrections only (constant potential shift)
   LDIPOL     =      F    correct potential (dipole corrections)
   IDIPOL     =      0    1-x, 2-y, 3-z, 4-all directions 
   EPSILON    =  1.0000000 bulk dielectric constant
   LVACPOTAV  =      F  vacuum potentials using an averaging scheme for the charge density
   VACPOTFLAT =  0.1000000 required flatness to determine vacuum potential
 Exchange correlation treatment:
   GGA     = PE    functional components
   XC_C    = 1    coefficients multiplying the functional components
   LIBXC   =     F    Libxc                    
   VOSKOWN =     0    Vosko Wilk Nusair interpolation
   LHFCALC =     F    Hartree Fock is set to
   LHFONE  =     F    Hartree Fock one center treatment
   AEXX    =    0.0000 exact exchange contribution

 Parameters of functionals:
   PE:
     No parameter
 
 Van der Waals corrections
   IVDW    =     0    specifies the selected vdW correction

 Linear response parameters
   LEPSILON=     T    determine dielectric tensor
   LRPA    =     F    only Hartree local field effects (RPA)
   LNABLA  =     F    use nabla operator in PAW spheres
   LVEL    =     F    velocity operator in full k-point grid
   CSHIFT  =0.1000    complex shift for real part using Kramers Kronig
   OMEGAMAX=  -1.0    maximum frequency
   DEG_THRESHOLD= 0.2000000E-02 threshold for treating states as degnerate
   RTIME   =   -0.100 relaxation time in fs
  (WPLASMAI=    0.000 imaginary part of plasma frequency in eV, 0.658/RTIME)
   DFIELD  = 0.0000000 0.0000000 0.0000000 field for delta impulse in time
 
  Optional k-point grid parameters
   LKPOINTS_OPT  =     F    use optional k-point grid
   KPOINTS_OPT_MODE=     1    mode for optional k-point grid
 
 Orbital magnetization related:
   ORBITALMAG=     F  switch on orbital magnetization
   LCHIMAG   =     F  perturbation theory with respect to B field
   DQ        =  0.001000  dq finite difference perturbation B field
   LLRAUG    =     F  two centre corrections for induced B field
   LBONE     =     F  B-component reconstruction in AE one-centre
   LVGVCALC  =     T  calculate vGv susceptibility
   LVGVAPPL  =     F  apply vGv susceptibility instead of pGv for G=0

 Random number generation:
   RANDOM_GENERATOR = DEFAULT
   PCG_SEED         = not used


--------------------------------------------------------------------------------------------------------


 conjugate gradient relaxation of ions
 charge density and potential will be updated during run
 non-spin polarized calculation
 Variant of blocked Davidson
 Davidson routine will perform the subspace rotation
 perform sub-space diagonalisation
    after iterative eigenvector-optimisation
 modified Broyden-mixing scheme, WC =      100.0
 initial mixing is a Kerker type mixing with AMIX =  0.4000 and BMIX =      1.0000
 Hartree-type preconditioning will be used
 using additional bands           40
 reciprocal scheme for non local part
 use partial core corrections
 calculate Harris-corrections to forces 
   (improved forces if not selfconsistent)
 use gradient corrections 
 use of overlap-Matrix (Vanderbilt PP)
 Fermi weights with tetrahedron method with Bloechl corrections


--------------------------------------------------------------------------------------------------------


  energy-cutoff  :      400.00
  volume of cell :     1541.47
      direct lattice vectors                 reciprocal lattice vectors
    11.728518831  0.000000000  0.000000000     0.085262258  0.000000000  0.000000000
     0.000000000 11.464266944  0.000000000     0.000000000  0.087227557  0.000000000
     0.000000000  0.000000000 11.464266944     0.000000000  0.000000000  0.087227557

  length of vectors
    11.728518831 11.464266944 11.464266944     0.085262258  0.087227557  0.087227557


 
 k-points in units of 2pi/SCALE and weight: Automatic mesh                          
   0.00000000  0.00000000  0.00000000       0.008
   0.01705245  0.00000000  0.00000000       0.016
   0.03410490  0.00000000  0.00000000       0.016
   0.00000000  0.01744551  0.00000000       0.032
   0.01705245  0.01744551  0.00000000       0.064
   0.03410490  0.01744551  0.00000000       0.064
   0.00000000  0.03489102  0.00000000       0.032
   0.01705245  0.03489102  0.00000000       0.064
   0.03410490  0.03489102  0.00000000       0.064
   0.00000000  0.01744551  0.01744551       0.032
   0.01705245  0.01744551  0.01744551       0.064
   0.03410490  0.01744551  0.01744551       0.064
   0.00000000  0.03489102  0.01744551       0.064
   0.01705245  0.03489102  0.01744551       0.128
   0.03410490  0.03489102  0.01744551       0.128
   0.00000000  0.03489102  0.03489102       0.032
   0.01705245  0.03489102  0.03489102       0.064
   0.03410490  0.03489102  0.03489102       0.064
 
 k-points in reciprocal lattice and weights: Automatic mesh                          
   0.00000000  0.00000000  0.00000000       0.008
   0.20000000  0.00000000  0.00000000       0.016
   0.40000000  0.00000000  0.00000000       0.016
   0.00000000  0.20000000  0.00000000       0.032
   0.20000000  0.20000000  0.00000000       0.064
   0.40000000  0.20000000  0.00000000       0.064
   0.00000000  0.40000000  0.00000000       0.032
   0.20000000  0.40000000  0.00000000       0.064
   0.40000000  0.40000000  0.00000000       0.064
   0.00000000  0.20000000  0.20000000       0.032
   0.20000000  0.20000000  0.20000000       0.064
   0.40000000  0.20000000  0.20000000       0.064
   0.00000000  0.40000000  0.20000000       0.064
   0.20000000  0.40000000  0.20000000       0.128
   0.40000000  0.40000000  0.20000000       0.128
   0.00000000  0.40000000  0.40000000       0.032
   0.20000000  0.40000000  0.40000000       0.064
   0.40000000  0.40000000  0.40000000       0.064
 
 position of ions in fractional coordinates (direct lattice) 
   0.00000000  0.00000000  0.00000000
   0.00000000  0.00000000  0.50000000
   0.00000000  0.50000000  0.00000000
   0.00000000  0.50000000  0.50000000
   0.50000000  0.00000000  0.00000000
   0.50000000  0.00000000  0.50000000
   0.50000000  0.50000000  0.00000000
   0.50000000  0.50000000  0.50000000
   0.25000000  0.25000000  0.00000000
   0.25000000  0.25000000  0.50000000
   0.25000000  0.75000000  0.00000000
   0.25000000  0.75000000  0.50000000
   0.75000000  0.25000000  0.00000000
   0.75000000  0.25000000  0.50000000
   0.75000000  0.75000000  0.00000000
   0.75000000  0.75000000  0.50000000
   0.25000000  0.00000000  0.25000000
   0.25000000  0.00000000  0.75000000
   0.25000000  0.50000000  0.25000000
   0.25000000  0.50000000  0.75000000
   0.75000000  0.00000000  0.25000000
   0.75000000  0.00000000  0.75000000
   0.75000000  0.50000000  0.25000000
   0.75000000  0.50000000  0.75000000
   0.00000000  0.25000000  0.25000000
   0.00000000  0.25000000  0.75000000
   0.00000000  0.75000000  0.25000000
   0.00000000  0.75000000  0.75000000
   0.50000000  0.25000000  0.25000000
   0.50000000  0.25000000  0.75000000
   0.50000000  0.75000000  0.25000000
   0.50000000  0.75000000  0.75000000
   0.12500000  0.12500000  0.12500000
   0.12500000  0.12500000  0.62500000
   0.12500000  0.62500000  0.12500000
   0.12500000  0.62500000  0.62500000
   0.62500000  0.12500000  0.12500000
   0.62500000  0.12500000  0.62500000
   0.62500000  0.62500000  0.12500000
   0.62500000  0.62500000  0.62500000
   0.37500000  0.12500000  0.37500000
   0.37500000  0.12500000  0.87500000
   0.37500000  0.62500000  0.37500000
   0.37500000  0.62500000  0.87500000
   0.87500000  0.12500000  0.37500000
   0.87500000  0.12500000  0.87500000
   0.87500000  0.62500000  0.37500000
   0.87500000  0.62500000  0.87500000
   0.37500000  0.37500000  0.12500000
   0.37500000  0.37500000  0.62500000
   0.37500000  0.87500000  0.12500000
   0.37500000  0.87500000  0.62500000
   0.87500000  0.37500000  0.12500000
   0.87500000  0.37500000  0.62500000
   0.87500000  0.87500000  0.12500000
   0.87500000  0.87500000  0.62500000
   0.12500000  0.37500000  0.37500000
   0.12500000  0.37500000  0.87500000
   0.12500000  0.87500000  0.37500000
   0.12500000  0.87500000  0.87500000
   0.62500000  0.37500000  0.37500000
   0.62500000  0.37500000  0.87500000
   0.62500000  0.87500000  0.37500000
   0.62500000  0.87500000  0.87500000
 
 position of ions in cartesian coordinates  (Angst):
   0.00000000  0.00000000  0.00000000
   0.00000000  0.00000000  5.73213347
   0.00000000  5.73213347  0.00000000
   0.00000000  5.73213347  5.73213347
   5.86425942  0.00000000  0.00000000
   5.86425942  0.00000000  5.73213347
   5.86425942  5.73213347  0.00000000
   5.86425942  5.73213347  5.73213347
   2.93212971  2.86606674  0.00000000
   2.93212971  2.86606674  5.73213347
   2.93212971  8.59820021  0.00000000
   2.93212971  8.59820021  5.73213347
   8.79638912  2.86606674  0.00000000
   8.79638912  2.86606674  5.73213347
   8.79638912  8.59820021  0.00000000
   8.79638912  8.59820021  5.73213347
   2.93212971  0.00000000  2.86606674
   2.93212971  0.00000000  8.59820021
   2.93212971  5.73213347  2.86606674
   2.93212971  5.73213347  8.59820021
   8.79638912  0.00000000  2.86606674
   8.79638912  0.00000000  8.59820021
   8.79638912  5.73213347  2.86606674
   8.79638912  5.73213347  8.59820021
   0.00000000  2.86606674  2.86606674
   0.00000000  2.86606674  8.59820021
   0.00000000  8.59820021  2.86606674
   0.00000000  8.59820021  8.59820021
   5.86425942  2.86606674  2.86606674
   5.86425942  2.86606674  8.59820021
   5.86425942  8.59820021  2.86606674
   5.86425942  8.59820021  8.59820021
   1.46606485  1.43303337  1.43303337
   1.46606485  1.43303337  7.16516684
   1.46606485  7.16516684  1.43303337
   1.46606485  7.16516684  7.16516684
   7.33032427  1.43303337  1.43303337
   7.33032427  1.43303337  7.16516684
   7.33032427  7.16516684  1.43303337
   7.33032427  7.16516684  7.16516684
   4.39819456  1.43303337  4.29910010
   4.39819456  1.43303337 10.03123358
   4.39819456  7.16516684  4.29910010
   4.39819456  7.16516684 10.03123358
  10.26245398  1.43303337  4.29910010
  10.26245398  1.43303337 10.03123358
  10.26245398  7.16516684  4.29910010
  10.26245398  7.16516684 10.03123358
   4.39819456  4.29910010  1.43303337
   4.39819456  4.29910010  7.16516684
   4.39819456 10.03123358  1.43303337
   4.39819456 10.03123358  7.16516684
  10.26245398  4.29910010  1.43303337
  10.26245398  4.29910010  7.16516684
  10.26245398 10.03123358  1.43303337
  10.26245398 10.03123358  7.16516684
   1.46606485  4.29910010  4.29910010
   1.46606485  4.29910010 10.03123358
   1.46606485 10.03123358  4.29910010
   1.46606485 10.03123358 10.03123358
   7.33032427  4.29910010  4.29910010
   7.33032427  4.29910010 10.03123358
   7.33032427 10.03123358  4.29910010
   7.33032427 10.03123358 10.03123358
 


--------------------------------------------------------------------------------------------------------


 k-point     1 :   0.0000 0.0000 0.0000  plane waves:   28011
 k-point     2 :   0.2000 0.0000 0.0000  plane waves:   27958
 k-point     3 :   0.4000 0.0000 0.0000  plane waves:   28082
 k-point     4 :   0.0000 0.2000 0.0000  plane waves:   28021
 k-point     5 :   0.2000 0.2000 0.0000  plane waves:   28011
 k-point     6 :   0.4000 0.2000 0.0000  plane waves:   27994
 k-point     7 :   0.0000 0.4000 0.0000  plane waves:   27964
 k-point     8 :   0.2000 0.4000 0.0000  plane waves:   27978
 k-point     9 :   0.4000 0.4000 0.0000  plane waves:   27996
 k-point    10 :   0.0000 0.2000 0.2000  plane waves:   28007
 k-point    11 :   0.2000 0.2000 0.2000  plane waves:   28013
 k-point    12 :   0.4000 0.2000 0.2000  plane waves:   28000
 k-point    13 :   0.0000 0.4000 0.2000  plane waves:   27969
 k-point    14 :   0.2000 0.4000 0.2000  plane waves:   27995
 k-point    15 :   0.4000 0.4000 0.2000  plane waves:   28010
 k-point    16 :   0.0000 0.4000 0.4000  plane waves:   28002
 k-point    17 :   0.2000 0.4000 0.4000  plane waves:   28021
 k-point    18 :   0.4000 0.4000 0.4000  plane waves:   27981

 maximum and minimum number of plane-waves per node :     28082    27958

 maximum number of plane-waves:     28082
 maximum index in each direction: 
   IXMAX=   19   IYMAX=   18   IZMAX=   18
   IXMIN=  -19   IYMIN=  -19   IZMIN=  -19


 serial   3D FFT for wavefunctions
 parallel 3D FFT for charge:
    minimum data exchange during FFTs selected (reduces bandwidth)


 total amount of memory used by VASP MPI-rank0   364813. kBytes
=======================================================================

   base      :      30000. kBytes
   nonl-proj :     133923. kBytes
   fftplans  :       7212. kBytes
   grid      :      18251. kBytes
   one-center:        519. kBytes
   wavefun   :     174908. kBytes
 
     INWAV:  cpu time      0.0000: real time      0.0002
 Broyden mixing: mesh for mixing (old mesh)
   NGX = 39   NGY = 37   NGZ = 37
  (NGX  =120   NGY  =112   NGZ  =112)
  gives a total of  53391 points

 initial charge density was supplied:
 charge density of overlapping atoms calculated
 number of electron     256.0000000 magnetization 
 keeping initial charge density in first step


--------------------------------------------------------------------------------------------------------


 Maximum index for augmentation-charges         1091 (set IRDMAX)


--------------------------------------------------------------------------------------------------------


 First call to EWALD:  gamma=   0.153
 Maximum number of real-space cells 3x 3x 3
 Maximum number of reciprocal cells 3x 3x 3

    FEWALD:  cpu time      0.0024: real time      0.0024


--------------------------------------- Ionic step        1  -------------------------------------------




--------------------------------------- Iteration      1(   1)  ---------------------------------------


    POTLOK:  cpu time      0.1170: real time      0.1201
    SETDIJ:  cpu time      0.0110: real time      0.0111
     EDDAV:  cpu time     72.8727: real time     73.8509
 BZINTS: Fermi energy:    9.678114;  256.000000 electrons
         Band energy: 0.372814E+03;  BLOECHL correction:   -0.011910
       DOS:  cpu time      0.0128: real time      0.0128
    --------------------------------------------
      LOOP:  cpu time     73.0134: real time     73.9950

 eigenvalue-minimisations  :  6048
 total energy-change (2. order) : 0.9339498E+03  (-0.8076592E+04)
 number of electron     256.0000000 magnetization 
 augmentation part      256.0000000 magnetization 

 Free energy of the ion-electron system (eV)
  ---------------------------------------------------
  alpha Z        PSCENC =       568.13638824
  Ewald energy   TEWEN  =     -7178.39412012
  -Hartree energ DENC   =      -605.77818117
  -exchange      EXHF   =         0.00000000
  -V(xc)+E(xc)   XCENC  =      -996.78795435
  PAW double counting   =      6692.16565901    -5247.93935635
  entropy T*S    EENTRO =         0.00000000
  eigenvalues    EBANDS =       372.81429854
  atomic energy  EATOM  =      7329.73306348
  Solvation  Ediel_sol  =         0.00000000
  ---------------------------------------------------
  free energy    TOTEN  =       933.94979727 eV

  energy without entropy =      933.94979727  energy(sigma->0) =      933.94979727


--------------------------------------------------------------------------------------------------------




--------------------------------------- Iteration      1(   2)  ---------------------------------------


     EDDAV:  cpu time     84.6579: real time     85.8549
 BZINTS: Fermi energy:    2.975800;  256.000000 electrons
         Band energy:-0.727535E+03;  BLOECHL correction:    0.000000
       DOS:  cpu time      0.0079: real time      0.0079
    --------------------------------------------
      LOOP:  cpu time     84.6657: real time     85.8628

 eigenvalue-minimisations  :  7192
 total energy-change (2. order) :-0.1100350E+04  (-0.1048513E+04)
 number of electron     256.0000000 magnetization 
 augmentation part      256.0000000 magnetization 

 Free energy of the ion-electron system (eV)
  ---------------------------------------------------
  alpha Z        PSCENC =       568.13638824
  Ewald energy   TEWEN  =     -7178.39412012
  -Hartree energ DENC   =      -605.77818117
  -exchange      EXHF   =         0.00000000
  -V(xc)+E(xc)   XCENC  =      -996.78795435
  PAW double counting   =      6692.16565901    -5247.93935635
  entropy T*S    EENTRO =         0.00000000
  eigenvalues    EBANDS =      -727.53520846
  atomic energy  EATOM  =      7329.73306348
  Solvation  Ediel_sol  =         0.00000000
  ---------------------------------------------------
  free energy    TOTEN  =      -166.39970974 eV

  energy without entropy =     -166.39970974  energy(sigma->0) =     -166.39970974


--------------------------------------------------------------------------------------------------------




--------------------------------------- Iteration      1(   3)  ---------------------------------------


     EDDAV:  cpu time     87.4582: real time     88.6081
 BZINTS: Fermi energy:    1.810818;  256.000000 electrons
         Band energy:-0.828663E+03;  BLOECHL correction:    0.000000
       DOS:  cpu time      0.0079: real time      0.0079
    --------------------------------------------
      LOOP:  cpu time     87.4661: real time     88.6160

 eigenvalue-minimisations  :  7440
 total energy-change (2. order) :-0.1011278E+03  (-0.9973966E+02)
 number of electron     256.0000000 magnetization 
 augmentation part      256.0000000 magnetization 

 Free energy of the ion-electron system (eV)
  ---------------------------------------------------
  alpha Z        PSCENC =       568.13638824
  Ewald energy   TEWEN  =     -7178.39412012
  -Hartree energ DENC   =      -605.77818117
  -exchange      EXHF   =         0.00000000
  -V(xc)+E(xc)   XCENC  =      -996.78795435
  PAW double counting   =      6692.16565901    -5247.93935635
  entropy T*S    EENTRO =         0.00000000
  eigenvalues    EBANDS =      -828.66300824
  atomic energy  EATOM  =      7329.73306348
  Solvation  Ediel_sol  =         0.00000000
  ---------------------------------------------------
  free energy    TOTEN  =      -267.52750952 eV

  energy without entropy =     -267.52750952  energy(sigma->0) =     -267.52750952


--------------------------------------------------------------------------------------------------------




--------------------------------------- Iteration      1(   4)  ---------------------------------------


     EDDAV:  cpu time     85.0847: real time     86.2164
 BZINTS: Fermi energy:    1.772706;  256.000000 electrons
         Band energy:-0.831153E+03;  BLOECHL correction:    0.000000
       DOS:  cpu time      0.0077: real time      0.0078
    --------------------------------------------
      LOOP:  cpu time     85.0924: real time     86.2242

 eigenvalue-minimisations  :  7272
 total energy-change (2. order) :-0.2490449E+01  (-0.2462202E+01)
 number of electron     256.0000000 magnetization 
 augmentation part      256.0000000 magnetization 

 Free energy of the ion-electron system (eV)
  ---------------------------------------------------
  alpha Z        PSCENC =       568.13638824
  Ewald energy   TEWEN  =     -7178.39412012
  -Hartree energ DENC   =      -605.77818117
  -exchange      EXHF   =         0.00000000
  -V(xc)+E(xc)   XCENC  =      -996.78795435
  PAW double counting   =      6692.16565901    -5247.93935635
  entropy T*S    EENTRO =         0.00000000
  eigenvalues    EBANDS =      -831.15345772
  atomic energy  EATOM  =      7329.73306348
  Solvation  Ediel_sol  =         0.00000000
  ---------------------------------------------------
  free energy    TOTEN  =      -270.01795900 eV

  energy without entropy =     -270.01795900  energy(sigma->0) =     -270.01795900


--------------------------------------------------------------------------------------------------------




--------------------------------------- Iteration      1(   5)  ---------------------------------------


     EDDAV:  cpu time     86.8535: real time     88.0624
 BZINTS: Fermi energy:    1.792252;  256.000000 electrons
         Band energy:-0.831227E+03;  BLOECHL correction:    0.000000
       DOS:  cpu time      0.0079: real time      0.0079
    CHARGE:  cpu time      0.8076: real time      0.8125
    MIXING:  cpu time      0.0041: real time      0.0042
    --------------------------------------------
      LOOP:  cpu time     87.6731: real time     88.8869

 eigenvalue-minimisations  :  7456
 total energy-change (2. order) :-0.7383683E-01  (-0.7358404E-01)
 number of electron     255.9999828 magnetization 
 augmentation part      -41.5152144 magnetization 

 Broyden mixing:
  rms(total) = 0.19997E+01    rms(broyden)= 0.19997E+01
  rms(prec ) = 0.22752E+01
  weight for this iteration     100.00

 Free energy of the ion-electron system (eV)
  ---------------------------------------------------
  alpha Z        PSCENC =       568.13638824
  Ewald energy   TEWEN  =     -7178.39412012
  -Hartree energ DENC   =      -605.77818117
  -exchange      EXHF   =         0.00000000
  -V(xc)+E(xc)   XCENC  =      -996.78795435
  PAW double counting   =      6692.16565901    -5247.93935635
  entropy T*S    EENTRO =         0.00000000
  eigenvalues    EBANDS =      -831.22729455
  atomic energy  EATOM  =      7329.73306348
  Solvation  Ediel_sol  =         0.00000000
  ---------------------------------------------------
  free energy    TOTEN  =      -270.09179582 eV

  energy without entropy =     -270.09179582  energy(sigma->0) =     -270.09179582


--------------------------------------------------------------------------------------------------------




--------------------------------------- Iteration      1(   6)  ---------------------------------------


    POTLOK:  cpu time      0.1139: real time      0.1171
    SETDIJ:  cpu time      0.0111: real time      0.0112
     EDDAV:  cpu time     80.8822: real time     81.9781
 BZINTS: Fermi energy:    2.059298;  256.000000 electrons
         Band energy:-0.779819E+03;  BLOECHL correction:    0.000000
       DOS:  cpu time      0.0080: real time      0.0081
    CHARGE:  cpu time      0.8034: real time      0.8099
    MIXING:  cpu time      0.0035: real time      0.0036
    --------------------------------------------
      LOOP:  cpu time     81.8222: real time     82.9280

 eigenvalue-minimisations  :  7016
 total energy-change (2. order) : 0.4166421E+01  (-0.6544661E+00)
 number of electron     255.9999832 magnetization 
 augmentation part      -41.3961126 magnetization 

 Broyden mixing:
  rms(total) = 0.11733E+01    rms(broyden)= 0.11733E+01
  rms(prec ) = 0.12947E+01
  weight for this iteration     100.00

 eigenvalues of (default mixing * dielectric matrix)
  average eigenvalue GAMMA=   2.2560
  2.2560

 Free energy of the ion-electron system (eV)
  ---------------------------------------------------
  alpha Z        PSCENC =       568.13638824
  Ewald energy   TEWEN  =     -7178.39412012
  -Hartree energ DENC   =      -656.34930175
  -exchange      EXHF   =         0.00000000
  -V(xc)+E(xc)   XCENC  =      -988.00801105
  PAW double counting   =      9373.06374638    -7934.28855479
  entropy T*S    EENTRO =         0.00000000
  eigenvalues    EBANDS =      -779.81858510
  atomic energy  EATOM  =      7329.73306348
  Solvation  Ediel_sol  =         0.00000000
  ---------------------------------------------------
  free energy    TOTEN  =      -265.92537472 eV

  energy without entropy =     -265.92537472  energy(sigma->0) =     -265.92537472


--------------------------------------------------------------------------------------------------------




--------------------------------------- Iteration      1(   7)  ---------------------------------------


    POTLOK:  cpu time      0.1128: real time      0.1161
    SETDIJ:  cpu time      0.0110: real time      0.0111
     EDDAV:  cpu time     82.7979: real time     83.9378
 BZINTS: Fermi energy:    2.284565;  256.000000 electrons
         Band energy:-0.731468E+03;  BLOECHL correction:    0.000000
       DOS:  cpu time      0.0085: real time      0.0086
    CHARGE:  cpu time      0.8080: real time      0.8133
    MIXING:  cpu time      0.0037: real time      0.0037
    --------------------------------------------
      LOOP:  cpu time     83.7419: real time     84.8906

 eigenvalue-minimisations  :  7304
 total energy-change (2. order) : 0.8124284E+00  (-0.4300179E+00)
 number of electron     255.9999834 magnetization 
 augmentation part      -41.2754456 magnetization 

 Broyden mixing:
  rms(total) = 0.24449E+00    rms(broyden)= 0.24449E+00
  rms(prec ) = 0.28647E+00
  weight for this iteration     100.00

 eigenvalues of (default mixing * dielectric matrix)
  average eigenvalue GAMMA=   1.9334
  1.6110  2.2558

 Free energy of the ion-electron system (eV)
  ---------------------------------------------------
  alpha Z        PSCENC =       568.13638824
  Ewald energy   TEWEN  =     -7178.39412012
  -Hartree energ DENC   =      -708.93809917
  -exchange      EXHF   =         0.00000000
  -V(xc)+E(xc)   XCENC  =      -977.24621775
  PAW double counting   =     13812.23916969   -12379.17507565
  entropy T*S    EENTRO =         0.00000000
  eigenvalues    EBANDS =      -731.46805500
  atomic energy  EATOM  =      7329.73306348
  Solvation  Ediel_sol  =         0.00000000
  ---------------------------------------------------
  free energy    TOTEN  =      -265.11294629 eV

  energy without entropy =     -265.11294629  energy(sigma->0) =     -265.11294629


--------------------------------------------------------------------------------------------------------




--------------------------------------- Iteration      1(   8)  ---------------------------------------


    POTLOK:  cpu time      0.1143: real time      0.1174
    SETDIJ:  cpu time      0.0111: real time      0.0112
     EDDAV:  cpu time     78.1957: real time     79.2449
 BZINTS: Fermi energy:    2.284576;  256.000000 electrons
         Band energy:-0.733164E+03;  BLOECHL correction:    0.000000
       DOS:  cpu time      0.0080: real time      0.0081
    CHARGE:  cpu time      0.7523: real time      0.7574
    MIXING:  cpu time      0.0036: real time      0.0037
    --------------------------------------------
      LOOP:  cpu time     79.0851: real time     80.1426

 eigenvalue-minimisations  :  7064
 total energy-change (2. order) : 0.4158992E-01  (-0.5071443E-01)
 number of electron     255.9999834 magnetization 
 augmentation part      -41.2835939 magnetization 

 Broyden mixing:
  rms(total) = 0.61418E-01    rms(broyden)= 0.61418E-01
  rms(prec ) = 0.71438E-01
  weight for this iteration     100.00

 eigenvalues of (default mixing * dielectric matrix)
  average eigenvalue GAMMA=   1.9452
  2.6784  1.5785  1.5785

 Free energy of the ion-electron system (eV)
  ---------------------------------------------------
  alpha Z        PSCENC =       568.13638824
  Ewald energy   TEWEN  =     -7178.39412012
  -Hartree energ DENC   =      -708.25462998
  -exchange      EXHF   =         0.00000000
  -V(xc)+E(xc)   XCENC  =      -975.89528429
  PAW double counting   =     14468.20685005   -13035.43999898
  entropy T*S    EENTRO =         0.00000000
  eigenvalues    EBANDS =      -733.16362477
  atomic energy  EATOM  =      7329.73306348
  Solvation  Ediel_sol  =         0.00000000
  ---------------------------------------------------
  free energy    TOTEN  =      -265.07135637 eV

  energy without entropy =     -265.07135637  energy(sigma->0) =     -265.07135637


--------------------------------------------------------------------------------------------------------




--------------------------------------- Iteration      1(   9)  ---------------------------------------


    POTLOK:  cpu time      0.1076: real time      0.1106
    SETDIJ:  cpu time      0.0108: real time      0.0109
     EDDAV:  cpu time     71.6887: real time     72.6902
 BZINTS: Fermi energy:    2.287414;  256.000000 electrons
         Band energy:-0.729217E+03;  BLOECHL correction:    0.000000
       DOS:  cpu time      0.0078: real time      0.0079
    CHARGE:  cpu time      0.7463: real time      0.7512
    MIXING:  cpu time      0.0037: real time      0.0037
    --------------------------------------------
      LOOP:  cpu time     72.5650: real time     73.5745

 eigenvalue-minimisations  :  6944
 total energy-change (2. order) :-0.1173976E-01  (-0.3591476E-02)
 number of electron     255.9999834 magnetization 
 augmentation part      -41.2848701 magnetization 

 Broyden mixing:
  rms(total) = 0.23154E-01    rms(broyden)= 0.23154E-01
  rms(prec ) = 0.24588E-01
  weight for this iteration     100.00

 eigenvalues of (default mixing * dielectric matrix)
  average eigenvalue GAMMA=   1.6628
  2.5781  1.6633  1.6633  0.7464

 Free energy of the ion-electron system (eV)
  ---------------------------------------------------
  alpha Z        PSCENC =       568.13638824
  Ewald energy   TEWEN  =     -7178.39412012
  -Hartree energ DENC   =      -712.91798402
  -exchange      EXHF   =         0.00000000
  -V(xc)+E(xc)   XCENC  =      -974.98708201
  PAW double counting   =     14658.84130401   -13226.27753962
  entropy T*S    EENTRO =         0.00000000
  eigenvalues    EBANDS =      -729.21712609
  atomic energy  EATOM  =      7329.73306348
  Solvation  Ediel_sol  =         0.00000000
  ---------------------------------------------------
  free energy    TOTEN  =      -265.08309613 eV

  energy without entropy =     -265.08309613  energy(sigma->0) =     -265.08309613


--------------------------------------------------------------------------------------------------------




--------------------------------------- Iteration      1(  10)  ---------------------------------------


    POTLOK:  cpu time      0.1078: real time      0.1108
    SETDIJ:  cpu time      0.0108: real time      0.0109
     EDDAV:  cpu time     76.6089: real time     77.7071
 BZINTS: Fermi energy:    2.282822;  256.000000 electrons
         Band energy:-0.729155E+03;  BLOECHL correction:    0.000000
       DOS:  cpu time      0.0094: real time      0.0095
    CHARGE:  cpu time      0.7457: real time      0.7507
    MIXING:  cpu time      0.0036: real time      0.0036
    --------------------------------------------
      LOOP:  cpu time     77.4862: real time     78.5926

 eigenvalue-minimisations  :  7536
 total energy-change (2. order) :-0.1109878E-02  (-0.9999724E-04)
 number of electron     255.9999834 magnetization 
 augmentation part      -41.2852034 magnetization 

 Broyden mixing:
  rms(total) = 0.10794E-01    rms(broyden)= 0.10794E-01
  rms(prec ) = 0.12541E-01
  weight for this iteration     100.00

 eigenvalues of (default mixing * dielectric matrix)
  average eigenvalue GAMMA=   1.9216
  3.1137  2.5002  1.0323  1.4810  1.4810

 Free energy of the ion-electron system (eV)
  ---------------------------------------------------
  alpha Z        PSCENC =       568.13638824
  Ewald energy   TEWEN  =     -7178.39412012
  -Hartree energ DENC   =      -713.01605437
  -exchange      EXHF   =         0.00000000
  -V(xc)+E(xc)   XCENC  =      -975.02885543
  PAW double counting   =     14577.24611458   -13144.60546852
  entropy T*S    EENTRO =         0.00000000
  eigenvalues    EBANDS =      -729.15527385
  atomic energy  EATOM  =      7329.73306348
  Solvation  Ediel_sol  =         0.00000000
  ---------------------------------------------------
  free energy    TOTEN  =      -265.08420601 eV

  energy without entropy =     -265.08420601  energy(sigma->0) =     -265.08420601


--------------------------------------------------------------------------------------------------------




--------------------------------------- Iteration      1(  11)  ---------------------------------------


    POTLOK:  cpu time      0.1088: real time      0.1118
    SETDIJ:  cpu time      0.0107: real time      0.0108
     EDDAV:  cpu time     68.6199: real time     69.5790
 BZINTS: Fermi energy:    2.282036;  256.000000 electrons
         Band energy:-0.728728E+03;  BLOECHL correction:    0.000000
       DOS:  cpu time      0.0075: real time      0.0075
    CHARGE:  cpu time      0.7409: real time      0.7461
    MIXING:  cpu time      0.0036: real time      0.0037
    --------------------------------------------
      LOOP:  cpu time     69.4914: real time     70.4589

 eigenvalue-minimisations  :  6560
 total energy-change (2. order) :-0.1321559E-02  (-0.2236275E-03)
 number of electron     255.9999834 magnetization 
 augmentation part      -41.2824025 magnetization 

 Broyden mixing:
  rms(total) = 0.50385E-02    rms(broyden)= 0.50385E-02
  rms(prec ) = 0.52961E-02
  weight for this iteration     100.00

 eigenvalues of (default mixing * dielectric matrix)
  average eigenvalue GAMMA=   1.7905
  3.0740  2.4859  1.6597  1.6597  0.9473  0.9163

 Free energy of the ion-electron system (eV)
  ---------------------------------------------------
  alpha Z        PSCENC =       568.13638824
  Ewald energy   TEWEN  =     -7178.39412012
  -Hartree energ DENC   =      -713.58151135
  -exchange      EXHF   =         0.00000000
  -V(xc)+E(xc)   XCENC  =      -974.94769925
  PAW double counting   =     14527.93595598   -13095.23958049
  entropy T*S    EENTRO =         0.00000000
  eigenvalues    EBANDS =      -728.72802406
  atomic energy  EATOM  =      7329.73306348
  Solvation  Ediel_sol  =         0.00000000
  ---------------------------------------------------
  free energy    TOTEN  =      -265.08552757 eV

  energy without entropy =     -265.08552757  energy(sigma->0) =     -265.08552757


--------------------------------------------------------------------------------------------------------




--------------------------------------- Iteration      1(  12)  ---------------------------------------


    POTLOK:  cpu time      0.1072: real time      0.1102
    SETDIJ:  cpu time      0.0106: real time      0.0107
     EDDAV:  cpu time     75.9605: real time     77.0124
 BZINTS: Fermi energy:    2.281007;  256.000000 electrons
         Band energy:-0.728681E+03;  BLOECHL correction:    0.000000
       DOS:  cpu time      0.0075: real time      0.0076
    CHARGE:  cpu time      0.7453: real time      0.7507
    MIXING:  cpu time      0.0037: real time      0.0037
    --------------------------------------------
      LOOP:  cpu time     76.8348: real time     77.8953

 eigenvalue-minimisations  :  7408
 total energy-change (2. order) :-0.6708166E-05  (-0.3279837E-05)
 number of electron     255.9999834 magnetization 
 augmentation part      -41.2823419 magnetization 

 Broyden mixing:
  rms(total) = 0.22522E-02    rms(broyden)= 0.22522E-02
  rms(prec ) = 0.25155E-02
  weight for this iteration     100.00

 eigenvalues of (default mixing * dielectric matrix)
  average eigenvalue GAMMA=   1.8845
  3.2458  2.6125  2.6125  1.3388  1.3388  1.0215  1.0215

 Free energy of the ion-electron system (eV)
  ---------------------------------------------------
  alpha Z        PSCENC =       568.13638824
  Ewald energy   TEWEN  =     -7178.39412012
  -Hartree energ DENC   =      -713.61635399
  -exchange      EXHF   =         0.00000000
  -V(xc)+E(xc)   XCENC  =      -974.95319139
  PAW double counting   =     14533.84779763   -13101.15855914
  entropy T*S    EENTRO =         0.00000000
  eigenvalues    EBANDS =      -728.68055898
  atomic energy  EATOM  =      7329.73306348
  Solvation  Ediel_sol  =         0.00000000
  ---------------------------------------------------
  free energy    TOTEN  =      -265.08553427 eV

  energy without entropy =     -265.08553427  energy(sigma->0) =     -265.08553427


--------------------------------------------------------------------------------------------------------




--------------------------------------- Iteration      1(  13)  ---------------------------------------


    POTLOK:  cpu time      0.1074: real time      0.1104
    SETDIJ:  cpu time      0.0108: real time      0.0109
     EDDAV:  cpu time     72.3646: real time     73.3655
 BZINTS: Fermi energy:    2.280836;  256.000000 electrons
         Band energy:-0.728553E+03;  BLOECHL correction:    0.000000
       DOS:  cpu time      0.0076: real time      0.0076
    CHARGE:  cpu time      0.7440: real time      0.7490
    MIXING:  cpu time      0.0039: real time      0.0039
    --------------------------------------------
      LOOP:  cpu time     73.2383: real time     74.2473

 eigenvalue-minimisations  :  6944
 total energy-change (2. order) :-0.9056717E-05  (-0.8037527E-05)
 number of electron     255.9999834 magnetization 
 augmentation part      -41.2816392 magnetization 

 Broyden mixing:
  rms(total) = 0.97043E-03    rms(broyden)= 0.97043E-03
  rms(prec ) = 0.10852E-02
  weight for this iteration     100.00

 eigenvalues of (default mixing * dielectric matrix)
  average eigenvalue GAMMA=   1.8433
  3.3743  2.7799  2.4478  1.6797  1.5672  1.1032  0.8970  0.8970

 Free energy of the ion-electron system (eV)
  ---------------------------------------------------
  alpha Z        PSCENC =       568.13638824
  Ewald energy   TEWEN  =     -7178.39412012
  -Hartree energ DENC   =      -713.74294900
  -exchange      EXHF   =         0.00000000
  -V(xc)+E(xc)   XCENC  =      -974.94807645
  PAW double counting   =     14537.61609883   -13104.93300752
  entropy T*S    EENTRO =         0.00000000
  eigenvalues    EBANDS =      -728.55294078
  atomic energy  EATOM  =      7329.73306348
  Solvation  Ediel_sol  =         0.00000000
  ---------------------------------------------------
  free energy    TOTEN  =      -265.08554333 eV

  energy without entropy =     -265.08554333  energy(sigma->0) =     -265.08554333


--------------------------------------------------------------------------------------------------------




--------------------------------------- Iteration      1(  14)  ---------------------------------------


    POTLOK:  cpu time      0.1067: real time      0.1097
    SETDIJ:  cpu time      0.0109: real time      0.0110
     EDDAV:  cpu time     64.3779: real time     65.2771
 BZINTS: Fermi energy:    2.280402;  256.000000 electrons
         Band energy:-0.728566E+03;  BLOECHL correction:    0.000000
       DOS:  cpu time      0.0075: real time      0.0076
    --------------------------------------------
      LOOP:  cpu time     64.5030: real time     65.4053

 eigenvalue-minimisations  :  6000
 total energy-change (2. order) : 0.6094851E-06  (-0.4172951E-06)
 number of electron     255.9999834 magnetization 
 augmentation part      -41.2816392 magnetization 

 Free energy of the ion-electron system (eV)
  ---------------------------------------------------
  alpha Z        PSCENC =       568.13638824
  Ewald energy   TEWEN  =     -7178.39412012
  -Hartree energ DENC   =      -713.73108098
  -exchange      EXHF   =         0.00000000
  -V(xc)+E(xc)   XCENC  =      -974.94820299
  PAW double counting   =     14537.64455913   -13104.96024568
  entropy T*S    EENTRO =         0.00000000
  eigenvalues    EBANDS =      -728.56590379
  atomic energy  EATOM  =      7329.73306348
  Solvation  Ediel_sol  =         0.00000000
  ---------------------------------------------------
  free energy    TOTEN  =      -265.08554272 eV

  energy without entropy =     -265.08554272  energy(sigma->0) =     -265.08554272


--------------------------------------------------------------------------------------------------------




 average (electrostatic) potential at core
  the test charge radii are     1.0621  1.2767
  (the norm of the test charge is              1.0000)
       1 -51.9416       2 -51.9416       3 -51.9416       4 -51.9416       5 -51.9416
       6 -51.9416       7 -51.9416       8 -51.9416       9 -51.9416      10 -51.9416
      11 -51.9416      12 -51.9416      13 -51.9416      14 -51.9416      15 -51.9416
      16 -51.9416      17 -51.9416      18 -51.9416      19 -51.9416      20 -51.9416
      21 -51.9416      22 -51.9416      23 -51.9416      24 -51.9416      25 -51.9416
      26 -51.9416      27 -51.9416      28 -51.9416      29 -51.9416      30 -51.9416
      31 -51.9416      32 -51.9416      33 -15.1187      34 -15.1187      35 -15.1187
      36 -15.1187      37 -15.1187      38 -15.1187      39 -15.1187      40 -15.1187
      41 -15.1187      42 -15.1187      43 -15.1187      44 -15.1187      45 -15.1187
      46 -15.1187      47 -15.1187      48 -15.1187      49 -15.1187      50 -15.1187
      51 -15.1187      52 -15.1187      53 -15.1187      54 -15.1187      55 -15.1187
      56 -15.1187      57 -15.1187      58 -15.1187      59 -15.1187      60 -15.1187
      61 -15.1187      62 -15.1187      63 -15.1187      64 -15.1187
 
 
 
 E-fermi :   2.2804     XC(G=0):  -8.9252     alpha+bet : -8.0279

 val. band max:        2.2779710448   @ k =   0.0000   0.0000   0.0000
 cond. band min:       2.3316992041   @ k =   0.0000   0.0000   0.0000
 fundamental gap:      0.0537281593
 Fermi energy:         2.2804016270

 k-point     1 :       0.0000    0.0000    0.0000
  band No.  band energies     occupation 
      1     -10.0269      2.00000
      2      -9.2508      2.00000
      3      -9.2508      2.00000
      4      -9.2223      2.00000
      5      -9.2223      2.00000
      6      -9.2223      2.00000
      7      -9.2223      2.00000
      8      -8.6402      2.00000
      9      -8.6402      2.00000
     10      -8.6402      2.00000
     11      -8.6402      2.00000
     12      -8.6402      2.00000
     13      -8.6402      2.00000
     14      -8.6402      2.00000
     15      -8.6402      2.00000
     16      -8.6296      2.00000
     17      -8.6296      2.00000
     18      -8.6296      2.00000
     19      -8.6296      2.00000
     20      -8.5519      2.00000
     21      -8.5519      2.00000
     22      -8.5519      2.00000
     23      -8.5519      2.00000
     24      -7.9594      2.00000
     25      -7.8899      2.00000
     26      -7.8899      2.00000
     27      -7.8889      2.00000
     28      -7.8889      2.00000
     29      -7.8889      2.00000
     30      -7.8889      2.00000
     31      -7.8596      2.00000
     32      -7.8596      2.00000
     33      -4.3467      2.00000
     34      -4.2204      2.00000
     35      -4.2204      2.00000
     36      -4.1069      2.00000
     37      -4.1069      2.00000
     38      -4.1069      2.00000
     39      -4.1069      2.00000
     40      -4.0614      2.00000
     41      -4.0614      2.00000
     42      -4.0379      2.00000
     43      -4.0379      2.00000
     44      -4.0379      2.00000
     45      -4.0379      2.00000
     46      -3.2295      2.00000
     47      -3.2295      2.00000
     48      -3.2295      2.00000
     49      -3.2295      2.00000
     50      -3.1920      2.00000
     51      -3.1920      2.00000
     52      -3.1920      2.00000
     53      -3.1920      2.00000
     54      -3.1920      2.00000
     55      -3.1920      2.00000
     56      -3.1920      2.00000
     57      -3.1920      2.00000
     58      -1.8851      2.00000
     59      -1.8851      2.00000
     60      -1.7753      2.00000
     61      -1.7753      2.00000
     62      -1.7753      2.00000
     63      -1.7753      2.00000
[...]
   15.461812    0.378637    0.407589    0.407589    0.000000    0.000000    0.000000
   15.481584    0.380634    0.409230    0.409230    0.000000    0.000000    0.000000
   15.501356    0.382587    0.410825    0.410825    0.000000    0.000000    0.000000
   15.521128    0.384495    0.412377    0.412377    0.000000    0.000000    0.000000
   15.540900    0.386358    0.413897    0.413897    0.000000    0.000000    0.000000
   15.560672    0.388184    0.415400    0.415400    0.000000    0.000000    0.000000
   15.580444    0.389985    0.416901    0.416901    0.000000    0.000000    0.000000
   15.600216    0.391777    0.418412    0.418412    0.000000    0.000000    0.000000
   15.619989    0.393572    0.419942    0.419942    0.000000    0.000000    0.000000
   15.639761    0.395374    0.421500    0.421500    0.000000    0.000000    0.000000
   15.659533    0.397181    0.423087    0.423087    0.000000    0.000000    0.000000
   15.679305    0.398990    0.424704    0.424704    0.000000    0.000000    0.000000
   15.699077    0.400797    0.426346    0.426346    0.000000    0.000000    0.000000
   15.718849    0.402598    0.428012    0.428012    0.000000    0.000000    0.000000
   15.738621    0.404395    0.429695    0.429695    0.000000    0.000000    0.000000
   15.758394    0.406184    0.431393    0.431393    0.000000    0.000000    0.000000
   15.778166    0.407968    0.433100    0.433100    0.000000    0.000000    0.000000
   15.797938    0.409743    0.434811    0.434811    0.000000    0.000000    0.000000
   15.817710    0.411511    0.436520    0.436520    0.000000    0.000000    0.000000
   15.837482    0.413270    0.438224    0.438224    0.000000    0.000000    0.000000
   15.857254    0.415020    0.439919    0.439919    0.000000    0.000000    0.000000
   15.877026    0.416761    0.441605    0.441605    0.000000    0.000000    0.000000
   15.896799    0.418496    0.443286    0.443286    0.000000    0.000000    0.000000
   15.916571    0.420227    0.444971    0.444971    0.000000    0.000000    0.000000
   15.936343    0.421955    0.446663    0.446663    0.000000    0.000000    0.000000
   15.956115    0.423680    0.448362    0.448362    0.000000    0.000000    0.000000
   15.975887    0.425398    0.450063    0.450063    0.000000    0.000000    0.000000
   15.995659    0.427107    0.451764    0.451764    0.000000    0.000000    0.000000
   16.015431    0.428809    0.453461    0.453461    0.000000    0.000000    0.000000
   16.035204    0.430504    0.455155    0.455155    0.000000    0.000000    0.000000
   16.054976    0.432193    0.456843    0.456843    0.000000    0.000000    0.000000
   16.074748    0.433878    0.458525    0.458525    0.000000    0.000000    0.000000
   16.094520    0.435559    0.460200    0.460200    0.000000    0.000000    0.000000
   16.114292    0.437235    0.461866    0.461866    0.000000    0.000000    0.000000
   16.134064    0.438904    0.463522    0.463522    0.000000    0.000000    0.000000
   16.153836    0.440564    0.465166    0.465166    0.000000    0.000000    0.000000
   16.173608    0.442215    0.466798    0.466798    0.000000    0.000000    0.000000
   16.193381    0.443855    0.468418    0.468418    0.000000    0.000000    0.000000
   16.213153    0.445484    0.470025    0.470025    0.000000    0.000000    0.000000
   16.232925    0.447103    0.471620    0.471620    0.000000    0.000000    0.000000
   16.252697    0.448711    0.473203    0.473203    0.000000    0.000000    0.000000
   16.272469    0.450308    0.474774    0.474774    0.000000    0.000000    0.000000
   16.292241    0.451896    0.476335    0.476335    0.000000    0.000000    0.000000
   16.312013    0.453473    0.477884    0.477884    0.000000    0.000000    0.000000
   16.331786    0.455040    0.479422    0.479422    0.000000    0.000000    0.000000
   16.351558    0.456598    0.480949    0.480949    0.000000    0.000000    0.000000
   16.371330    0.458146    0.482467    0.482467    0.000000    0.000000    0.000000
   16.391102    0.459685    0.483974    0.483974    0.000000    0.000000    0.000000
   16.410874    0.461215    0.485471    0.485471    0.000000    0.000000    0.000000
   16.430646    0.462736    0.486959    0.486959    0.000000    0.000000    0.000000
   16.450418    0.464248    0.488437    0.488437    0.000000    0.000000    0.000000
   16.470191    0.465752    0.489905    0.489905    0.000000    0.000000    0.000000
   16.489963    0.467247    0.491365    0.491365    0.000000    0.000000    0.000000
   16.509735    0.468734    0.492815    0.492815    0.000000    0.000000    0.000000
   16.529507    0.470212    0.494256    0.494256    0.000000    0.000000    0.000000
   16.549279    0.471683    0.495689    0.495689    0.000000    0.000000    0.000000
   16.569051    0.473146    0.497113    0.497113    0.000000    0.000000    0.000000
   16.588823    0.474600    0.498529    0.498529    0.000000    0.000000    0.000000
   16.608596    0.476047    0.499936    0.499936    0.000000    0.000000    0.000000
   16.628368    0.477487    0.501336    0.501336    0.000000    0.000000    0.000000
   16.648140    0.478919    0.502727    0.502727    0.000000    0.000000    0.000000
   16.667912    0.480344    0.504111    0.504111    0.000000    0.000000    0.000000
   16.687684    0.481761    0.505487    0.505487    0.000000    0.000000    0.000000
   16.707456    0.483171    0.506855    0.506855    0.000000    0.000000    0.000000
   16.727228    0.484574    0.508216    0.508216    0.000000    0.000000    0.000000
   16.747000    0.485970    0.509570    0.509570    0.000000    0.000000    0.000000
   16.766773    0.487359    0.510916    0.510916    0.000000    0.000000    0.000000
   16.786545    0.488741    0.512256    0.512256    0.000000    0.000000    0.000000
   16.806317    0.490116    0.513588    0.513588    0.000000    0.000000    0.000000
   16.826089    0.491485    0.514913    0.514913    0.000000    0.000000    0.000000
   16.845861    0.492847    0.516232    0.516232    0.000000    0.000000    0.000000
   16.865633    0.494202    0.517544    0.517544    0.000000    0.000000    0.000000
   16.885405    0.495551    0.518849    0.518849    0.000000    0.000000    0.000000
   16.905178    0.496893    0.520148    0.520148    0.000000    0.000000    0.000000
   16.924950    0.498230    0.521440    0.521440    0.000000    0.000000    0.000000
   16.944722    0.499559    0.522726    0.522726    0.000000    0.000000    0.000000
   16.964494    0.500883    0.524005    0.524005    0.000000    0.000000    0.000000
   16.984266    0.502200    0.525278    0.525278    0.000000    0.000000    0.000000
   17.004038    0.503511    0.526545    0.526545    0.000000    0.000000    0.000000
   17.023810    0.504816    0.527806    0.527806    0.000000    0.000000    0.000000
   17.043583    0.506116    0.529060    0.529060    0.000000    0.000000    0.000000
   17.063355    0.507409    0.530309    0.530309    0.000000    0.000000    0.000000
   17.083127    0.508696    0.531551    0.531551    0.000000    0.000000    0.000000
   17.102899    0.509977    0.532788    0.532788    0.000000    0.000000    0.000000
   17.122671    0.511253    0.534019    0.534019    0.000000    0.000000    0.000000
   17.142443    0.512523    0.535244    0.535244    0.000000    0.000000    0.000000
   17.162215    0.513787    0.536464    0.536464    0.000000    0.000000    0.000000
   17.181987    0.515045    0.537677    0.537677    0.000000    0.000000    0.000000
   17.201760    0.516298    0.538886    0.538886    0.000000    0.000000    0.000000
   17.221532    0.517546    0.540088    0.540088    0.000000    0.000000    0.000000
   17.241304    0.518787    0.541285    0.541285    0.000000    0.000000    0.000000
   17.261076    0.520024    0.542477    0.542477    0.000000    0.000000    0.000000
   17.280848    0.521254    0.543663    0.543663    0.000000    0.000000    0.000000
   17.300620    0.522480    0.544844    0.544844    0.000000    0.000000    0.000000
   17.320392    0.523700    0.546019    0.546019    0.000000    0.000000    0.000000
   17.340165    0.524915    0.547190    0.547190    0.000000    0.000000    0.000000
   17.359937    0.526125    0.548355    0.548355    0.000000    0.000000    0.000000
   17.379709    0.527329    0.549514    0.549514    0.000000    0.000000    0.000000
   17.399481    0.528528    0.550669    0.550669    0.000000    0.000000    0.000000
   17.419253    0.529722    0.551819    0.551819    0.000000    0.000000    0.000000
   17.439025    0.530911    0.552963    0.552963    0.000000    0.000000    0.000000
   17.458797    0.532095    0.554103    0.554103    0.000000    0.000000    0.000000
   17.478570    0.533274    0.555237    0.555237    0.000000    0.000000    0.000000
   17.498342    0.534448    0.556367    0.556367    0.000000    0.000000    0.000000
   17.518114    0.535617    0.557492    0.557492    0.000000    0.000000    0.000000
   17.537886    0.536781    0.558611    0.558611    0.000000    0.000000    0.000000
   17.557658    0.537940    0.559726    0.559726    0.000000    0.000000    0.000000
   17.577430    0.539095    0.560837    0.560837    0.000000    0.000000    0.000000
   17.597202    0.540244    0.561942    0.561942    0.000000    0.000000    0.000000
   17.616975    0.541389    0.563043    0.563043    0.000000    0.000000    0.000000
   17.636747    0.542529    0.564139    0.564139    0.000000    0.000000    0.000000
   17.656519    0.543664    0.565230    0.565230    0.000000    0.000000    0.000000
   17.676291    0.544795    0.566317    0.566317    0.000000    0.000000    0.000000
   17.696063    0.545921    0.567400    0.567400    0.000000    0.000000    0.000000
   17.715835    0.547042    0.568477    0.568477    0.000000    0.000000    0.000000
   17.735607    0.548159    0.569551    0.569551    0.000000    0.000000    0.000000
   17.755379    0.549271    0.570619    0.570619    0.000000    0.000000    0.000000
   17.775152    0.550379    0.571684    0.571684    0.000000    0.000000    0.000000
   17.794924    0.551482    0.572743    0.572743    0.000000    0.000000    0.000000
   17.814696    0.552581    0.573799    0.573799    0.000000    0.000000    0.000000
   17.834468    0.553675    0.574850    0.574850    0.000000    0.000000    0.000000
   17.854240    0.554765    0.575897    0.575897    0.000000    0.000000    0.000000
   17.874012    0.555851    0.576940    0.576940    0.000000    0.000000    0.000000
   17.893784    0.556932    0.577978    0.577978    0.000000    0.000000    0.000000
   17.913557    0.558009    0.579012    0.579012    0.000000    0.000000    0.000000
   17.933329    0.559082    0.580042    0.580042    0.000000    0.000000    0.000000
   17.953101    0.560150    0.581068    0.581068    0.000000    0.000000    0.000000
   17.972873    0.561214    0.582089    0.582089    0.000000    0.000000    0.000000
   17.992645    0.562274    0.583107    0.583107    0.000000    0.000000    0.000000
   18.012417    0.563330    0.584120    0.584120    0.000000    0.000000    0.000000
   18.032189    0.564382    0.585129    0.585129    0.000000    0.000000    0.000000
   18.051962    0.565429    0.586134    0.586134    0.000000    0.000000    0.000000
   18.071734    0.566472    0.587136    0.587136    0.000000    0.000000    0.000000
   18.091506    0.567512    0.588133    0.588133    0.000000    0.000000    0.000000
   18.111278    0.568547    0.589126    0.589126    0.000000    0.000000    0.000000
   18.131050    0.569578    0.590116    0.590116    0.000000    0.000000    0.000000
   18.150822    0.570606    0.591101    0.591101    0.000000    0.000000    0.000000
   18.170594    0.571629    0.592083    0.592083    0.000000    0.000000    0.000000
   18.190367    0.572648    0.593060    0.593060    0.000000    0.000000    0.000000
   18.210139    0.573664    0.594034    0.594034    0.000000    0.000000    0.000000
   18.229911    0.574675    0.595004    0.595004    0.000000    0.000000    0.000000
   18.249683    0.575683    0.595970    0.595970    0.000000    0.000000    0.000000
   18.269455    0.576686    0.596933    0.596933    0.000000    0.000000    0.000000
   18.289227    0.577686    0.597892    0.597892    0.000000    0.000000    0.000000
   18.308999    0.578682    0.598847    0.598847    0.000000    0.000000    0.000000
   18.328771    0.579675    0.599798    0.599798    0.000000    0.000000    0.000000
   18.348544    0.580663    0.600746    0.600746    0.000000    0.000000    0.000000
   18.368316    0.581648    0.601690    0.601690    0.000000    0.000000    0.000000
   18.388088    0.582629    0.602630    0.602630    0.000000    0.000000    0.000000
   18.407860    0.583607    0.603567    0.603567    0.000000    0.000000    0.000000
   18.427632    0.584580    0.604500    0.604500    0.000000    0.000000    0.000000
   18.447404    0.585550    0.605430    0.605430    0.000000    0.000000    0.000000
   18.467176    0.586517    0.606356    0.606356    0.000000    0.000000    0.000000
   18.486949    0.587480    0.607279    0.607279    0.000000    0.000000    0.000000
   18.506721    0.588439    0.608198    0.608198    0.000000    0.000000    0.000000
   18.526493    0.589394    0.609114    0.609114    0.000000    0.000000    0.000000
   18.546265    0.590346    0.610026    0.610026    0.000000    0.000000    0.000000
   18.566037    0.591295    0.610935    0.610935    0.000000    0.000000    0.000000
   18.585809    0.592240    0.611840    0.611840    0.000000    0.000000    0.000000
   18.605581    0.593182    0.612742    0.612742    0.000000    0.000000    0.000000
   18.625354    0.594120    0.613640    0.613640    0.000000    0.000000    0.000000
   18.645126    0.595054    0.614536    0.614536    0.000000    0.000000    0.000000
   18.664898    0.595985    0.615427    0.615427    0.000000    0.000000    0.000000
   18.684670    0.596913    0.616316    0.616316    0.000000    0.000000    0.000000
   18.704442    0.597837    0.617201    0.617201    0.000000    0.000000    0.000000
   18.724214    0.598758    0.618083    0.618083    0.000000    0.000000    0.000000
   18.743986    0.599676    0.618962    0.618962    0.000000    0.000000    0.000000
   18.763758    0.600590    0.619837    0.619837    0.000000    0.000000    0.000000
   18.783531    0.601501    0.620710    0.620710    0.000000    0.000000    0.000000
   18.803303    0.602409    0.621579    0.621579    0.000000    0.000000    0.000000
   18.823075    0.603313    0.622444    0.622444    0.000000    0.000000    0.000000
   18.842847    0.604214    0.623307    0.623307    0.000000    0.000000    0.000000
   18.862619    0.605112    0.624166    0.624166    0.000000    0.000000    0.000000
   18.882391    0.606007    0.625023    0.625023    0.000000    0.000000    0.000000
   18.902163    0.606898    0.625876    0.625876    0.000000    0.000000    0.000000
   18.921936    0.607786    0.626726    0.626726    0.000000    0.000000    0.000000
   18.941708    0.608671    0.627573    0.627573    0.000000    0.000000    0.000000
   18.961480    0.609553    0.628417    0.628417    0.000000    0.000000    0.000000
   18.981252    0.610432    0.629258    0.629258    0.000000    0.000000    0.000000
   19.001024    0.611307    0.630096    0.630096    0.000000    0.000000    0.000000
   19.020796    0.612180    0.630931    0.630931    0.000000    0.000000    0.000000
   19.040568    0.613049    0.631763    0.631763    0.000000    0.000000    0.000000
   19.060341    0.613915    0.632592    0.632592    0.000000    0.000000    0.000000
   19.080113    0.614778    0.633418    0.633418    0.000000    0.000000    0.000000
   19.099885    0.615638    0.634241    0.634241    0.000000    0.000000    0.000000
   19.119657    0.616496    0.635061    0.635061    0.000000    0.000000    0.000000
   19.139429    0.617350    0.635878    0.635878    0.000000    0.000000    0.000000
   19.159201    0.618201    0.636692    0.636692    0.000000    0.000000    0.000000
   19.178973    0.619049    0.637503    0.637503    0.000000    0.000000    0.000000
   19.198746    0.619894    0.638311    0.638311    0.000000    0.000000    0.000000
   19.218518    0.620736    0.639117    0.639117    0.000000    0.000000    0.000000
   19.238290    0.621575    0.639920    0.639920    0.000000    0.000000    0.000000
   19.258062    0.622411    0.640720    0.640720    0.000000    0.000000    0.000000
   19.277834    0.623245    0.641517    0.641517    0.000000    0.000000    0.000000
   19.297606    0.624075    0.642311    0.642311    0.000000    0.000000    0.000000
   19.317378    0.624903    0.643102    0.643102    0.000000    0.000000    0.000000
   19.337150    0.625727    0.643891    0.643891    0.000000    0.000000    0.000000
   19.356923    0.626549    0.644677    0.644677    0.000000    0.000000    0.000000
   19.376695    0.627368    0.645460    0.645460    0.000000    0.000000    0.000000
   19.396467    0.628184    0.646241    0.646241    0.000000    0.000000    0.000000
   19.416239    0.628998    0.647018    0.647018    0.000000    0.000000    0.000000
   19.436011    0.629808    0.647793    0.647793    0.000000    0.000000    0.000000
   19.455783    0.630616    0.648566    0.648566    0.000000    0.000000    0.000000
   19.475555    0.631421    0.649335    0.649335    0.000000    0.000000    0.000000
   19.495328    0.632223    0.650102    0.650102    0.000000    0.000000    0.000000
   19.515100    0.633023    0.650867    0.650867    0.000000    0.000000    0.000000
   19.534872    0.633820    0.651628    0.651628    0.000000    0.000000    0.000000
   19.554644    0.634614    0.652388    0.652388    0.000000    0.000000    0.000000
   19.574416    0.635405    0.653144    0.653144    0.000000    0.000000    0.000000
   19.594188    0.636194    0.653898    0.653898    0.000000    0.000000    0.000000
   19.613960    0.636980    0.654649    0.654649    0.000000    0.000000    0.000000
   19.633733    0.637763    0.655398    0.655398    0.000000    0.000000    0.000000
   19.653505    0.638544    0.656144    0.656144    0.000000    0.000000    0.000000
   19.673277    0.639322    0.656888    0.656888    0.000000    0.000000    0.000000
   19.693049    0.640097    0.657629    0.657629    0.000000    0.000000    0.000000
   19.712821    0.640870    0.658367    0.658367    0.000000    0.000000    0.000000
   19.732593    0.641640    0.659103    0.659103    0.000000    0.000000    0.000000
   19.752365    0.642408    0.659837    0.659837    0.000000    0.000000    0.000000
 
 The outermost node in the dielectric function lies at epsilon=  14.7


--------------------------------------------------------------------------------------------------------


    OPTICS:  cpu time     35.6147: real time     36.1441
    4ORBIT:  cpu time      0.0000: real time      0.0000
 BZINTS: Fermi energy:    2.279871;  256.000000 electrons
         Band energy:-0.728579E+03;  BLOECHL correction:    0.000000

 total amount of memory used by VASP MPI-rank0   364813. kBytes
=======================================================================

   base      :      30000. kBytes
   nonl-proj :     133923. kBytes
   fftplans  :       7212. kBytes
   grid      :      18251. kBytes
   one-center:        519. kBytes
   wavefun   :     174908. kBytes
 
  
  
 General timing and accounting informations for this job:
 ========================================================
  
                  Total CPU time used (sec):    11335.031
                            User time (sec):    11016.358
                          System time (sec):      318.674
                         Elapsed time (sec):    11479.129
  
                   Maximum memory used (kb):     1907768.
                   Average memory used (kb):          N/A
  
                          Minor page faults:       176118
                          Major page faults:          212
                 Voluntary context switches:        20989
