 running    8 mpi-ranks, on    1 nodes
 distrk:  each k-point on    8 cores,    1 groups
 distr:  one band on    1 cores,    8 groups
 vasp.6.4.3 19Mar24 (build Aug 29 2024 15:27:20) complex                        
  
 POSCAR found type information on POSCAR AsGa
 POSCAR found :  2 types and      64 ions
 scaLAPACK will be used
 -----------------------------------------------------------------------------
|                                                                             |
|           W    W    AA    RRRRR   N    N  II  N    N   GGGG   !!!           |
|           W    W   A  A   R    R  NN   N  II  NN   N  G    G  !!!           |
|           W    W  A    A  R    R  N N  N  II  N N  N  G       !!!           |
|           W WW W  AAAAAA  RRRRR   N  N N  II  N  N N  G  GGG   !            |
|           WW  WW  A    A  R   R   N   NN  II  N   NN  G    G                |
|           W    W  A    A  R    R  N    N  II  N    N   GGGG   !!!           |
|                                                                             |
|     For optimal performance we recommend to set                             |
|       NCORE = 2 up to number-of-cores-per-socket                            |
|     NCORE specifies how many cores store one orbital (NPAR=cpu/NCORE).      |
|     This setting can greatly improve the performance of VASP for DFT.       |
|     The default, NCORE=1 might be grossly inefficient on modern             |
|     multi-core architectures or massively parallel machines. Do your        |
|     own testing! More info at https://www.vasp.at/wiki/index.php/NCORE      |
|     Unfortunately you need to use the default for GW and RPA                |
|     calculations (for HF NCORE is supported but not extensively tested      |
|     yet).                                                                   |
|                                                                             |
 -----------------------------------------------------------------------------

 -----------------------------------------------------------------------------
|                                                                             |
|               ----> ADVICE to this user running VASP <----                  |
|                                                                             |
|     You have a (more or less) 'large supercell' and for larger cells it     |
|     might be more efficient to use real-space projection operators.         |
|     Therefore, try LREAL= Auto in the INCAR file.                           |
|     Mind: For very accurate calculation, you might also keep the            |
|     reciprocal projection scheme (i.e. LREAL=.FALSE.).                      |
|                                                                             |
 -----------------------------------------------------------------------------

 LDA part: xc-table for (Slater+PW92), standard interpolation
 POSCAR, INCAR and KPOINTS ok, starting setup
 FFT: planning ... GRIDC
 FFT: planning ... GRID_SOFT
 FFT: planning ... GRID
 WAVECAR not read
 entering main loop
       N       E                     dE             d eps       ncg     rms          rms(c)
DAV:   1     0.933949797268E+03    0.93395E+03   -0.80766E+04  6048   0.101E+03
DAV:   2    -0.166399709736E+03   -0.11003E+04   -0.10485E+04  7192   0.169E+02
DAV:   3    -0.267527509519E+03   -0.10113E+03   -0.99740E+02  7440   0.522E+01
DAV:   4    -0.270017958997E+03   -0.24904E+01   -0.24622E+01  7272   0.859E+00
DAV:   5    -0.270091795822E+03   -0.73837E-01   -0.73584E-01  7456   0.130E+00    0.200E+01
DAV:   6    -0.265925374723E+03    0.41664E+01   -0.65447E+00  7016   0.358E+00    0.117E+01
DAV:   7    -0.265112946288E+03    0.81243E+00   -0.43002E+00  7304   0.298E+00    0.244E+00
DAV:   8    -0.265071356371E+03    0.41590E-01   -0.50714E-01  7064   0.109E+00    0.614E-01
DAV:   9    -0.265083096130E+03   -0.11740E-01   -0.35915E-02  6944   0.393E-01    0.232E-01
DAV:  10    -0.265084206008E+03   -0.11099E-02   -0.99997E-04  7536   0.602E-02    0.108E-01
DAV:  11    -0.265085527567E+03   -0.13216E-02   -0.22363E-03  6560   0.876E-02    0.504E-02
DAV:  12    -0.265085534275E+03   -0.67082E-05   -0.32798E-05  7408   0.118E-02    0.225E-02
DAV:  13    -0.265085543332E+03   -0.90567E-05   -0.80375E-05  6944   0.134E-02    0.970E-03
DAV:  14    -0.265085542722E+03    0.60949E-06   -0.41730E-06  6000   0.394E-03
 Linear response reoptimize wavefunctions to high precision
DAV:   1    -0.265085543240E+03   -0.51746E-06   -0.21758E-06  7248   0.196E-03
DAV:   2    -0.265085543249E+03   -0.92223E-08   -0.89342E-08  6056   0.553E-04
DAV:   3    -0.265085543249E+03   -0.94587E-10   -0.16942E-09  3752   0.808E-05
 Linear response G [H, r] |phi>, progress :
  Direction:   1
       N       E                     dE             d eps       ncg     rms
RMM:   1    -0.127268214655E+04   -0.12727E+04    0.17742E+03 14202   0.838E+01
RMM:   2    -0.109844108681E+04    0.17424E+03   -0.20522E+02  9792   0.227E+01
RMM:   3    -0.110063675599E+04   -0.21957E+01   -0.99942E+00 10087   0.379E+00
RMM:   4    -0.110075492764E+04   -0.11817E+00   -0.29896E-01 10491   0.672E-01
RMM:   5    -0.110075855069E+04   -0.36230E-02   -0.19713E-02 10518   0.144E-01
RMM:   6    -0.110075880412E+04   -0.25343E-03   -0.48354E-03 11085   0.394E-02
RMM:   7    -0.110075878063E+04    0.23494E-04   -0.35615E-03 11548   0.199E-02
RMM:   8    -0.110075878688E+04   -0.62537E-05   -0.35657E-03 12265   0.168E-02
RMM:   9    -0.110075878579E+04    0.10950E-05   -0.31213E-03 12420   0.163E-02
RMM:  10    -0.110075878437E+04    0.14219E-05   -0.36797E-03 12637   0.163E-02
RMM:  11    -0.110075878423E+04    0.13333E-06   -0.34557E-03 12930   0.163E-02
 Linear response G [H, r] |phi>, progress :
  Direction:   2
       N       E                     dE             d eps       ncg     rms
RMM:   1    -0.125730194263E+04   -0.12573E+04    0.18238E+03 14292   0.838E+01
RMM:   2    -0.110830782245E+04    0.14899E+03   -0.20610E+02  9751   0.227E+01
RMM:   3    -0.111026851188E+04   -0.19607E+01   -0.10597E+01 10080   0.377E+00
RMM:   4    -0.111034022885E+04   -0.71717E-01   -0.72105E-01 10487   0.662E-01
RMM:   5    -0.111031374776E+04    0.26481E-01   -0.14633E-01 10478   0.144E-01
RMM:   6    -0.111030427078E+04    0.94770E-02   -0.32542E-02 11042   0.397E-02
RMM:   7    -0.111030212908E+04    0.21417E-02   -0.98677E-03 11557   0.203E-02
RMM:   8    -0.111030156882E+04    0.56026E-03   -0.46605E-03 12255   0.171E-02
RMM:   9    -0.111030151460E+04    0.54214E-04   -0.32168E-03 12424   0.167E-02
RMM:  10    -0.111030136284E+04    0.15176E-03   -0.17217E-03 12706   0.166E-02
RMM:  11    -0.111030147753E+04   -0.11468E-03   -0.27982E-03 12996   0.166E-02
 Linear response G [H, r] |phi>, progress :
  Direction:   3
       N       E                     dE             d eps       ncg     rms
RMM:   1    -0.137640394760E+04   -0.13764E+04    0.14730E+03 14653   0.858E+01
RMM:   2    -0.111344016896E+04    0.26296E+03   -0.23779E+02  9780   0.241E+01
RMM:   3    -0.111554653071E+04   -0.21064E+01   -0.11911E+01 10089   0.401E+00
RMM:   4    -0.111564099485E+04   -0.94464E-01   -0.74113E-01 10523   0.696E-01
RMM:   5    -0.111561448311E+04    0.26512E-01   -0.15192E-01 10502   0.150E-01
RMM:   6    -0.111560489383E+04    0.95893E-02   -0.35267E-02 11028   0.415E-02
RMM:   7    -0.111560271274E+04    0.21811E-02   -0.12205E-02 11588   0.216E-02
RMM:   8    -0.111560238703E+04    0.32571E-03   -0.91135E-03 12303   0.183E-02
RMM:   9    -0.111560216702E+04    0.22001E-03   -0.69715E-03 12462   0.179E-02
RMM:  10    -0.111560247318E+04   -0.30616E-03   -0.87423E-03 12731   0.178E-02
RMM:  11    -0.111560193309E+04    0.54009E-03   -0.44010E-03 13023   0.178E-02
 Linear response to external field, progress :
  Direction:   1
       N       E                     dE             d eps       ncg     rms          rms(c)
RMM:   1    -0.104975292389E+03   -0.10498E+03   -0.77506E+02 15509   0.672E+00
RMM:   2    -0.226364483752E+03   -0.12139E+03   -0.73216E+00 14759   0.149E+00    0.120E+01
RMM:   3    -0.223329743387E+03    0.30347E+01   -0.12602E+00 14663   0.170E+00    0.699E+00
RMM:   4    -0.215345227755E+03    0.79845E+01   -0.17969E+00 14204   0.227E+00    0.795E-01
RMM:   5    -0.214605608490E+03    0.73962E+00   -0.77708E-02 15002   0.471E-01    0.143E-01
RMM:   6    -0.214546871512E+03    0.58737E-01   -0.37200E-03 15385   0.945E-02    0.800E-02
RMM:   7    -0.214476190620E+03    0.70681E-01   -0.17047E-03 15007   0.675E-02    0.250E-02
RMM:   8    -0.214460990693E+03    0.15200E-01   -0.49839E-04 15471   0.123E-02    0.710E-03
RMM:   9    -0.214466587771E+03   -0.55971E-02   -0.15329E-04 15766   0.695E-03    0.147E-03
RMM:  10    -0.214466029827E+03    0.55794E-03   -0.10556E-04 16274   0.230E-03    0.433E-04
RMM:  11    -0.214466042096E+03   -0.12270E-04   -0.10218E-04 15709   0.203E-03    0.975E-05
RMM:  12    -0.214466059181E+03   -0.17085E-04   -0.99421E-05 14069   0.190E-03    0.317E-05
RMM:  13    -0.214466042978E+03    0.16203E-04   -0.10247E-04 14130   0.189E-03    0.883E-06
 change of polarisation eV/A/(eV/A) component  1 :   448.293    -8.453   -12.570
 dielectric tensor                  component  1 :    53.625    -0.992    -1.476
 Linear response to external field, progress :
  Direction:   2
       N       E                     dE             d eps       ncg     rms          rms(c)
RMM:   1    -0.348669089768E+03   -0.34867E+03   -0.29235E+03 22653   0.686E+00
RMM:   2    -0.551447009833E+04   -0.51658E+04   -0.12500E+02 21441   0.156E+00    0.329E+01
RMM:   3    -0.548338793115E+04    0.31082E+02   -0.18934E+01 20521   0.534E+00    0.184E+01
RMM:   4    -0.544383452040E+04    0.39553E+02   -0.17144E+01 20368   0.607E+00    0.193E+00
RMM:   5    -0.543888311090E+04    0.49514E+01   -0.97893E-01 21767   0.153E+00    0.595E-01
RMM:   6    -0.543742728751E+04    0.14558E+01   -0.10850E-01 22192   0.306E-01    0.286E-01
RMM:   7    -0.543710495687E+04    0.32233E+00   -0.42483E-02 21954   0.153E-01    0.389E-02
RMM:   8    -0.543696309513E+04    0.14186E+00   -0.14749E-02 22720   0.292E-02    0.234E-02
RMM:   9    -0.543695506746E+04    0.80277E-02   -0.79554E-03 22555   0.186E-02    0.391E-03
RMM:  10    -0.543695238821E+04    0.26793E-02   -0.36659E-03 23628   0.505E-03    0.129E-03
RMM:  11    -0.543695286931E+04   -0.48110E-03   -0.13404E-03 24772   0.390E-03    0.299E-04
RMM:  12    -0.543695282385E+04    0.45462E-04   -0.37229E-04 25495   0.332E-03    0.130E-04
RMM:  13    -0.543695273952E+04    0.84330E-04   -0.10864E-04 25873   0.328E-03    0.409E-05
RMM:  14    -0.543695280210E+04   -0.62588E-04   -0.22289E-04 26368   0.328E-03    0.192E-05
RMM:  15    -0.543695279216E+04    0.99441E-05   -0.11269E-04 26989   0.327E-03    0.292E-06
 change of polarisation eV/A/(eV/A) component  2 :    -4.370 10972.389   -13.857
 dielectric tensor                  component  2 :    -0.513  1289.046    -1.627
 Linear response to external field, progress :
  Direction:   3
       N       E                     dE             d eps       ncg     rms          rms(c)
RMM:   1    -0.348664422224E+03   -0.34866E+03   -0.29235E+03 22659   0.686E+00
RMM:   2    -0.551446713309E+04   -0.51658E+04   -0.12500E+02 21427   0.155E+00    0.329E+01
RMM:   3    -0.548338509889E+04    0.31082E+02   -0.18937E+01 20524   0.534E+00    0.184E+01
RMM:   4    -0.544383220082E+04    0.39553E+02   -0.17144E+01 20361   0.607E+00    0.193E+00
RMM:   5    -0.543887861275E+04    0.49536E+01   -0.97805E-01 21772   0.153E+00    0.595E-01
RMM:   6    -0.543742224649E+04    0.14564E+01   -0.10190E-01 22197   0.306E-01    0.286E-01
RMM:   7    -0.543709927707E+04    0.32297E+00   -0.39609E-02 21941   0.153E-01    0.389E-02
RMM:   8    -0.543695910688E+04    0.14017E+00   -0.13736E-02 22723   0.292E-02    0.234E-02
RMM:   9    -0.543695111714E+04    0.79897E-02   -0.78481E-03 22553   0.186E-02    0.391E-03
RMM:  10    -0.543694858889E+04    0.25282E-02   -0.32197E-03 23629   0.505E-03    0.128E-03
RMM:  11    -0.543694913318E+04   -0.54429E-03   -0.12595E-03 24736   0.390E-03    0.299E-04
RMM:  12    -0.543694912824E+04    0.49416E-05   -0.56437E-04 25505   0.331E-03    0.131E-04
RMM:  13    -0.543694904900E+04    0.79242E-04   -0.17792E-04 25892   0.328E-03    0.407E-05
RMM:  14    -0.543694909912E+04   -0.50123E-04   -0.14064E-04 26428   0.327E-03    0.192E-05
RMM:  15    -0.543694909930E+04   -0.17731E-06   -0.15974E-04 27044   0.327E-03    0.265E-06
 change of polarisation eV/A/(eV/A) component  3 :   -11.245    -3.761 10972.383
 dielectric tensor                  component  3 :    -1.320    -0.442  1289.045
 Born effective charges drift removed
   1 F= -.26508554E+03 E0= -.26508554E+03  d E =-.265086E+03
 curvature:   0.00 expect dE= 0.000E+00 dE for cont linesearch  0.000E+00
 trial: gam= 0.00000 g(F)=  0.556E-58 g(S)=  0.000E+00 ort = 0.000E+00 (trialstep = 0.100E+01)
 search vector abs. value=  0.100E-09
 reached required accuracy - stopping structural energy minimisation
 writing wavefunctions
 optical routines
 imaginary and real dielectric function
 recalculating local potential from charge density
 direction            1
 direction            2
 direction            3
