<?xml version="1.0" encoding="ISO-8859-1"?>
<modeling>
 <generator>
  <i name="program" type="string">vasp </i>
  <i name="version" type="string">6.4.3  </i>
  <i name="subversion" type="string">19Mar24 (build Aug 29 2024 15:27:20) complex                          parallel </i>
  <i name="platform" type="string">LinuxIFC </i>
  <i name="date" type="string">2025 03 24 </i>
  <i name="time" type="string">15:26:28 </i>
 </generator>
 <incar>
  <i type="string" name="SYSTEM">GaAs</i>
  <i type="string" name="PREC">Normal</i>
  <i type="int" name="IBRION">     2</i>
  <i type="int" name="NFREE">     2</i>
  <i type="int" name="NSW">   100</i>
  <i type="int" name="ISIF">     2</i>
  <i name="ENCUT">    400.00000000</i>
  <i name="POTIM">      0.10000000</i>
  <i type="int" name="ISMEAR">    -5</i>
  <i name="SIGMA">      0.10000000</i>
  <i type="logical" name="LOPTICS"> T  </i>
  <i type="logical" name="LEPSILON"> T  </i>
 </incar>
 <primitive_cell>
  <structure name="primitive_cell" >
   <crystal>
    <varray name="basis" >
     <v>       2.93212971       0.00000000       2.86606674 </v>
     <v>       2.93212971       0.00000000      -2.86606674 </v>
     <v>      -2.93212971       2.86606674       0.00000000 </v>
    </varray>
    <i name="volume">     48.17101210 </i>
    <varray name="rec_basis" >
     <v>       0.17052452       0.17445511       0.17445511 </v>
     <v>       0.17052452       0.17445511      -0.17445511 </v>
     <v>       0.00000000       0.34891023       0.00000000 </v>
    </varray>
   </crystal>
   <varray name="positions" >
    <v>       0.00000000       0.00000000       0.00000000 </v>
    <v>       0.75000000       0.25000000       0.50000000 </v>
   </varray>
  </structure>
  <varray name="primitive_index" >
   <v type="int" >        1 </v>
   <v type="int" >       33 </v>
  </varray>
 </primitive_cell>
 <kpoints>
  <generation param="Gamma">
   <v type="int" name="divisions">       5        5        5 </v>
   <v name="usershift">      0.00000000       0.00000000       0.00000000 </v>
   <v name="genvec1">      0.20000000       0.00000000       0.00000000 </v>
   <v name="genvec2">      0.00000000       0.20000000       0.00000000 </v>
   <v name="genvec3">      0.00000000       0.00000000       0.20000000 </v>
   <v name="shift">      0.00000000       0.00000000       0.00000000 </v>
  </generation>
  <varray name="kpointlist" >
   <v>       0.00000000       0.00000000       0.00000000 </v>
   <v>       0.20000000       0.00000000       0.00000000 </v>
   <v>       0.40000000       0.00000000       0.00000000 </v>
   <v>       0.00000000       0.20000000       0.00000000 </v>
   <v>       0.20000000       0.20000000       0.00000000 </v>
   <v>       0.40000000       0.20000000       0.00000000 </v>
   <v>       0.00000000       0.40000000       0.00000000 </v>
   <v>       0.20000000       0.40000000       0.00000000 </v>
   <v>       0.40000000       0.40000000       0.00000000 </v>
   <v>       0.00000000       0.20000000       0.20000000 </v>
   <v>       0.20000000       0.20000000       0.20000000 </v>
   <v>       0.40000000       0.20000000       0.20000000 </v>
   <v>       0.00000000       0.40000000       0.20000000 </v>
   <v>       0.20000000       0.40000000       0.20000000 </v>
   <v>       0.40000000       0.40000000       0.20000000 </v>
   <v>       0.00000000       0.40000000       0.40000000 </v>
   <v>       0.20000000       0.40000000       0.40000000 </v>
   <v>       0.40000000       0.40000000       0.40000000 </v>
  </varray>
  <varray name="weights" >
   <v>       0.00800000 </v>
   <v>       0.01600000 </v>
   <v>       0.01600000 </v>
   <v>       0.03200000 </v>
   <v>       0.06400000 </v>
   <v>       0.06400000 </v>
   <v>       0.03200000 </v>
   <v>       0.06400000 </v>
   <v>       0.06400000 </v>
   <v>       0.03200000 </v>
   <v>       0.06400000 </v>
   <v>       0.06400000 </v>
   <v>       0.06400000 </v>
   <v>       0.12800000 </v>
   <v>       0.12800000 </v>
   <v>       0.03200000 </v>
   <v>       0.06400000 </v>
   <v>       0.06400000 </v>
  </varray>
  <varray name="tetrahedronlist"  type="int" >
   <v type="int" >        4       11       12       14       15 </v>
   <v type="int" >        4       11       14       14       15 </v>
   <v type="int" >        8       14       14       15       17 </v>
   <v type="int" >        4       12       14       15       15 </v>
   <v type="int" >        8       14       15       15       18 </v>
   <v type="int" >        4       14       15       17       18 </v>
   <v type="int" >        2       12       12       15       15 </v>
   <v type="int" >        4       12       15       15       15 </v>
   <v type="int" >       12       15       15       15       18 </v>
   <v type="int" >       10       15       15       18       18 </v>
   <v type="int" >        4       10       11       13       14 </v>
   <v type="int" >        4       11       13       14       14 </v>
   <v type="int" >        8       13       14       14       17 </v>
   <v type="int" >        4       10       13       13       14 </v>
   <v type="int" >        8       13       13       14       16 </v>
   <v type="int" >        4       13       14       16       17 </v>
   <v type="int" >        4       14       15       15       17 </v>
   <v type="int" >        4       14       15       17       17 </v>
   <v type="int" >        4       15       15       17       18 </v>
   <v type="int" >        4       15       17       18       18 </v>
   <v type="int" >        4       15       17       17       18 </v>
   <v type="int" >        8       15       18       18       18 </v>
   <v type="int" >        4       14       14       15       18 </v>
   <v type="int" >        4       14       15       18       18 </v>
   <v type="int" >        4       14       14       17       18 </v>
   <v type="int" >        4       14       17       17       18 </v>
   <v type="int" >        4       14       17       18       18 </v>
   <v type="int" >        4       13       13       14       17 </v>
   <v type="int" >        4       13       14       17       17 </v>
   <v type="int" >        4       13       13       16       17 </v>
   <v type="int" >        4       13       16       16       17 </v>
   <v type="int" >        4       13       16       17       17 </v>
   <v type="int" >        4       13       14       14       16 </v>
   <v type="int" >        4       13       14       16       16 </v>
   <v type="int" >        4       14       14       16       17 </v>
   <v type="int" >        4       14       16       17       17 </v>
   <v type="int" >        4       14       16       16       17 </v>
   <v type="int" >        4       12       14       15       17 </v>
   <v type="int" >        4       11       12       14       17 </v>
   <v type="int" >        4       12       15       17       18 </v>
   <v type="int" >        4       12       15       15       18 </v>
   <v type="int" >        4       12       12       15       18 </v>
   <v type="int" >        4       12       15       18       18 </v>
   <v type="int" >        4       11       14       15       18 </v>
   <v type="int" >        4       11       12       15       18 </v>
   <v type="int" >        4       11       14       17       18 </v>
   <v type="int" >        4       10       13       14       17 </v>
   <v type="int" >        4       10       11       14       17 </v>
   <v type="int" >        4       10       13       16       17 </v>
   <v type="int" >        4       11       13       14       16 </v>
   <v type="int" >        4       10       11       13       16 </v>
   <v type="int" >        4       11       14       16       17 </v>
   <v type="int" >        4        6       11       12       14 </v>
   <v type="int" >        4        5        6       11       14 </v>
   <v type="int" >        4        5        6        8       14 </v>
   <v type="int" >        4        6       12       14       15 </v>
   <v type="int" >        4        6        9       14       15 </v>
   <v type="int" >        4        6        8        9       14 </v>
   <v type="int" >        4        6       12       12       15 </v>
   <v type="int" >        4        6        6       12       15 </v>
   <v type="int" >        4        6        6        9       15 </v>
   <v type="int" >        4        6       12       15       15 </v>
   <v type="int" >        4        6        9       15       15 </v>
   <v type="int" >        4        6        9        9       15 </v>
   <v type="int" >        4        5       11       12       15 </v>
   <v type="int" >        4        5        6       12       15 </v>
   <v type="int" >        4        5        6        9       15 </v>
   <v type="int" >        4        5       11       14       15 </v>
   <v type="int" >        4        5        8       14       15 </v>
   <v type="int" >        4        5        8        9       15 </v>
   <v type="int" >        4        4       10       11       14 </v>
   <v type="int" >        4        4        5       11       14 </v>
   <v type="int" >        4        4        5        8       14 </v>
   <v type="int" >        4        4       10       13       14 </v>
   <v type="int" >        4        4        7       13       14 </v>
   <v type="int" >        4        4        7        8       14 </v>
   <v type="int" >        4        5       10       11       13 </v>
   <v type="int" >        4        4        5       10       13 </v>
   <v type="int" >        4        4        5        7       13 </v>
   <v type="int" >        4        5       11       13       14 </v>
   <v type="int" >        4        5        8       13       14 </v>
   <v type="int" >        4        5        7        8       13 </v>
   <v type="int" >        4        5        6        8       12 </v>
   <v type="int" >        4        5        8       11       12 </v>
   <v type="int" >        4        8       11       12       14 </v>
   <v type="int" >        4        6        8        9       12 </v>
   <v type="int" >        4        8        9       12       15 </v>
   <v type="int" >        4        8       12       14       15 </v>
   <v type="int" >        4        6        6        9       12 </v>
   <v type="int" >        4        6        9       12       12 </v>
   <v type="int" >        4        9       12       12       15 </v>
   <v type="int" >        4        6        9        9       12 </v>
   <v type="int" >        4        9        9       12       15 </v>
   <v type="int" >        4        9       12       15       15 </v>
   <v type="int" >        4        5        6        9       11 </v>
   <v type="int" >        4        6        9       11       12 </v>
   <v type="int" >        4        9       11       12       15 </v>
   <v type="int" >        4        5        8        9       11 </v>
   <v type="int" >        4        8        9       11       14 </v>
   <v type="int" >        4        9       11       14       15 </v>
   <v type="int" >        4        4        5        8       10 </v>
   <v type="int" >        4        5        8       10       11 </v>
   <v type="int" >        4        8       10       11       14 </v>
   <v type="int" >        4        4        7        8       10 </v>
   <v type="int" >        4        7        8       10       13 </v>
   <v type="int" >        4        8       10       13       14 </v>
   <v type="int" >        4        4        5        7       11 </v>
   <v type="int" >        4        4        7       10       11 </v>
   <v type="int" >        4        7       10       11       13 </v>
   <v type="int" >        4        5        7        8       11 </v>
   <v type="int" >        4        7        8       11       14 </v>
   <v type="int" >        4        7       11       13       14 </v>
   <v type="int" >        4       17       17       18       18 </v>
   <v type="int" >        4       17       17       17       18 </v>
   <v type="int" >        4       17       18       18       18 </v>
   <v type="int" >        6       18       18       18       18 </v>
   <v type="int" >        4       16       16       17       17 </v>
   <v type="int" >        4       16       17       17       17 </v>
   <v type="int" >        4       16       16       16       17 </v>
   <v type="int" >        4        9       14       14       15 </v>
   <v type="int" >        4        8        9       14       14 </v>
   <v type="int" >        4        8        8        9       14 </v>
   <v type="int" >        4        9       14       15       15 </v>
   <v type="int" >        4        9        9       14       15 </v>
   <v type="int" >        4        8        9        9       14 </v>
   <v type="int" >        8        9       15       15       15 </v>
   <v type="int" >        8        9        9       15       15 </v>
   <v type="int" >        8        9        9        9       15 </v>
   <v type="int" >        4        8       14       15       15 </v>
   <v type="int" >        4        8        9       15       15 </v>
   <v type="int" >        4        8        9        9       15 </v>
   <v type="int" >        4        8       14       14       15 </v>
   <v type="int" >        4        8        8       14       15 </v>
   <v type="int" >        4        8        8        9       15 </v>
   <v type="int" >        4        7       13       14       14 </v>
   <v type="int" >        4        7        8       14       14 </v>
   <v type="int" >        4        7        8        8       14 </v>
   <v type="int" >        4        7       13       13       14 </v>
   <v type="int" >        4        7        7       13       14 </v>
   <v type="int" >        4        7        7        8       14 </v>
   <v type="int" >        4        8       13       13       14 </v>
   <v type="int" >        4        7        8       13       13 </v>
   <v type="int" >        4        7        7        8       13 </v>
   <v type="int" >        4        8       13       14       14 </v>
   <v type="int" >        4        8        8       13       14 </v>
   <v type="int" >        4        7        8        8       13 </v>
   <v type="int" >        4        5        6       11       12 </v>
   <v type="int" >        4        5        5        6       11 </v>
   <v type="int" >        4        2        5        5        6 </v>
   <v type="int" >        4        5        6        6       12 </v>
   <v type="int" >        4        3        5        6        6 </v>
   <v type="int" >        4        2        3        5        6 </v>
   <v type="int" >        2        6        6       12       12 </v>
   <v type="int" >        4        6        6        6       12 </v>
   <v type="int" >        4        3        6        6        6 </v>
   <v type="int" >        2        3        3        6        6 </v>
   <v type="int" >        4        4        5       10       11 </v>
   <v type="int" >        4        4        5        5       11 </v>
   <v type="int" >        4        2        4        5        5 </v>
   <v type="int" >        4        4        4        5       10 </v>
   <v type="int" >        4        1        4        4        5 </v>
   <v type="int" >        4        1        2        4        5 </v>
   <v type="int" >        4        2        5        6       12 </v>
   <v type="int" >        4        2        5       11       12 </v>
   <v type="int" >        4        2        3        6       12 </v>
   <v type="int" >        4        3        6        6       12 </v>
   <v type="int" >        4        3        6       12       12 </v>
   <v type="int" >        4        3        3        6       12 </v>
   <v type="int" >        4        3        5        6       11 </v>
   <v type="int" >        4        3        6       11       12 </v>
   <v type="int" >        4        2        3        5       11 </v>
   <v type="int" >        4        2        4        5       10 </v>
   <v type="int" >        4        2        5       10       11 </v>
   <v type="int" >        4        1        2        4       10 </v>
   <v type="int" >        4        1        4        5       11 </v>
   <v type="int" >        4        1        4       10       11 </v>
   <v type="int" >        4        1        2        5       11 </v>
  </varray>
  <i name="volumeweight">      0.00133333 </i>
 </kpoints>
 <parameters>
  <separator name="general" >
   <i type="string" name="SYSTEM">GaAs</i>
   <i type="logical" name="LCOMPAT"> F  </i>
  </separator>
  <separator name="electronic" >
   <i type="string" name="PREC">normal</i>
   <i name="ENMAX">    400.00000000</i>
   <i name="ENAUG">    462.75800000</i>
   <i name="EDIFF">      0.00000100</i>
   <i type="int" name="IALGO">    38</i>
   <i type="int" name="IWAVPR">    11</i>
   <i type="int" name="NBANDS">   168</i>
   <i type="int" name="NBANDSLOW">    -1</i>
   <i type="int" name="NBANDSHIGH">    -1</i>
   <i name="NELECT">    256.00000000</i>
   <i type="int" name="TURBO">     0</i>
   <i type="int" name="IRESTART">     0</i>
   <i type="int" name="NREBOOT">     0</i>
   <i type="int" name="NMIN">     0</i>
   <i name="EREF">      0.00000000</i>
   <separator name="electronic smearing" >
    <i type="int" name="ISMEAR">    -5</i>
    <i name="SIGMA">      0.10000000</i>
    <i name="KSPACING">      0.50000000</i>
    <i type="logical" name="KGAMMA"> T  </i>
    <i type="logical" name="KBLOWUP"> T  </i>
   </separator>
   <separator name="electronic projectors" >
    <i type="logical" name="LREAL"> F  </i>
    <v name="ROPT">      0.00000000      0.00000000</v>
    <i type="int" name="LMAXPAW">  -100</i>
    <i type="int" name="LMAXMIX">     2</i>
    <i type="logical" name="NLSPLINE"> F  </i>
   </separator>
   <separator name="electronic startup" >
    <i type="int" name="ISTART">     0</i>
    <i type="int" name="ICHARG">     2</i>
    <i type="int" name="INIWAV">     1</i>
   </separator>
   <separator name="electronic spin" >
    <i type="int" name="ISPIN">     1</i>
    <i type="logical" name="LNONCOLLINEAR"> F  </i>
    <v name="MAGMOM">      1.00000000      1.00000000      1.00000000      1.00000000      1.00000000      1.00000000      1.00000000      1.00000000      1.00000000      1.00000000      1.00000000      1.00000000      1.00000000      1.00000000      1.00000000      1.00000000      1.00000000      1.00000000      1.00000000      1.00000000
      1.00000000      1.00000000      1.00000000      1.00000000      1.00000000      1.00000000      1.00000000      1.00000000      1.00000000      1.00000000      1.00000000      1.00000000      1.00000000      1.00000000      1.00000000      1.00000000      1.00000000      1.00000000      1.00000000      1.00000000
      1.00000000      1.00000000      1.00000000      1.00000000      1.00000000      1.00000000      1.00000000      1.00000000      1.00000000      1.00000000      1.00000000      1.00000000      1.00000000      1.00000000      1.00000000      1.00000000      1.00000000      1.00000000      1.00000000      1.00000000
      1.00000000      1.00000000      1.00000000      1.00000000</v>
    <i name="NUPDOWN">     -1.00000000</i>
    <i type="logical" name="LSORBIT"> F  </i>
    <v name="SAXIS">      0.00000000      0.00000000      1.00000000</v>
    <i type="logical" name="LSPIRAL"> F  </i>
    <v name="QSPIRAL">      0.00000000      0.00000000      0.00000000</v>
    <i type="logical" name="LZEROZ"> F  </i>
   </separator>
   <separator name="electronic exchange-correlation" >
    <i type="logical" name="LASPH"> F  </i>
   </separator>
   <separator name="electronic convergence" >
    <i type="int" name="NELM">    60</i>
    <i type="int" name="NELMDL">    -5</i>
    <i type="int" name="NELMIN">     2</i>
    <i name="ENINI">    400.00000000</i>
    <separator name="electronic convergence detail" >
     <i type="logical" name="LDIAG"> T  </i>
     <i type="logical" name="LSUBROT"> F  </i>
     <i name="WEIMIN">      0.00100000</i>
     <i name="EBREAK">      0.00000000</i>
     <i name="DEPER">      0.30000000</i>
     <i type="int" name="NRMM">     4</i>
     <i name="TIME">      0.40000000</i>
    </separator>
   </separator>
   <separator name="electronic mixer" >
    <i name="AMIX">      0.40000000</i>
    <i name="BMIX">      1.00000000</i>
    <i name="AMIN">      0.10000000</i>
    <i name="AMIX_MAG">      1.60000000</i>
    <i name="BMIX_MAG">      1.00000000</i>
    <separator name="electronic mixer details" >
     <i type="int" name="IMIX">     4</i>
     <i type="logical" name="MIXFIRST"> F  </i>
     <i type="int" name="MAXMIX">   -45</i>
     <i name="WC">    100.00000000</i>
     <i type="int" name="INIMIX">     1</i>
     <i type="int" name="MIXPRE">     1</i>
     <i type="int" name="MREMOVE">     5</i>
    </separator>
   </separator>
   <separator name="electronic dipolcorrection" >
    <i type="logical" name="LDIPOL"> F  </i>
    <i type="logical" name="LMONO"> F  </i>
    <i type="int" name="IDIPOL">     0</i>
    <i name="EPSILON">      1.00000000</i>
    <v name="DIPOL">   -100.00000000   -100.00000000   -100.00000000</v>
    <i name="EFIELD">      0.00000000</i>
    <i type="logical" name="LVACPOTAV"> F  </i>
   </separator>
  </separator>
  <separator name="grids" >
   <i type="int" name="NGX">    60</i>
   <i type="int" name="NGY">    56</i>
   <i type="int" name="NGZ">    56</i>
   <i type="int" name="NGXF">   120</i>
   <i type="int" name="NGYF">   112</i>
   <i type="int" name="NGZF">   112</i>
   <i type="logical" name="ADDGRID"> F  </i>
  </separator>
  <separator name="ionic" >
   <i type="int" name="NSW">   100</i>
   <i type="int" name="IBRION">     2</i>
   <i type="int" name="MDALGO">     0</i>
   <i type="int" name="ISIF">     2</i>
   <i name="PSTRESS">      0.00000000</i>
   <i name="EDIFFG">      0.00100000</i>
   <i type="int" name="NFREE">     2</i>
   <i name="POTIM">      0.10000000</i>
   <i name="SMASS">     -3.00000000</i>
   <i name="SCALEE">      1.00000000</i>
  </separator>
  <separator name="ionic md" >
   <i name="TEBEG">      0.00010000</i>
   <i name="TEEND">      0.00010000</i>
   <i type="int" name="NBLOCK">     1</i>
   <i type="int" name="KBLOCK">   100</i>
   <i type="int" name="NPACO">   256</i>
   <i name="APACO">     10.00000000</i>
  </separator>
  <separator name="symmetry" >
   <i type="int" name="ISYM">     2</i>
   <i name="SYMPREC">      0.00001000</i>
  </separator>
  <separator name="dos" >
   <i type="int" name="LORBIT">     0</i>
   <v name="RWIGS">     -1.00000000     -1.00000000</v>
   <i type="int" name="NEDOS">   301</i>
   <i name="EMIN">     10.00000000</i>
   <i name="EMAX">    -10.00000000</i>
   <i name="EFERMI">      0.00000000</i>
  </separator>
  <separator name="writing" >
   <i type="int" name="NWRITE">     2</i>
   <i type="logical" name="LWAVE"> T  </i>
   <i type="logical" name="LDOWNSAMPLE"> F  </i>
   <i type="logical" name="LCHARG"> T  </i>
   <i type="logical" name="LPARD"> F  </i>
   <i type="logical" name="LVTOT"> F  </i>
   <i type="logical" name="LVHAR"> F  </i>
   <i type="logical" name="LELF"> F  </i>
   <i type="logical" name="LOPTICS"> T  </i>
   <v name="STM">      0.00000000      0.00000000      0.00000000      0.00000000      0.00000000      0.00000000      0.00000000</v>
  </separator>
  <separator name="performance" >
   <i type="int" name="NPAR">     8</i>
   <i type="int" name="NSIM">     4</i>
   <i type="int" name="NBLK">    -1</i>
   <i type="logical" name="LPLANE"> T  </i>
   <i type="logical" name="LSCALAPACK"> T  </i>
   <i type="logical" name="LSCAAWARE"> F  </i>
   <i type="logical" name="LSCALU"> F  </i>
   <i type="logical" name="LASYNC"> F  </i>
   <i type="logical" name="LORBITALREAL"> F  </i>
  </separator>
  <separator name="miscellaneous" >
   <i type="int" name="IDIOT">     3</i>
   <i type="int" name="PHON_NSTRUCT">    -1</i>
   <i type="logical" name="LMUSIC"> F  </i>
   <v name="POMASS">     74.92200000     69.72300000</v>
   <v name="DARWINR">      0.00000000      0.00000000</v>
   <v name="DARWINV">      1.00000000      1.00000000</v>
   <i type="logical" name="LCORR"> T  </i>
  </separator>
  <i type="logical" name="GGA_COMPAT"> T  </i>
  <i type="logical" name="LBERRY"> F  </i>
  <i type="int" name="ICORELEVEL">     0</i>
  <i type="logical" name="LDAU"> F  </i>
  <i type="int" name="I_CONSTRAINED_M">     0</i>
  <separator name="electronic exchange-correlation" >
   <i type="string" name="GGA    ">PE</i>
   <i type="string" name="XC_C">1</i>
   <i type="int" name="VOSKOWN">     0</i>
   <i type="logical" name="LHFCALC"> F  </i>
   <i type="string" name="PRECFOCK"></i>
   <i type="logical" name="LSYMGRAD"> F  </i>
   <i type="logical" name="LHFONE"> F  </i>
   <i type="logical" name="LRHFCALC"> F  </i>
   <i type="logical" name="LTHOMAS"> F  </i>
   <i type="logical" name="LMODELHF"> F  </i>
   <i type="logical" name="LFOCKACE"> F  </i>
   <i name="ENCUT4O">     -1.00000000</i>
   <i type="int" name="EXXOEP">     0</i>
   <i type="int" name="FOURORBIT">     0</i>
   <i name="AEXX">      0.00000000</i>
   <i name="HFALPHA">      0.00000000</i>
   <i name="MCALPHA">      0.00000000</i>
   <i name="ALDAX">      1.00000000</i>
   <i name="AGGAX">      1.00000000</i>
   <i name="AMGGAX">      1.00000000</i>
   <i name="ALDAC">      1.00000000</i>
   <i name="AGGAC">      1.00000000</i>
   <i name="AMGGAC">      1.00000000</i>
   <i type="int" name="NKREDX">     1</i>
   <i type="int" name="NKREDY">     1</i>
   <i type="int" name="NKREDZ">     1</i>
   <i type="logical" name="SHIFTRED"> F  </i>
   <i type="logical" name="ODDONLY"> F  </i>
   <i type="logical" name="EVENONLY"> F  </i>
   <i type="int" name="LMAXFOCK">     0</i>
   <i type="int" name="NMAXFOCKAE">     0</i>
   <i type="logical" name="LFOCKAEDFT"> F  </i>
   <i name="HFSCREEN">      0.00000000</i>
   <i name="HFSCREENC">      0.00000000</i>
   <i type="int" name="NBANDSGWLOW">     0</i>
  </separator>
  <separator name="vdW DFT" >
   <i type="logical" name="LUSE_VDW"> F  </i>
   <i type="int" name="IVDW_NL">    -1</i>
   <i type="logical" name="LSPIN_VDW"> F  </i>
   <i name="ZAB_VDW">     -0.84910000</i>
   <i name="GAMMA_VDW">      1.39626340</i>
   <i name="ALPHA_VDW">      0.00000000</i>
   <i name="PARAM1">      0.12340000</i>
   <i name="PARAM2">      1.00000000</i>
   <i name="BPARAM">      6.30000000</i>
   <i name="CPARAM">      0.00930000</i>
  </separator>
  <separator name="model GW" >
   <i type="int" name="MODEL_GW">     0</i>
   <i name="MODEL_EPS0">     14.45130363</i>
   <i name="MODEL_ALPHA">      1.00000000</i>
  </separator>
  <separator name="linear response parameters" >
   <i type="logical" name="LEPSILON"> T  </i>
   <i type="logical" name="LRPA"> F  </i>
   <i type="logical" name="LNABLA"> F  </i>
   <i type="logical" name="LVEL"> F  </i>
   <i name="CSHIFT">      0.10000000</i>
   <i name="OMEGAMAX">     -1.00000000</i>
   <i name="DEG_THRESHOLD">      0.00200000</i>
   <i name="RTIME">     -0.10000000</i>
   <i name="WPLASMAI">      0.00000000</i>
   <v name="DFIELD">      0.00000000      0.00000000      0.00000000</v>
   <v name="WPLASMA">      0.00000000      0.00000000      0.00000000      0.00000000      0.00000000      0.00000000      0.00000000      0.00000000      0.00000000</v>
  </separator>
  <separator name="orbital magnetization" >
   <i type="logical" name="NUCIND"> F  </i>
   <v name="MAGPOS">      0.00000000      0.00000000      0.00000000</v>
   <i type="logical" name="LNICSALL"> T  </i>
   <i type="logical" name="ORBITALMAG"> F  </i>
   <i type="logical" name="LMAGBLOCH"> F  </i>
   <i type="logical" name="LCHIMAG"> F  </i>
   <i type="logical" name="LGAUGE"> T  </i>
   <i type="int" name="MAGATOM">     0</i>
   <v name="MAGDIPOL">      0.00000000      0.00000000      0.00000000</v>
   <v name="AVECCONST">      0.00000000      0.00000000      0.00000000</v>
  </separator>
  <separator name="response functions" >
   <i type="logical" name="LALL_IN_ONE"> F  </i>
   <i type="int" name="IALL_IN_ONE">    -1</i>
   <i type="int" name="NBANDS_WAVE">    -1</i>
   <i type="logical" name="LFINITE_TEMPERATURE"> F  </i>
   <i type="logical" name="LADDER"> F  </i>
   <i type="logical" name="LRPAFORCE"> F  </i>
   <i type="logical" name="LFXC"> F  </i>
   <i type="logical" name="LHARTREE"> T  </i>
   <i type="int" name="IBSE">     0</i>
   <v type="int" name="KPOINT">    -1     0     0     0</v>
   <i type="logical" name="LTCTC"> F  </i>
   <i type="logical" name="LTCTE"> F  </i>
   <i type="logical" name="LTETE"> F  </i>
   <i type="logical" name="LTRIPLET"> F  </i>
   <i type="logical" name="LFXCEPS"> F  </i>
   <i type="logical" name="LFXHEG"> F  </i>
   <i type="int" name="NATURALO">     2</i>
   <i type="logical" name="LHOLEGF"> F  </i>
   <i type="logical" name="L2ORDER"> F  </i>
   <i type="logical" name="LDMP1"> F  </i>
   <i type="logical" name="LMP2LT"> F  </i>
   <i type="logical" name="LSMP2LT"> F  </i>
   <i type="logical" name="LGWLF"> F  </i>
   <i name="ENCUTGW">     -1.60000002</i>
   <i name="ENCUTGWSOFT">     -1.60000002</i>
   <i name="ENCUTLF">     -1.00000000</i>
   <i type="logical" name="ESF_SPLINES"> F  </i>
   <i name="ESF_CONV">      0.01000000</i>
   <i type="int" name="ESF_NINTER">    15</i>
   <i type="int" name="LMAXMP2">    -1</i>
   <i name="SCISSOR">      0.00000000</i>
   <i type="int" name="NOMEGA">     0</i>
   <i type="int" name="NOMEGAR">     0</i>
   <i type="int" name="NBANDSGW">    -1</i>
   <i type="int" name="NBANDSO">    -1</i>
   <i type="int" name="NBANDSV">    -1</i>
   <i type="int" name="NELMGW">     1</i>
   <i type="int" name="NELMHF">     1</i>
   <i type="int" name="DIM">     3</i>
   <i type="int" name="IESPILON">     4</i>
   <i type="int" name="ANTIRES">     0</i>
   <i name="OMEGAMAX">    -30.00000000</i>
   <i name="OMEGAMIN">    -30.00000000</i>
   <i name="OMEGATL">   -200.00000000</i>
   <i type="int" name="OMEGAGRID">     0</i>
   <i name="CSHIFT">     -0.10000000</i>
   <i type="logical" name="LSELFENERGY"> F  </i>
   <i type="logical" name="LSPECTRAL"> F  </i>
   <i type="logical" name="LSPECTRALGW"> F  </i>
   <i type="logical" name="LSINGLES"> F  </i>
   <i type="logical" name="LFERMIGW"> F  </i>
   <i type="logical" name="ODDONLYGW"> F  </i>
   <i type="logical" name="EVENONLYGW"> F  </i>
   <i type="int" name="NKREDLFX">     1</i>
   <i type="int" name="NKREDLFY">     1</i>
   <i type="int" name="NKREDLFZ">     1</i>
   <i type="int" name="MAXMEM">  2800</i>
   <i type="int" name="TELESCOPE">     0</i>
   <i type="int" name="NTAUPAR">    -1</i>
   <i type="int" name="NOMEGAPAR">    -1</i>
   <i name="DAMP_NEWTON">      0.80000001</i>
   <i name="LAMBDA">      1.00000000</i>
  </separator>
  <separator name="External order field" >
   <i name="OFIELD_KAPPA">      0.00000000</i>
   <v name="OFIELD_K">      0.00000000      0.00000000      0.00000000</v>
   <i name="OFIELD_Q6_NEAR">      0.00000000</i>
   <i name="OFIELD_Q6_FAR">      0.00000000</i>
   <i name="OFIELD_A">      0.00000000</i>
  </separator>
  <separator name="optional k-points parameters" >
   <i type="int" name="KPOINTS_OPT_MODE">     1</i>
   <i type="logical" name="LKPOINTS_OPT"> F  </i>
  </separator>
 </parameters>
 <atominfo>
  <atoms>      64 </atoms>
  <types>       2 </types>
  <array name="atoms" >
   <dimension dim="1">ion</dimension>
   <field type="string">element</field>
   <field type="int">atomtype</field>
   <set>
    <rc><c>As</c><c>   1</c></rc>
    <rc><c>As</c><c>   1</c></rc>
    <rc><c>As</c><c>   1</c></rc>
    <rc><c>As</c><c>   1</c></rc>
    <rc><c>As</c><c>   1</c></rc>
    <rc><c>As</c><c>   1</c></rc>
    <rc><c>As</c><c>   1</c></rc>
    <rc><c>As</c><c>   1</c></rc>
    <rc><c>As</c><c>   1</c></rc>
    <rc><c>As</c><c>   1</c></rc>
    <rc><c>As</c><c>   1</c></rc>
    <rc><c>As</c><c>   1</c></rc>
    <rc><c>As</c><c>   1</c></rc>
    <rc><c>As</c><c>   1</c></rc>
    <rc><c>As</c><c>   1</c></rc>
    <rc><c>As</c><c>   1</c></rc>
    <rc><c>As</c><c>   1</c></rc>
    <rc><c>As</c><c>   1</c></rc>
    <rc><c>As</c><c>   1</c></rc>
    <rc><c>As</c><c>   1</c></rc>
    <rc><c>As</c><c>   1</c></rc>
    <rc><c>As</c><c>   1</c></rc>
    <rc><c>As</c><c>   1</c></rc>
    <rc><c>As</c><c>   1</c></rc>
    <rc><c>As</c><c>   1</c></rc>
    <rc><c>As</c><c>   1</c></rc>
    <rc><c>As</c><c>   1</c></rc>
    <rc><c>As</c><c>   1</c></rc>
    <rc><c>As</c><c>   1</c></rc>
    <rc><c>As</c><c>   1</c></rc>
    <rc><c>As</c><c>   1</c></rc>
    <rc><c>As</c><c>   1</c></rc>
    <rc><c>Ga</c><c>   2</c></rc>
    <rc><c>Ga</c><c>   2</c></rc>
    <rc><c>Ga</c><c>   2</c></rc>
    <rc><c>Ga</c><c>   2</c></rc>
    <rc><c>Ga</c><c>   2</c></rc>
    <rc><c>Ga</c><c>   2</c></rc>
    <rc><c>Ga</c><c>   2</c></rc>
    <rc><c>Ga</c><c>   2</c></rc>
    <rc><c>Ga</c><c>   2</c></rc>
    <rc><c>Ga</c><c>   2</c></rc>
    <rc><c>Ga</c><c>   2</c></rc>
    <rc><c>Ga</c><c>   2</c></rc>
    <rc><c>Ga</c><c>   2</c></rc>
    <rc><c>Ga</c><c>   2</c></rc>
    <rc><c>Ga</c><c>   2</c></rc>
    <rc><c>Ga</c><c>   2</c></rc>
    <rc><c>Ga</c><c>   2</c></rc>
    <rc><c>Ga</c><c>   2</c></rc>
    <rc><c>Ga</c><c>   2</c></rc>
    <rc><c>Ga</c><c>   2</c></rc>
    <rc><c>Ga</c><c>   2</c></rc>
    <rc><c>Ga</c><c>   2</c></rc>
    <rc><c>Ga</c><c>   2</c></rc>
    <rc><c>Ga</c><c>   2</c></rc>
    <rc><c>Ga</c><c>   2</c></rc>
    <rc><c>Ga</c><c>   2</c></rc>
    <rc><c>Ga</c><c>   2</c></rc>
    <rc><c>Ga</c><c>   2</c></rc>
    <rc><c>Ga</c><c>   2</c></rc>
    <rc><c>Ga</c><c>   2</c></rc>
    <rc><c>Ga</c><c>   2</c></rc>
    <rc><c>Ga</c><c>   2</c></rc>
   </set>
  </array>
  <array name="atomtypes" >
   <dimension dim="1">type</dimension>
   <field type="int">atomspertype</field>
   <field type="string">element</field>
   <field>mass</field>
   <field>valence</field>
   <field type="string">pseudopotential</field>
   <set>
    <rc><c>  32</c><c>As</c><c>     74.92200000</c><c>      5.00000000</c><c>  PAW_PBE As 22Sep2009                  </c></rc>
    <rc><c>  32</c><c>Ga</c><c>     69.72300000</c><c>      3.00000000</c><c>  PAW_PBE Ga 08Apr2002                  </c></rc>
   </set>
  </array>
 </atominfo>
 <structure name="initialpos" >
  <crystal>
   <varray name="basis" >
    <v>      11.72851883       0.00000000       0.00000000 </v>
    <v>       0.00000000      11.46426694       0.00000000 </v>
    <v>       0.00000000       0.00000000      11.46426694 </v>
   </varray>
   <i name="volume">   1541.47238719 </i>
   <varray name="rec_basis" >
    <v>       0.08526226       0.00000000       0.00000000 </v>
    <v>       0.00000000       0.08722756       0.00000000 </v>
    <v>       0.00000000       0.00000000       0.08722756 </v>
   </varray>
  </crystal>
  <varray name="positions" >
   <v>       0.00000000       0.00000000       0.00000000 </v>
   <v>       0.00000000       0.00000000       0.50000000 </v>
   <v>       0.00000000       0.50000000       0.00000000 </v>
   <v>       0.00000000       0.50000000       0.50000000 </v>
   <v>       0.50000000       0.00000000       0.00000000 </v>
   <v>       0.50000000       0.00000000       0.50000000 </v>
   <v>       0.50000000       0.50000000       0.00000000 </v>
   <v>       0.50000000       0.50000000       0.50000000 </v>
   <v>       0.25000000       0.25000000       0.00000000 </v>
   <v>       0.25000000       0.25000000       0.50000000 </v>
   <v>       0.25000000       0.75000000       0.00000000 </v>
   <v>       0.25000000       0.75000000       0.50000000 </v>
   <v>       0.75000000       0.25000000       0.00000000 </v>
   <v>       0.75000000       0.25000000       0.50000000 </v>
   <v>       0.75000000       0.75000000       0.00000000 </v>
   <v>       0.75000000       0.75000000       0.50000000 </v>
   <v>       0.25000000       0.00000000       0.25000000 </v>
   <v>       0.25000000       0.00000000       0.75000000 </v>
   <v>       0.25000000       0.50000000       0.25000000 </v>
   <v>       0.25000000       0.50000000       0.75000000 </v>
   <v>       0.75000000       0.00000000       0.25000000 </v>
   <v>       0.75000000       0.00000000       0.75000000 </v>
   <v>       0.75000000       0.50000000       0.25000000 </v>
   <v>       0.75000000       0.50000000       0.75000000 </v>
   <v>       0.00000000       0.25000000       0.25000000 </v>
   <v>       0.00000000       0.25000000       0.75000000 </v>
   <v>       0.00000000       0.75000000       0.25000000 </v>
   <v>       0.00000000       0.75000000       0.75000000 </v>
   <v>       0.50000000       0.25000000       0.25000000 </v>
   <v>       0.50000000       0.25000000       0.75000000 </v>
   <v>       0.50000000       0.75000000       0.25000000 </v>
   <v>       0.50000000       0.75000000       0.75000000 </v>
   <v>       0.12500000       0.12500000       0.12500000 </v>
   <v>       0.12500000       0.12500000       0.62500000 </v>
   <v>       0.12500000       0.62500000       0.12500000 </v>
   <v>       0.12500000       0.62500000       0.62500000 </v>
   <v>       0.62500000       0.12500000       0.12500000 </v>
   <v>       0.62500000       0.12500000       0.62500000 </v>
   <v>       0.62500000       0.62500000       0.12500000 </v>
   <v>       0.62500000       0.62500000       0.62500000 </v>
   <v>       0.37500000       0.12500000       0.37500000 </v>
   <v>       0.37500000       0.12500000       0.87500000 </v>
   <v>       0.37500000       0.62500000       0.37500000 </v>
   <v>       0.37500000       0.62500000       0.87500000 </v>
   <v>       0.87500000       0.12500000       0.37500000 </v>
   <v>       0.87500000       0.12500000       0.87500000 </v>
   <v>       0.87500000       0.62500000       0.37500000 </v>
   <v>       0.87500000       0.62500000       0.87500000 </v>
   <v>       0.37500000       0.37500000       0.12500000 </v>
   <v>       0.37500000       0.37500000       0.62500000 </v>
   <v>       0.37500000       0.87500000       0.12500000 </v>
   <v>       0.37500000       0.87500000       0.62500000 </v>
   <v>       0.87500000       0.37500000       0.12500000 </v>
   <v>       0.87500000       0.37500000       0.62500000 </v>
   <v>       0.87500000       0.87500000       0.12500000 </v>
   <v>       0.87500000       0.87500000       0.62500000 </v>
   <v>       0.12500000       0.37500000       0.37500000 </v>
   <v>       0.12500000       0.37500000       0.87500000 </v>
   <v>       0.12500000       0.87500000       0.37500000 </v>
   <v>       0.12500000       0.87500000       0.87500000 </v>
   <v>       0.62500000       0.37500000       0.37500000 </v>
   <v>       0.62500000       0.37500000       0.87500000 </v>
   <v>       0.62500000       0.87500000       0.37500000 </v>
   <v>       0.62500000       0.87500000       0.87500000 </v>
  </varray>
 </structure>
 <calculation>
  <scstep>
   <time name="dav">   72.87   73.85</time>
   <time name="total">   73.01   73.99</time>
   <energy>
    <i name="alphaZ">    568.13638824 </i>
    <i name="ewald">  -7178.39412012 </i>
    <i name="hartreedc">   -605.77818117 </i>
    <i name="XCdc">   -996.78795435 </i>
    <i name="pawpsdc">   6692.16565901 </i>
    <i name="pawaedc">  -5247.93935635 </i>
    <i name="eentropy">      0.00000000 </i>
    <i name="bandstr">    372.81429854 </i>
    <i name="atom">   7329.73306348 </i>
    <i name="e_fr_energy">    933.94979727 </i>
    <i name="e_wo_entrp">    933.94979727 </i>
    <i name="e_0_energy">    933.94979727 </i>
   </energy>
  </scstep>
  <scstep>
   <time name="dav">   84.66   85.85</time>
   <time name="total">   84.67   85.86</time>
   <energy>
    <i name="e_fr_energy">   -166.39970974 </i>
    <i name="e_wo_entrp">   -166.39970974 </i>
    <i name="e_0_energy">   -166.39970974 </i>
   </energy>
  </scstep>
  <scstep>
   <time name="dav">   87.46   88.61</time>
   <time name="total">   87.47   88.62</time>
   <energy>
    <i name="e_fr_energy">   -267.52750952 </i>
    <i name="e_wo_entrp">   -267.52750952 </i>
    <i name="e_0_energy">   -267.52750952 </i>
   </energy>
  </scstep>
  <scstep>
   <time name="dav">   85.08   86.22</time>
   <time name="total">   85.09   86.22</time>
   <energy>
    <i name="e_fr_energy">   -270.01795900 </i>
    <i name="e_wo_entrp">   -270.01795900 </i>
    <i name="e_0_energy">   -270.01795900 </i>
   </energy>
  </scstep>
  <scstep>
   <time name="dav">   86.85   88.06</time>
   <time name="total">   87.67   88.89</time>
   <energy>
    <i name="e_fr_energy">   -270.09179582 </i>
    <i name="e_wo_entrp">   -270.09179582 </i>
    <i name="e_0_energy">   -270.09179582 </i>
   </energy>
  </scstep>
  <scstep>
   <time name="dav">   80.88   81.98</time>
   <time name="total">   81.82   82.93</time>
   <energy>
    <i name="e_fr_energy">   -265.92537472 </i>
    <i name="e_wo_entrp">   -265.92537472 </i>
    <i name="e_0_energy">   -265.92537472 </i>
   </energy>
  </scstep>
  <scstep>
   <time name="dav">   82.80   83.94</time>
   <time name="total">   83.74   84.89</time>
   <energy>
    <i name="e_fr_energy">   -265.11294629 </i>
    <i name="e_wo_entrp">   -265.11294629 </i>
    <i name="e_0_energy">   -265.11294629 </i>
   </energy>
  </scstep>
  <scstep>
   <time name="dav">   78.20   79.24</time>
   <time name="total">   79.09   80.14</time>
   <energy>
    <i name="e_fr_energy">   -265.07135637 </i>
    <i name="e_wo_entrp">   -265.07135637 </i>
    <i name="e_0_energy">   -265.07135637 </i>
   </energy>
  </scstep>
  <scstep>
   <time name="dav">   71.69   72.69</time>
   <time name="total">   72.56   73.57</time>
   <energy>
    <i name="e_fr_energy">   -265.08309613 </i>
    <i name="e_wo_entrp">   -265.08309613 </i>
    <i name="e_0_energy">   -265.08309613 </i>
   </energy>
  </scstep>
  <scstep>
   <time name="dav">   76.61   77.71</time>
   <time name="total">   77.49   78.59</time>
   <energy>
    <i name="e_fr_energy">   -265.08420601 </i>
    <i name="e_wo_entrp">   -265.08420601 </i>
    <i name="e_0_energy">   -265.08420601 </i>
   </energy>
  </scstep>
  <scstep>
   <time name="dav">   68.62   69.58</time>
   <time name="total">   69.49   70.46</time>
   <energy>
    <i name="e_fr_energy">   -265.08552757 </i>
    <i name="e_wo_entrp">   -265.08552757 </i>
    <i name="e_0_energy">   -265.08552757 </i>
   </energy>
  </scstep>
  <scstep>
   <time name="dav">   75.96   77.01</time>
   <time name="total">   76.83   77.90</time>
   <energy>
    <i name="e_fr_energy">   -265.08553427 </i>
    <i name="e_wo_entrp">   -265.08553427 </i>
    <i name="e_0_energy">   -265.08553427 </i>
   </energy>
  </scstep>
  <scstep>
   <time name="dav">   72.36   73.37</time>
   <time name="total">   73.24   74.25</time>
   <energy>
    <i name="e_fr_energy">   -265.08554333 </i>
    <i name="e_wo_entrp">   -265.08554333 </i>
    <i name="e_0_energy">   -265.08554333 </i>
   </energy>
  </scstep>
  <scstep>
   <time name="dav">   64.38   65.28</time>
   <time name="total">   64.50   65.41</time>
   <energy>
    <i name="alphaZ">    568.13638824 </i>
    <i name="ewald">  -7178.39412012 </i>
    <i name="hartreedc">   -713.73108098 </i>
    <i name="XCdc">   -974.94820299 </i>
    <i name="pawpsdc">  14537.64455913 </i>
    <i name="pawaedc"> -13104.96024568 </i>
    <i name="eentropy">      0.00000000 </i>
    <i name="bandstr">   -728.56590379 </i>
    <i name="atom">   7329.73306348 </i>
    <i name="e_fr_energy">   -265.08554272 </i>
    <i name="e_wo_entrp">   -265.08554272 </i>
    <i name="e_0_energy">   -265.08554272 </i>
   </energy>
  </scstep>
  <structure>
   <crystal>
    <varray name="basis" >
     <v>      11.72851883       0.00000000       0.00000000 </v>
     <v>       0.00000000      11.46426694       0.00000000 </v>
     <v>       0.00000000       0.00000000      11.46426694 </v>
    </varray>
    <i name="volume">   1541.47238719 </i>
    <varray name="rec_basis" >
     <v>       0.08526226       0.00000000       0.00000000 </v>
     <v>       0.00000000       0.08722756       0.00000000 </v>
     <v>       0.00000000       0.00000000       0.08722756 </v>
    </varray>
   </crystal>
   <varray name="positions" >
    <v>       0.00000000       0.00000000       0.00000000 </v>
    <v>       0.00000000       0.00000000       0.50000000 </v>
    <v>       0.00000000       0.50000000       0.00000000 </v>
    <v>       0.00000000       0.50000000       0.50000000 </v>
    <v>       0.50000000       0.00000000       0.00000000 </v>
    <v>       0.50000000       0.00000000       0.50000000 </v>
    <v>       0.50000000       0.50000000       0.00000000 </v>
    <v>       0.50000000       0.50000000       0.50000000 </v>
    <v>       0.25000000       0.25000000       0.00000000 </v>
    <v>       0.25000000       0.25000000       0.50000000 </v>
    <v>       0.25000000       0.75000000       0.00000000 </v>
    <v>       0.25000000       0.75000000       0.50000000 </v>
    <v>       0.75000000       0.25000000       0.00000000 </v>
    <v>       0.75000000       0.25000000       0.50000000 </v>
    <v>       0.75000000       0.75000000       0.00000000 </v>
    <v>       0.75000000       0.75000000       0.50000000 </v>
    <v>       0.25000000       0.00000000       0.25000000 </v>
    <v>       0.25000000       0.00000000       0.75000000 </v>
    <v>       0.25000000       0.50000000       0.25000000 </v>
    <v>       0.25000000       0.50000000       0.75000000 </v>
    <v>       0.75000000       0.00000000       0.25000000 </v>
    <v>       0.75000000       0.00000000       0.75000000 </v>
    <v>       0.75000000       0.50000000       0.25000000 </v>
    <v>       0.75000000       0.50000000       0.75000000 </v>
    <v>       0.00000000       0.25000000       0.25000000 </v>
    <v>       0.00000000       0.25000000       0.75000000 </v>
    <v>       0.00000000       0.75000000       0.25000000 </v>
    <v>       0.00000000       0.75000000       0.75000000 </v>
    <v>       0.50000000       0.25000000       0.25000000 </v>
    <v>       0.50000000       0.25000000       0.75000000 </v>
    <v>       0.50000000       0.75000000       0.25000000 </v>
    <v>       0.50000000       0.75000000       0.75000000 </v>
    <v>       0.12500000       0.12500000       0.12500000 </v>
    <v>       0.12500000       0.12500000       0.62500000 </v>
    <v>       0.12500000       0.62500000       0.12500000 </v>
    <v>       0.12500000       0.62500000       0.62500000 </v>
    <v>       0.62500000       0.12500000       0.12500000 </v>
    <v>       0.62500000       0.12500000       0.62500000 </v>
    <v>       0.62500000       0.62500000       0.12500000 </v>
    <v>       0.62500000       0.62500000       0.62500000 </v>
    <v>       0.37500000       0.12500000       0.37500000 </v>
    <v>       0.37500000       0.12500000       0.87500000 </v>
    <v>       0.37500000       0.62500000       0.37500000 </v>
    <v>       0.37500000       0.62500000       0.87500000 </v>
    <v>       0.87500000       0.12500000       0.37500000 </v>
    <v>       0.87500000       0.12500000       0.87500000 </v>
    <v>       0.87500000       0.62500000       0.37500000 </v>
    <v>       0.87500000       0.62500000       0.87500000 </v>
    <v>       0.37500000       0.37500000       0.12500000 </v>
    <v>       0.37500000       0.37500000       0.62500000 </v>
    <v>       0.37500000       0.87500000       0.12500000 </v>
    <v>       0.37500000       0.87500000       0.62500000 </v>
    <v>       0.87500000       0.37500000       0.12500000 </v>
    <v>       0.87500000       0.37500000       0.62500000 </v>
    <v>       0.87500000       0.87500000       0.12500000 </v>
    <v>       0.87500000       0.87500000       0.62500000 </v>
    <v>       0.12500000       0.37500000       0.37500000 </v>
    <v>       0.12500000       0.37500000       0.87500000 </v>
    <v>       0.12500000       0.87500000       0.37500000 </v>
    <v>       0.12500000       0.87500000       0.87500000 </v>
    <v>       0.62500000       0.37500000       0.37500000 </v>
    <v>       0.62500000       0.37500000       0.87500000 </v>
    <v>       0.62500000       0.87500000       0.37500000 </v>
    <v>       0.62500000       0.87500000       0.87500000 </v>
   </varray>
  </structure>
  <varray name="forces" >
   <v>      -0.00000000      -0.00000000       0.00000000 </v>
   <v>      -0.00000000      -0.00000000       0.00000000 </v>
   <v>      -0.00000000      -0.00000000       0.00000000 </v>
   <v>      -0.00000000       0.00000000      -0.00000000 </v>
   <v>       0.00000000      -0.00000000      -0.00000000 </v>
   <v>       0.00000000       0.00000000      -0.00000000 </v>
   <v>       0.00000000      -0.00000000      -0.00000000 </v>
   <v>      -0.00000000      -0.00000000      -0.00000000 </v>
   <v>       0.00000000      -0.00000000       0.00000000 </v>
   <v>      -0.00000000       0.00000000      -0.00000000 </v>
   <v>       0.00000000       0.00000000       0.00000000 </v>
   <v>      -0.00000000       0.00000000       0.00000000 </v>
   <v>      -0.00000000      -0.00000000      -0.00000000 </v>
   <v>      -0.00000000      -0.00000000      -0.00000000 </v>
   <v>      -0.00000000       0.00000000       0.00000000 </v>
   <v>       0.00000000       0.00000000      -0.00000000 </v>
   <v>      -0.00000000       0.00000000      -0.00000000 </v>
   <v>       0.00000000       0.00000000       0.00000000 </v>
   <v>       0.00000000       0.00000000      -0.00000000 </v>
   <v>      -0.00000000      -0.00000000      -0.00000000 </v>
   <v>       0.00000000      -0.00000000       0.00000000 </v>
   <v>      -0.00000000      -0.00000000       0.00000000 </v>
   <v>      -0.00000000       0.00000000       0.00000000 </v>
   <v>       0.00000000      -0.00000000      -0.00000000 </v>
   <v>       0.00000000      -0.00000000      -0.00000000 </v>
   <v>       0.00000000       0.00000000      -0.00000000 </v>
   <v>      -0.00000000       0.00000000       0.00000000 </v>
   <v>       0.00000000       0.00000000       0.00000000 </v>
   <v>      -0.00000000      -0.00000000      -0.00000000 </v>
   <v>      -0.00000000       0.00000000      -0.00000000 </v>
   <v>       0.00000000       0.00000000       0.00000000 </v>
   <v>       0.00000000       0.00000000       0.00000000 </v>
   <v>      -0.00000000       0.00000000      -0.00000000 </v>
   <v>       0.00000000       0.00000000      -0.00000000 </v>
   <v>      -0.00000000      -0.00000000      -0.00000000 </v>
   <v>      -0.00000000      -0.00000000      -0.00000000 </v>
   <v>       0.00000000       0.00000000      -0.00000000 </v>
   <v>       0.00000000       0.00000000      -0.00000000 </v>
   <v>       0.00000000      -0.00000000      -0.00000000 </v>
   <v>      -0.00000000      -0.00000000      -0.00000000 </v>
   <v>      -0.00000000       0.00000000      -0.00000000 </v>
   <v>      -0.00000000       0.00000000      -0.00000000 </v>
   <v>       0.00000000      -0.00000000      -0.00000000 </v>
   <v>      -0.00000000      -0.00000000      -0.00000000 </v>
   <v>       0.00000000       0.00000000      -0.00000000 </v>
   <v>      -0.00000000       0.00000000       0.00000000 </v>
   <v>      -0.00000000      -0.00000000      -0.00000000 </v>
   <v>      -0.00000000      -0.00000000      -0.00000000 </v>
   <v>      -0.00000000      -0.00000000      -0.00000000 </v>
   <v>       0.00000000      -0.00000000      -0.00000000 </v>
   <v>       0.00000000       0.00000000      -0.00000000 </v>
   <v>      -0.00000000      -0.00000000      -0.00000000 </v>
   <v>      -0.00000000       0.00000000      -0.00000000 </v>
   <v>       0.00000000      -0.00000000      -0.00000000 </v>
   <v>      -0.00000000      -0.00000000      -0.00000000 </v>
   <v>       0.00000000      -0.00000000      -0.00000000 </v>
   <v>       0.00000000      -0.00000000       0.00000000 </v>
   <v>       0.00000000      -0.00000000       0.00000000 </v>
   <v>      -0.00000000      -0.00000000      -0.00000000 </v>
   <v>      -0.00000000       0.00000000       0.00000000 </v>
   <v>      -0.00000000      -0.00000000      -0.00000000 </v>
   <v>       0.00000000      -0.00000000      -0.00000000 </v>
   <v>       0.00000000      -0.00000000      -0.00000000 </v>
   <v>       0.00000000      -0.00000000      -0.00000000 </v>
  </varray>
  <varray name="stress" >
   <v>     -13.15413532       0.00000000       0.00000000 </v>
   <v>       0.00000000       0.15662587       0.00000000 </v>
   <v>       0.00000000       0.00000000       0.15662587 </v>
  </varray>
  <scstep>
   <time name="total">  106.26  107.51</time>
   <energy>
    <i name="e_fr_energy">  -1272.68214655 </i>
    <i name="e_wo_entrp">  -1272.68214655 </i>
    <i name="e_0_energy">  -1272.68214655 </i>
   </energy>
  </scstep>
  <scstep>
   <time name="total">   76.21   77.14</time>
   <energy>
    <i name="e_fr_energy">  -1098.44108681 </i>
    <i name="e_wo_entrp">  -1098.44108681 </i>
    <i name="e_0_energy">  -1098.44108681 </i>
   </energy>
  </scstep>
  <scstep>
   <time name="total">   77.86   78.83</time>
   <energy>
    <i name="e_fr_energy">  -1100.63675599 </i>
    <i name="e_wo_entrp">  -1100.63675599 </i>
    <i name="e_0_energy">  -1100.63675599 </i>
   </energy>
  </scstep>
  <scstep>
   <time name="total">   50.21   50.86</time>
   <energy>
    <i name="e_fr_energy">  -1100.75492764 </i>
    <i name="e_wo_entrp">  -1100.75492764 </i>
    <i name="e_0_energy">  -1100.75492764 </i>
   </energy>
  </scstep>
  <scstep>
   <time name="total">   50.94   51.57</time>
   <energy>
    <i name="e_fr_energy">  -1100.75855069 </i>
    <i name="e_wo_entrp">  -1100.75855069 </i>
    <i name="e_0_energy">  -1100.75855069 </i>
   </energy>
  </scstep>
  <scstep>
   <time name="total">   53.33   54.00</time>
   <energy>
    <i name="e_fr_energy">  -1100.75880412 </i>
    <i name="e_wo_entrp">  -1100.75880412 </i>
    <i name="e_0_energy">  -1100.75880412 </i>
   </energy>
  </scstep>
  <scstep>
   <time name="total">   55.97   56.66</time>
   <energy>
    <i name="e_fr_energy">  -1100.75878063 </i>
    <i name="e_wo_entrp">  -1100.75878063 </i>
    <i name="e_0_energy">  -1100.75878063 </i>
   </energy>
  </scstep>
  <scstep>
   <time name="total">   59.45   60.18</time>
   <energy>
    <i name="e_fr_energy">  -1100.75878688 </i>
    <i name="e_wo_entrp">  -1100.75878688 </i>
    <i name="e_0_energy">  -1100.75878688 </i>
   </energy>
  </scstep>
  <scstep>
   <time name="total">   59.89   60.62</time>
   <energy>
    <i name="e_fr_energy">  -1100.75878579 </i>
    <i name="e_wo_entrp">  -1100.75878579 </i>
    <i name="e_0_energy">  -1100.75878579 </i>
   </energy>
  </scstep>
  <scstep>
   <time name="total">   60.73   61.48</time>
   <energy>
    <i name="e_fr_energy">  -1100.75878437 </i>
    <i name="e_wo_entrp">  -1100.75878437 </i>
    <i name="e_0_energy">  -1100.75878437 </i>
   </energy>
  </scstep>
  <scstep>
   <time name="total">   62.68   63.45</time>
   <energy>
    <i name="e_fr_energy">  -1100.75878423 </i>
    <i name="e_wo_entrp">  -1100.75878423 </i>
    <i name="e_0_energy">  -1100.75878423 </i>
   </energy>
  </scstep>
  <scstep>
   <time name="total">  105.22  106.50</time>
   <energy>
    <i name="e_fr_energy">  -1257.30194263 </i>
    <i name="e_wo_entrp">  -1257.30194263 </i>
    <i name="e_0_energy">  -1257.30194263 </i>
   </energy>
  </scstep>
  <scstep>
   <time name="total">   76.96   77.92</time>
   <energy>
    <i name="e_fr_energy">  -1108.30782245 </i>
    <i name="e_wo_entrp">  -1108.30782245 </i>
    <i name="e_0_energy">  -1108.30782245 </i>
   </energy>
  </scstep>
  <scstep>
   <time name="total">   78.76   79.70</time>
   <energy>
    <i name="e_fr_energy">  -1110.26851188 </i>
    <i name="e_wo_entrp">  -1110.26851188 </i>
    <i name="e_0_energy">  -1110.26851188 </i>
   </energy>
  </scstep>
  <scstep>
   <time name="total">   50.81   51.46</time>
   <energy>
    <i name="e_fr_energy">  -1110.34022885 </i>
    <i name="e_wo_entrp">  -1110.34022885 </i>
    <i name="e_0_energy">  -1110.34022885 </i>
   </energy>
  </scstep>
  <scstep>
   <time name="total">   50.41   51.05</time>
   <energy>
    <i name="e_fr_energy">  -1110.31374776 </i>
    <i name="e_wo_entrp">  -1110.31374776 </i>
    <i name="e_0_energy">  -1110.31374776 </i>
   </energy>
  </scstep>
  <scstep>
   <time name="total">   53.20   53.87</time>
   <energy>
    <i name="e_fr_energy">  -1110.30427078 </i>
    <i name="e_wo_entrp">  -1110.30427078 </i>
    <i name="e_0_energy">  -1110.30427078 </i>
   </energy>
  </scstep>
  <scstep>
   <time name="total">   55.91   56.60</time>
   <energy>
    <i name="e_fr_energy">  -1110.30212908 </i>
    <i name="e_wo_entrp">  -1110.30212908 </i>
    <i name="e_0_energy">  -1110.30212908 </i>
   </energy>
  </scstep>
  <scstep>
   <time name="total">   59.59   60.33</time>
   <energy>
    <i name="e_fr_energy">  -1110.30156882 </i>
    <i name="e_wo_entrp">  -1110.30156882 </i>
    <i name="e_0_energy">  -1110.30156882 </i>
   </energy>
  </scstep>
  <scstep>
   <time name="total">   60.51   61.26</time>
   <energy>
    <i name="e_fr_energy">  -1110.30151460 </i>
    <i name="e_wo_entrp">  -1110.30151460 </i>
    <i name="e_0_energy">  -1110.30151460 </i>
   </energy>
  </scstep>
  <scstep>
   <time name="total">   62.04   62.80</time>
   <energy>
    <i name="e_fr_energy">  -1110.30136284 </i>
    <i name="e_wo_entrp">  -1110.30136284 </i>
    <i name="e_0_energy">  -1110.30136284 </i>
   </energy>
  </scstep>
  <scstep>
   <time name="total">   63.61   64.39</time>
   <energy>
    <i name="e_fr_energy">  -1110.30147753 </i>
    <i name="e_wo_entrp">  -1110.30147753 </i>
    <i name="e_0_energy">  -1110.30147753 </i>
   </energy>
  </scstep>
  <scstep>
   <time name="total">  107.19  108.48</time>
   <energy>
    <i name="e_fr_energy">  -1376.40394760 </i>
    <i name="e_wo_entrp">  -1376.40394760 </i>
    <i name="e_0_energy">  -1376.40394760 </i>
   </energy>
  </scstep>
  <scstep>
   <time name="total">   77.98   78.95</time>
   <energy>
    <i name="e_fr_energy">  -1113.44016896 </i>
    <i name="e_wo_entrp">  -1113.44016896 </i>
    <i name="e_0_energy">  -1113.44016896 </i>
   </energy>
  </scstep>
  <scstep>
   <time name="total">   78.37   79.32</time>
   <energy>
    <i name="e_fr_energy">  -1115.54653071 </i>
    <i name="e_wo_entrp">  -1115.54653071 </i>
    <i name="e_0_energy">  -1115.54653071 </i>
   </energy>
  </scstep>
  <scstep>
   <time name="total">   50.84   51.47</time>
   <energy>
    <i name="e_fr_energy">  -1115.64099485 </i>
    <i name="e_wo_entrp">  -1115.64099485 </i>
    <i name="e_0_energy">  -1115.64099485 </i>
   </energy>
  </scstep>
  <scstep>
   <time name="total">   50.64   51.28</time>
   <energy>
    <i name="e_fr_energy">  -1115.61448311 </i>
    <i name="e_wo_entrp">  -1115.61448311 </i>
    <i name="e_0_energy">  -1115.61448311 </i>
   </energy>
  </scstep>
  <scstep>
   <time name="total">   52.95   53.61</time>
   <energy>
    <i name="e_fr_energy">  -1115.60489383 </i>
    <i name="e_wo_entrp">  -1115.60489383 </i>
    <i name="e_0_energy">  -1115.60489383 </i>
   </energy>
  </scstep>
  <scstep>
   <time name="total">   55.19   55.87</time>
   <energy>
    <i name="e_fr_energy">  -1115.60271274 </i>
    <i name="e_wo_entrp">  -1115.60271274 </i>
    <i name="e_0_energy">  -1115.60271274 </i>
   </energy>
  </scstep>
  <scstep>
   <time name="total">   59.07   59.81</time>
   <energy>
    <i name="e_fr_energy">  -1115.60238703 </i>
    <i name="e_wo_entrp">  -1115.60238703 </i>
    <i name="e_0_energy">  -1115.60238703 </i>
   </energy>
  </scstep>
  <scstep>
   <time name="total">   59.71   60.45</time>
   <energy>
    <i name="e_fr_energy">  -1115.60216702 </i>
    <i name="e_wo_entrp">  -1115.60216702 </i>
    <i name="e_0_energy">  -1115.60216702 </i>
   </energy>
  </scstep>
  <scstep>
   <time name="total">   61.59   62.35</time>
   <energy>
    <i name="e_fr_energy">  -1115.60247318 </i>
    <i name="e_wo_entrp">  -1115.60247318 </i>
    <i name="e_0_energy">  -1115.60247318 </i>
   </energy>
  </scstep>
  <scstep>
   <time name="total">   62.99   63.77</time>
   <energy>
    <i name="e_fr_energy">  -1115.60193309 </i>
    <i name="e_wo_entrp">  -1115.60193309 </i>
    <i name="e_0_energy">  -1115.60193309 </i>
   </energy>
  </scstep>
  <kpoints>
   <generation param="Gamma">
    <v type="int" name="divisions">       5        5        5 </v>
    <v name="usershift">      0.00000000       0.00000000       0.00000000 </v>
    <v name="genvec1">      0.20000000       0.00000000       0.00000000 </v>
    <v name="genvec2">      0.00000000       0.20000000       0.00000000 </v>
    <v name="genvec3">      0.00000000       0.00000000       0.20000000 </v>
    <v name="shift">      0.00000000       0.00000000       0.00000000 </v>
   </generation>
   <varray name="kpointlist" >
    <v>       0.00000000       0.00000000       0.00000000 </v>
    <v>       0.20000000       0.00000000       0.00000000 </v>
    <v>       0.40000000       0.00000000       0.00000000 </v>
    <v>       0.00000000       0.20000000       0.00000000 </v>
    <v>       0.20000000       0.20000000       0.00000000 </v>
    <v>       0.40000000       0.20000000       0.00000000 </v>
    <v>       0.00000000       0.40000000       0.00000000 </v>
    <v>       0.20000000       0.40000000       0.00000000 </v>
    <v>       0.40000000       0.40000000       0.00000000 </v>
    <v>       0.00000000       0.20000000       0.20000000 </v>
    <v>       0.00000000      -0.20000000       0.20000000 </v>
    <v>       0.20000000       0.20000000       0.20000000 </v>
    <v>       0.20000000      -0.20000000       0.20000000 </v>
    <v>       0.40000000       0.20000000       0.20000000 </v>
    <v>       0.40000000      -0.20000000       0.20000000 </v>
    <v>       0.00000000       0.40000000       0.20000000 </v>
    <v>       0.00000000      -0.20000000       0.40000000 </v>
    <v>       0.20000000       0.40000000       0.20000000 </v>
    <v>       0.20000000      -0.20000000       0.40000000 </v>
    <v>       0.40000000       0.40000000       0.20000000 </v>
    <v>       0.40000000      -0.20000000       0.40000000 </v>
    <v>       0.00000000       0.40000000       0.40000000 </v>
    <v>       0.00000000      -0.40000000       0.40000000 </v>
    <v>       0.20000000       0.40000000       0.40000000 </v>
    <v>       0.20000000      -0.40000000       0.40000000 </v>
    <v>       0.40000000       0.40000000       0.40000000 </v>
    <v>       0.40000000      -0.40000000       0.40000000 </v>
   </varray>
   <varray name="weights" >
    <v>       0.00800000 </v>
    <v>       0.01600000 </v>
    <v>       0.01600000 </v>
    <v>       0.03200000 </v>
    <v>       0.06400000 </v>
    <v>       0.06400000 </v>
    <v>       0.03200000 </v>
    <v>       0.06400000 </v>
    <v>       0.06400000 </v>
    <v>       0.01600000 </v>
    <v>       0.01600000 </v>
    <v>       0.03200000 </v>
    <v>       0.03200000 </v>
    <v>       0.03200000 </v>
    <v>       0.03200000 </v>
    <v>       0.03200000 </v>
    <v>       0.03200000 </v>
    <v>       0.06400000 </v>
    <v>       0.06400000 </v>
    <v>       0.06400000 </v>
    <v>       0.06400000 </v>
    <v>       0.01600000 </v>
    <v>       0.01600000 </v>
    <v>       0.03200000 </v>
    <v>       0.03200000 </v>
    <v>       0.03200000 </v>
    <v>       0.03200000 </v>
   </varray>
   <varray name="tetrahedronlist"  type="int" >
    <v type="int" >        4       12       14       18       20 </v>
    <v type="int" >        4       12       18       18       20 </v>
    <v type="int" >        4       18       18       20       24 </v>
    <v type="int" >        4       14       18       20       20 </v>
    <v type="int" >        4       18       20       20       26 </v>
    <v type="int" >        4       18       20       24       26 </v>
    <v type="int" >        2       14       14       20       20 </v>
    <v type="int" >        4       14       20       20       20 </v>
    <v type="int" >        4       20       20       20       26 </v>
    <v type="int" >        2       20       20       26       26 </v>
    <v type="int" >        4       10       12       16       18 </v>
    <v type="int" >        4       12       16       18       18 </v>
    <v type="int" >        4       16       18       18       24 </v>
    <v type="int" >        4       10       16       16       18 </v>
    <v type="int" >        4       16       16       18       22 </v>
    <v type="int" >        4       16       18       22       24 </v>
    <v type="int" >        4       18       20       21       24 </v>
    <v type="int" >        4       18       19       21       24 </v>
    <v type="int" >        4       19       21       24       25 </v>
    <v type="int" >        4       20       21       24       26 </v>
    <v type="int" >        4       21       24       26       27 </v>
    <v type="int" >        4       21       24       25       27 </v>
    <v type="int" >        4       20       20       21       26 </v>
    <v type="int" >        4       20       21       21       26 </v>
    <v type="int" >        4       21       21       26       27 </v>
    <v type="int" >        4       20       21       26       26 </v>
    <v type="int" >        4       21       26       26       27 </v>
    <v type="int" >        4       21       26       27       27 </v>
    <v type="int" >        4       18       19       20       26 </v>
    <v type="int" >        4       19       20       21       26 </v>
    <v type="int" >        4       19       21       26       27 </v>
    <v type="int" >        4       18       19       24       26 </v>
    <v type="int" >        4       19       24       25       26 </v>
    <v type="int" >        4       19       25       26       27 </v>
    <v type="int" >        4       16       17       18       24 </v>
    <v type="int" >        4       17       18       19       24 </v>
    <v type="int" >        4       17       19       24       25 </v>
    <v type="int" >        4       16       17       22       24 </v>
    <v type="int" >        4       17       22       23       24 </v>
    <v type="int" >        4       17       23       24       25 </v>
    <v type="int" >        4       16       18       19       22 </v>
    <v type="int" >        4       16       17       19       22 </v>
    <v type="int" >        4       17       19       22       23 </v>
    <v type="int" >        4       18       19       22       24 </v>
    <v type="int" >        4       19       22       24       25 </v>
    <v type="int" >        4       19       22       23       25 </v>
    <v type="int" >        4       15       19       21       25 </v>
    <v type="int" >        4       13       15       19       25 </v>
    <v type="int" >        4       15       21       25       27 </v>
    <v type="int" >        4       15       21       21       27 </v>
    <v type="int" >        4       15       15       21       27 </v>
    <v type="int" >        4       15       21       27       27 </v>
    <v type="int" >        4       13       19       21       27 </v>
    <v type="int" >        4       13       15       21       27 </v>
    <v type="int" >        4       13       19       25       27 </v>
    <v type="int" >        4       11       17       19       25 </v>
    <v type="int" >        4       11       13       19       25 </v>
    <v type="int" >        4       11       17       23       25 </v>
    <v type="int" >        4       13       17       19       23 </v>
    <v type="int" >        4       11       13       17       23 </v>
    <v type="int" >        4       13       19       23       25 </v>
    <v type="int" >        4        6       13       15       19 </v>
    <v type="int" >        4        5        6       13       19 </v>
    <v type="int" >        4        5        6        8       19 </v>
    <v type="int" >        4        6       15       19       21 </v>
    <v type="int" >        4        6        9       19       21 </v>
    <v type="int" >        4        6        8        9       19 </v>
    <v type="int" >        4        6       15       15       21 </v>
    <v type="int" >        4        6        6       15       21 </v>
    <v type="int" >        4        6        6        9       21 </v>
    <v type="int" >        4        6       15       21       21 </v>
    <v type="int" >        4        6        9       21       21 </v>
    <v type="int" >        4        6        9        9       21 </v>
    <v type="int" >        4        5       13       15       21 </v>
    <v type="int" >        4        5        6       15       21 </v>
    <v type="int" >        4        5        6        9       21 </v>
    <v type="int" >        4        5       13       19       21 </v>
    <v type="int" >        4        5        8       19       21 </v>
    <v type="int" >        4        5        8        9       21 </v>
    <v type="int" >        4        4       11       13       19 </v>
    <v type="int" >        4        4        5       13       19 </v>
    <v type="int" >        4        4        5        8       19 </v>
    <v type="int" >        4        4       11       17       19 </v>
    <v type="int" >        4        4        7       17       19 </v>
    <v type="int" >        4        4        7        8       19 </v>
    <v type="int" >        4        5       11       13       17 </v>
    <v type="int" >        4        4        5       11       17 </v>
    <v type="int" >        4        4        5        7       17 </v>
    <v type="int" >        4        5       13       17       19 </v>
    <v type="int" >        4        5        8       17       19 </v>
    <v type="int" >        4        5        7        8       17 </v>
    <v type="int" >        4        5        6        8       14 </v>
    <v type="int" >        4        5        8       12       14 </v>
    <v type="int" >        4        8       12       14       18 </v>
    <v type="int" >        4        6        8        9       14 </v>
    <v type="int" >        4        8        9       14       20 </v>
    <v type="int" >        4        8       14       18       20 </v>
    <v type="int" >        4        6        6        9       14 </v>
    <v type="int" >        4        6        9       14       14 </v>
    <v type="int" >        4        9       14       14       20 </v>
    <v type="int" >        4        6        9        9       14 </v>
    <v type="int" >        4        9        9       14       20 </v>
    <v type="int" >        4        9       14       20       20 </v>
    <v type="int" >        4        5        6        9       12 </v>
    <v type="int" >        4        6        9       12       14 </v>
    <v type="int" >        4        9       12       14       20 </v>
    <v type="int" >        4        5        8        9       12 </v>
    <v type="int" >        4        8        9       12       18 </v>
    <v type="int" >        4        9       12       18       20 </v>
    <v type="int" >        4        4        5        8       10 </v>
    <v type="int" >        4        5        8       10       12 </v>
    <v type="int" >        4        8       10       12       18 </v>
    <v type="int" >        4        4        7        8       10 </v>
    <v type="int" >        4        7        8       10       16 </v>
    <v type="int" >        4        8       10       16       18 </v>
    <v type="int" >        4        4        5        7       12 </v>
    <v type="int" >        4        4        7       10       12 </v>
    <v type="int" >        4        7       10       12       16 </v>
    <v type="int" >        4        5        7        8       12 </v>
    <v type="int" >        4        7        8       12       18 </v>
    <v type="int" >        4        7       12       16       18 </v>
    <v type="int" >        4       24       25       26       27 </v>
    <v type="int" >        4       24       25       25       27 </v>
    <v type="int" >        4       25       26       27       27 </v>
    <v type="int" >        2       26       26       27       27 </v>
    <v type="int" >        4       26       27       27       27 </v>
    <v type="int" >        4       22       23       24       25 </v>
    <v type="int" >        4       23       24       25       25 </v>
    <v type="int" >        4       22       23       23       25 </v>
    <v type="int" >        4        9       18       19       21 </v>
    <v type="int" >        4        8        9       18       19 </v>
    <v type="int" >        4        8        8        9       18 </v>
    <v type="int" >        4        9       18       20       21 </v>
    <v type="int" >        4        9        9       18       20 </v>
    <v type="int" >        4        8        9        9       18 </v>
    <v type="int" >        4        9       20       21       21 </v>
    <v type="int" >        4        9        9       20       21 </v>
    <v type="int" >        8        9        9        9       20 </v>
    <v type="int" >        4        9       20       20       21 </v>
    <v type="int" >        4        9        9       20       20 </v>
    <v type="int" >        4        8       19       20       21 </v>
    <v type="int" >        4        8        9       20       21 </v>
    <v type="int" >        4        8        9        9       20 </v>
    <v type="int" >        4        8       18       19       20 </v>
    <v type="int" >        4        8        8       18       20 </v>
    <v type="int" >        4        8        8        9       20 </v>
    <v type="int" >        4        7       17       18       19 </v>
    <v type="int" >        4        7        8       18       19 </v>
    <v type="int" >        4        7        8        8       18 </v>
    <v type="int" >        4        7       16       17       18 </v>
    <v type="int" >        4        7        7       16       18 </v>
    <v type="int" >        4        7        7        8       18 </v>
    <v type="int" >        4        8       16       17       19 </v>
    <v type="int" >        4        7        8       16       17 </v>
    <v type="int" >        4        7        7        8       16 </v>
    <v type="int" >        4        8       16       18       19 </v>
    <v type="int" >        4        8        8       16       18 </v>
    <v type="int" >        4        7        8        8       16 </v>
    <v type="int" >        4        5        6       12       14 </v>
    <v type="int" >        4        5        5        6       12 </v>
    <v type="int" >        4        2        5        5        6 </v>
    <v type="int" >        4        5        6        6       14 </v>
    <v type="int" >        4        3        5        6        6 </v>
    <v type="int" >        4        2        3        5        6 </v>
    <v type="int" >        2        6        6       14       14 </v>
    <v type="int" >        4        6        6        6       14 </v>
    <v type="int" >        4        3        6        6        6 </v>
    <v type="int" >        2        3        3        6        6 </v>
    <v type="int" >        4        4        5       10       12 </v>
    <v type="int" >        4        4        5        5       12 </v>
    <v type="int" >        4        2        4        5        5 </v>
    <v type="int" >        4        4        4        5       10 </v>
    <v type="int" >        4        1        4        4        5 </v>
    <v type="int" >        4        1        2        4        5 </v>
    <v type="int" >        4        2        5        6       15 </v>
    <v type="int" >        4        2        5       13       15 </v>
    <v type="int" >        4        2        3        6       15 </v>
    <v type="int" >        4        3        6        6       15 </v>
    <v type="int" >        4        3        6       15       15 </v>
    <v type="int" >        4        3        3        6       15 </v>
    <v type="int" >        4        3        5        6       13 </v>
    <v type="int" >        4        3        6       13       15 </v>
    <v type="int" >        4        2        3        5       13 </v>
    <v type="int" >        4        2        4        5       11 </v>
    <v type="int" >        4        2        5       11       13 </v>
    <v type="int" >        4        1        2        4       11 </v>
    <v type="int" >        4        1        4        5       13 </v>
    <v type="int" >        4        1        4       11       13 </v>
    <v type="int" >        4        1        2        5       13 </v>
   </varray>
   <i name="volumeweight">      0.00133333 </i>
  </kpoints>
  <scstep>
   <time name="total">  115.04  116.56</time>
   <energy>
    <i name="e_fr_energy">   -104.97529239 </i>
    <i name="e_wo_entrp">   -104.97529239 </i>
    <i name="e_0_energy">   -104.97529239 </i>
   </energy>
  </scstep>
  <scstep>
   <time name="total">  105.55  106.95</time>
   <energy>
    <i name="e_fr_energy">   -226.36448375 </i>
    <i name="e_wo_entrp">   -226.36448375 </i>
    <i name="e_0_energy">   -226.36448375 </i>
   </energy>
  </scstep>
  <scstep>
   <time name="total">  104.78  106.17</time>
   <energy>
    <i name="e_fr_energy">   -223.32974339 </i>
    <i name="e_wo_entrp">   -223.32974339 </i>
    <i name="e_0_energy">   -223.32974339 </i>
   </energy>
  </scstep>
  <scstep>
   <time name="total">  102.08  103.44</time>
   <energy>
    <i name="e_fr_energy">   -215.34522776 </i>
    <i name="e_wo_entrp">   -215.34522776 </i>
    <i name="e_0_energy">   -215.34522776 </i>
   </energy>
  </scstep>
  <scstep>
   <time name="total">  106.86  108.28</time>
   <energy>
    <i name="e_fr_energy">   -214.60560849 </i>
    <i name="e_wo_entrp">   -214.60560849 </i>
    <i name="e_0_energy">   -214.60560849 </i>
   </energy>
  </scstep>
  <scstep>
   <time name="total">  109.96  111.42</time>
   <energy>
    <i name="e_fr_energy">   -214.54687151 </i>
    <i name="e_wo_entrp">   -214.54687151 </i>
    <i name="e_0_energy">   -214.54687151 </i>
   </energy>
  </scstep>
  <scstep>
   <time name="total">  106.62  108.02</time>
   <energy>
    <i name="e_fr_energy">   -214.47619062 </i>
    <i name="e_wo_entrp">   -214.47619062 </i>
    <i name="e_0_energy">   -214.47619062 </i>
   </energy>
  </scstep>
  <scstep>
   <time name="total">  110.02  111.46</time>
   <energy>
    <i name="e_fr_energy">   -214.46099069 </i>
    <i name="e_wo_entrp">   -214.46099069 </i>
    <i name="e_0_energy">   -214.46099069 </i>
   </energy>
  </scstep>
  <scstep>
   <time name="total">  112.47  113.94</time>
   <energy>
    <i name="e_fr_energy">   -214.46658777 </i>
    <i name="e_wo_entrp">   -214.46658777 </i>
    <i name="e_0_energy">   -214.46658777 </i>
   </energy>
  </scstep>
  <scstep>
   <time name="total">  116.36  117.87</time>
   <energy>
    <i name="e_fr_energy">   -214.46602983 </i>
    <i name="e_wo_entrp">   -214.46602983 </i>
    <i name="e_0_energy">   -214.46602983 </i>
   </energy>
  </scstep>
  <scstep>
   <time name="total">  116.71  118.23</time>
   <energy>
    <i name="e_fr_energy">   -214.46604210 </i>
    <i name="e_wo_entrp">   -214.46604210 </i>
    <i name="e_0_energy">   -214.46604210 </i>
   </energy>
  </scstep>
  <scstep>
   <time name="total">  109.59  111.02</time>
   <energy>
    <i name="e_fr_energy">   -214.46605918 </i>
    <i name="e_wo_entrp">   -214.46605918 </i>
    <i name="e_0_energy">   -214.46605918 </i>
   </energy>
  </scstep>
  <scstep>
   <time name="total">  111.73  113.18</time>
   <energy>
    <i name="e_fr_energy">   -214.46604298 </i>
    <i name="e_wo_entrp">   -214.46604298 </i>
    <i name="e_0_energy">   -214.46604298 </i>
   </energy>
  </scstep>
  <kpoints>
[...]
     <r>     7.2704     0.0000     0.0000     0.0000     0.0000     0.0000     0.0000 </r>
     <r>     7.2804     0.0000     0.0000     0.0000     0.0000     0.0000     0.0000 </r>
    </set>
   </array>
  </conductivity>
  <dos>
   <i name="efermi">      2.27987104 </i>
   <total>
    <array>
     <dimension dim="1">gridpoints</dimension>
     <dimension dim="2">spin</dimension>
     <field>energy</field>
     <field>total</field>
     <field>integrated</field>
     <set>
      <set comment="spin 1">
       <r>   -11.0269     0.0000     0.0000 </r>
       <r>   -10.9654     0.0000     0.0000 </r>
       <r>   -10.9039     0.0000     0.0000 </r>
       <r>   -10.8423     0.0000     0.0000 </r>
       <r>   -10.7808     0.0000     0.0000 </r>
       <r>   -10.7193     0.0000     0.0000 </r>
       <r>   -10.6577     0.0000     0.0000 </r>
       <r>   -10.5962     0.0000     0.0000 </r>
       <r>   -10.5347     0.0000     0.0000 </r>
       <r>   -10.4731     0.0000     0.0000 </r>
       <r>   -10.4116     0.0000     0.0000 </r>
       <r>   -10.3501     0.0000     0.0000 </r>
       <r>   -10.2885     0.0000     0.0000 </r>
       <r>   -10.2270     0.0000     0.0000 </r>
       <r>   -10.1655     0.0000     0.0000 </r>
       <r>   -10.1039     0.0000     0.0000 </r>
       <r>   -10.0424     0.0000     0.0000 </r>
       <r>    -9.9808     3.1282     0.0542 </r>
       <r>    -9.9193     4.8751     0.3018 </r>
       <r>    -9.8578    11.7721     0.7740 </r>
       <r>    -9.7962     7.6059     1.2994 </r>
       <r>    -9.7347     5.8159     1.7664 </r>
       <r>    -9.6732    11.4429     2.2564 </r>
       <r>    -9.6116    13.3592     2.9379 </r>
       <r>    -9.5501    14.1119     3.8021 </r>
       <r>    -9.4886    11.7249     4.5346 </r>
       <r>    -9.4270    22.4188     5.4776 </r>
       <r>    -9.3655    11.0688     6.5242 </r>
       <r>    -9.3040    14.9650     7.3016 </r>
       <r>    -9.2424    14.9851     8.2281 </r>
       <r>    -9.1809    27.3659     9.4858 </r>
       <r>    -9.1194    29.4251    11.1889 </r>
       <r>    -9.0578    15.1863    12.6160 </r>
       <r>    -8.9963    22.8282    13.3583 </r>
       <r>    -8.9348    24.0992    15.0878 </r>
       <r>    -8.8732    16.4343    16.2782 </r>
       <r>    -8.8117    44.2082    18.1193 </r>
       <r>    -8.7502    30.8674    20.2752 </r>
       <r>    -8.6886    32.4402    22.1024 </r>
       <r>    -8.6271    43.3751    24.2610 </r>
       <r>    -8.5656    52.3335    26.6786 </r>
       <r>    -8.5040    59.9748    30.1106 </r>
       <r>    -8.4425    52.7229    33.6554 </r>
       <r>    -8.3810    58.4132    37.0425 </r>
       <r>    -8.3194    60.9976    40.2441 </r>
       <r>    -8.2579    44.6814    42.4519 </r>
       <r>    -8.1964    36.7046    45.4285 </r>
       <r>    -8.1348    81.4445    49.3923 </r>
       <r>    -8.0733    53.6786    52.5649 </r>
       <r>    -8.0117    64.9337    55.9764 </r>
       <r>    -7.9502    83.7749    60.4462 </r>
       <r>    -7.8887    27.3490    63.7015 </r>
       <r>    -7.8271     1.5601    64.0000 </r>
       <r>    -7.7656     0.0000    64.0000 </r>
       <r>    -7.7041     0.0000    64.0000 </r>
       <r>    -7.6425     0.0000    64.0000 </r>
       <r>    -7.5810     0.0000    64.0000 </r>
       <r>    -7.5195     0.0000    64.0000 </r>
       <r>    -7.4579     0.0000    64.0000 </r>
       <r>    -7.3964     0.0000    64.0000 </r>
       <r>    -7.3349     0.0000    64.0000 </r>
       <r>    -7.2733     0.0000    64.0000 </r>
       <r>    -7.2118     0.0000    64.0000 </r>
       <r>    -7.1503     0.0000    64.0000 </r>
       <r>    -7.0887     0.0000    64.0000 </r>
       <r>    -7.0272     0.0000    64.0000 </r>
       <r>    -6.9657     0.0000    64.0000 </r>
       <r>    -6.9041     0.0000    64.0000 </r>
       <r>    -6.8426     0.0000    64.0000 </r>
       <r>    -6.7811     0.0000    64.0000 </r>
       <r>    -6.7195     0.0000    64.0000 </r>
       <r>    -6.6580     0.0000    64.0000 </r>
       <r>    -6.5965     0.0000    64.0000 </r>
       <r>    -6.5349     0.0000    64.0000 </r>
       <r>    -6.4734     0.0000    64.0000 </r>
       <r>    -6.4119     0.0000    64.0000 </r>
       <r>    -6.3503     0.0000    64.0000 </r>
       <r>    -6.2888     0.0000    64.0000 </r>
       <r>    -6.2273     0.0000    64.0000 </r>
       <r>    -6.1657     0.0000    64.0000 </r>
       <r>    -6.1042     0.0000    64.0000 </r>
       <r>    -6.0426     0.0000    64.0000 </r>
       <r>    -5.9811     0.0000    64.0000 </r>
       <r>    -5.9196     0.0000    64.0000 </r>
       <r>    -5.8580     0.0000    64.0000 </r>
       <r>    -5.7965     0.0000    64.0000 </r>
       <r>    -5.7350     0.0000    64.0000 </r>
       <r>    -5.6734     0.0000    64.0000 </r>
       <r>    -5.6119     0.0000    64.0000 </r>
       <r>    -5.5504     0.0000    64.0000 </r>
       <r>    -5.4888     0.0000    64.0000 </r>
       <r>    -5.4273     0.0000    64.0000 </r>
       <r>    -5.3658     0.0000    64.0000 </r>
       <r>    -5.3042     0.0000    64.0000 </r>
       <r>    -5.2427     0.0000    64.0000 </r>
       <r>    -5.1812     0.0000    64.0000 </r>
       <r>    -5.1196     0.0000    64.0000 </r>
       <r>    -5.0581     0.0000    64.0000 </r>
       <r>    -4.9966     0.0000    64.0000 </r>
       <r>    -4.9350     0.0000    64.0000 </r>
       <r>    -4.8735     0.0000    64.0000 </r>
       <r>    -4.8120     0.0000    64.0000 </r>
       <r>    -4.7504     0.0000    64.0000 </r>
       <r>    -4.6889     0.0000    64.0000 </r>
       <r>    -4.6274     0.0000    64.0000 </r>
       <r>    -4.5658     0.0000    64.0000 </r>
       <r>    -4.5043     0.0000    64.0000 </r>
       <r>    -4.4428     0.0000    64.0000 </r>
       <r>    -4.3812     0.0000    64.0000 </r>
       <r>    -4.3197     0.9598    64.0097 </r>
       <r>    -4.2582     4.8851    64.1730 </r>
       <r>    -4.1966    15.0335    64.6365 </r>
       <r>    -4.1351    27.2610    65.9120 </r>
       <r>    -4.0736    65.2490    68.3068 </r>
       <r>    -4.0120    74.4814    72.4509 </r>
       <r>    -3.9505   129.6007    77.5266 </r>
       <r>    -3.8889   126.0470    84.0063 </r>
       <r>    -3.8274    50.5221    87.7536 </r>
       <r>    -3.7659    70.3041    92.1186 </r>
       <r>    -3.7043    34.9035    94.2186 </r>
       <r>    -3.6428    17.0807    95.4665 </r>
       <r>    -3.5813    48.1549    97.1469 </r>
       <r>    -3.5197    37.0247    99.6965 </r>
       <r>    -3.4582    19.2870   101.2323 </r>
       <r>    -3.3967    16.3267   102.3224 </r>
       <r>    -3.3351    20.7952   103.3879 </r>
       <r>    -3.2736    48.2299   105.9922 </r>
       <r>    -3.2121    12.9197   107.2029 </r>
       <r>    -3.1505    13.7073   108.0326 </r>
       <r>    -3.0890     7.8965   108.6547 </r>
       <r>    -3.0275    11.3948   109.2102 </r>
       <r>    -2.9659    12.8956   109.9767 </r>
       <r>    -2.9044    19.8566   110.9342 </r>
       <r>    -2.8429    13.9745   111.8740 </r>
       <r>    -2.7813    13.3461   112.7110 </r>
       <r>    -2.7198    13.0938   113.5208 </r>
       <r>    -2.6583    13.3874   114.3309 </r>
       <r>    -2.5967    11.2380   115.0884 </r>
       <r>    -2.5352     7.9482   115.7161 </r>
       <r>    -2.4737     6.1636   116.1200 </r>
       <r>    -2.4121     7.1103   116.5245 </r>
       <r>    -2.3506     8.1483   116.9926 </r>
       <r>    -2.2891    11.0114   117.5613 </r>
       <r>    -2.2275    11.3098   118.2737 </r>
       <r>    -2.1660     8.4649   118.8989 </r>
       <r>    -2.1045     7.9268   119.3741 </r>
       <r>    -2.0429     6.0697   119.8632 </r>
       <r>    -1.9814     5.5722   120.1643 </r>
       <r>    -1.9198     4.2640   120.4418 </r>
       <r>    -1.8583     3.8545   120.6897 </r>
       <r>    -1.7968     3.8106   120.9240 </r>
       <r>    -1.7352     4.0124   121.1640 </r>
       <r>    -1.6737     6.6426   121.4737 </r>
       <r>    -1.6122    10.0118   121.9983 </r>
       <r>    -1.5506     7.4012   122.5866 </r>
       <r>    -1.4891     7.3616   123.0639 </r>
       <r>    -1.4276     5.7966   123.4553 </r>
       <r>    -1.3660     8.3331   123.8697 </r>
       <r>    -1.3045    23.4340   124.7352 </r>
       <r>    -1.2430    29.7168   126.4602 </r>
       <r>    -1.1814    50.9206   128.8539 </r>
       <r>    -1.1199    49.2708   131.8801 </r>
       <r>    -1.0584    49.3729   134.4291 </r>
       <r>    -0.9968    60.0192   137.8104 </r>
       <r>    -0.9353    38.5658   140.5016 </r>
       <r>    -0.8738    34.4422   142.5448 </r>
       <r>    -0.8122    36.2527   144.6358 </r>
       <r>    -0.7507    28.7931   146.6268 </r>
       <r>    -0.6892    37.6431   148.5897 </r>
       <r>    -0.6276    37.1238   150.7799 </r>
       <r>    -0.5661    38.6915   153.0881 </r>
       <r>    -0.5046    45.7116   155.5930 </r>
       <r>    -0.4430    51.9026   158.4075 </r>
       <r>    -0.3815    48.5917   161.3735 </r>
       <r>    -0.3200    52.7469   164.4699 </r>
       <r>    -0.2584    48.6436   167.5181 </r>
       <r>    -0.1969    41.9814   170.3217 </r>
       <r>    -0.1354    60.4499   173.4516 </r>
       <r>    -0.0738    64.7233   176.8445 </r>
       <r>    -0.0123    63.5719   180.3819 </r>
       <r>     0.0493    55.1139   183.8287 </r>
       <r>     0.1108    48.4562   186.6602 </r>
       <r>     0.1723    54.5520   190.0770 </r>
       <r>     0.2339    44.0578   192.7541 </r>
       <r>     0.2954    58.6250   195.3784 </r>
       <r>     0.3569    52.6545   198.8483 </r>
       <r>     0.4185    57.6269   201.9596 </r>
       <r>     0.4800    76.6428   205.1340 </r>
       <r>     0.5415    73.2733   209.0669 </r>
       <r>     0.6031    47.9866   211.6738 </r>
       <r>     0.6646    45.8439   214.8597 </r>
       <r>     0.7261    44.1468   217.6534 </r>
       <r>     0.7877    44.7694   220.4802 </r>
       <r>     0.8492    50.1688   222.9977 </r>
       <r>     0.9107    47.3978   226.0968 </r>
       <r>     0.9723    37.7064   228.5722 </r>
       <r>     1.0338    43.0115   231.0634 </r>
       <r>     1.0953    45.3087   233.8299 </r>
       <r>     1.1569    50.9915   236.2987 </r>
       <r>     1.2184    44.1324   239.3319 </r>
       <r>     1.2799    38.3823   241.8820 </r>
       <r>     1.3415    28.3562   243.8369 </r>
       <r>     1.4030    24.3834   245.4017 </r>
       <r>     1.4645    21.4929   246.8398 </r>
       <r>     1.5261    22.9563   248.1412 </r>
       <r>     1.5876    18.6324   249.3956 </r>
       <r>     1.6491    13.6792   250.4308 </r>
       <r>     1.7107    12.0271   251.1328 </r>
       <r>     1.7722    24.7494   252.1911 </r>
       <r>     1.8337     9.3309   253.1081 </r>
       <r>     1.8953     7.5939   253.6299 </r>
       <r>     1.9568    14.1716   254.2287 </r>
       <r>     2.0184    10.7342   255.0287 </r>
       <r>     2.0799     5.7973   255.5168 </r>
       <r>     2.1414     2.6846   255.7809 </r>
       <r>     2.2030     1.9339   255.9629 </r>
       <r>     2.2645     0.0430   255.9998 </r>
       <r>     2.3260     0.0000   256.0000 </r>
       <r>     2.3876     0.0009   256.0000 </r>
       <r>     2.4491     0.0040   256.0002 </r>
       <r>     2.5106     0.0092   256.0006 </r>
       <r>     2.5722     0.0167   256.0013 </r>
       <r>     2.6337     0.0263   256.0026 </r>
       <r>     2.6952     0.0381   256.0046 </r>
       <r>     2.7568     0.0521   256.0074 </r>
       <r>     2.8183     0.0682   256.0111 </r>
       <r>     2.8798     0.0866   256.0158 </r>
       <r>     2.9414     0.1071   256.0218 </r>
       <r>     3.0029     0.1298   256.0290 </r>
       <r>     3.0644     0.1547   256.0378 </r>
       <r>     3.1260     0.2271   256.0486 </r>
       <r>     3.1875     0.7736   256.0753 </r>
       <r>     3.2490     1.5553   256.1472 </r>
       <r>     3.3106     2.2817   256.2655 </r>
       <r>     3.3721     5.9860   256.4512 </r>
       <r>     3.4336     5.6104   256.7985 </r>
       <r>     3.4952     7.5170   257.1861 </r>
       <r>     3.5567     8.4912   257.6948 </r>
       <r>     3.6182     7.0027   258.1169 </r>
       <r>     3.6798     8.6614   258.6188 </r>
       <r>     3.7413    11.7344   259.2623 </r>
       <r>     3.8028    16.8024   260.0740 </r>
       <r>     3.8644    20.8248   261.4199 </r>
       <r>     3.9259    29.3091   262.8450 </r>
       <r>     3.9874    31.9411   264.6187 </r>
       <r>     4.0490    23.3464   266.3783 </r>
       <r>     4.1105    24.9310   267.7211 </r>
       <r>     4.1721    28.5074   269.1264 </r>
       <r>     4.2336    44.5689   271.0010 </r>
       <r>     4.2951    44.9808   273.5962 </r>
       <r>     4.3567    33.0130   276.0121 </r>
       <r>     4.4182    61.0896   279.0807 </r>
       <r>     4.4797    52.7338   281.9911 </r>
       <r>     4.5413    67.6860   285.5203 </r>
       <r>     4.6028    65.9268   289.4915 </r>
       <r>     4.6643    56.6621   293.3797 </r>
       <r>     4.7259    65.2098   297.0808 </r>
       <r>     4.7874    51.2922   300.4478 </r>
       <r>     4.8489    48.5419   303.4332 </r>
       <r>     4.9105    46.5593   306.2098 </r>
       <r>     4.9720    40.4402   308.6410 </r>
       <r>     5.0335    34.6078   310.9023 </r>
       <r>     5.0951    31.8441   312.9056 </r>
       <r>     5.1566    34.2049   314.9260 </r>
       <r>     5.2181    31.7544   316.9854 </r>
       <r>     5.2797    19.2178   318.3213 </r>
       <r>     5.3412    29.4913   319.9390 </r>
       <r>     5.4027    32.0288   322.1728 </r>
       <r>     5.4643    25.9502   323.6463 </r>
       <r>     5.5258    37.7262   325.7095 </r>
       <r>     5.5873    22.8857   327.4182 </r>
       <r>     5.6489    18.3391   328.6215 </r>
       <r>     5.7104    22.2509   329.9359 </r>
       <r>     5.7719    19.6574   331.2183 </r>
       <r>     5.8335    18.6269   332.4495 </r>
       <r>     5.8950    13.6055   333.3877 </r>
       <r>     5.9565    10.7916   334.1343 </r>
       <r>     6.0181     8.7377   334.7537 </r>
       <r>     6.0796     5.6850   335.1779 </r>
       <r>     6.1412     4.0679   335.4943 </r>
       <r>     6.2027     2.5676   335.7011 </r>
       <r>     6.2642     1.6958   335.8238 </r>
       <r>     6.3258     1.1899   335.9153 </r>
       <r>     6.3873     0.6308   335.9629 </r>
       <r>     6.4488     0.5200   336.0000 </r>
       <r>     6.5104     0.0000   336.0000 </r>
       <r>     6.5719     0.0000   336.0000 </r>
       <r>     6.6334     0.0000   336.0000 </r>
       <r>     6.6950     0.0000   336.0000 </r>
       <r>     6.7565     0.0000   336.0000 </r>
       <r>     6.8180     0.0000   336.0000 </r>
       <r>     6.8796     0.0000   336.0000 </r>
       <r>     6.9411     0.0000   336.0000 </r>
       <r>     7.0026     0.0000   336.0000 </r>
       <r>     7.0642     0.0000   336.0000 </r>
       <r>     7.1257     0.0000   336.0000 </r>
       <r>     7.1872     0.0000   336.0000 </r>
       <r>     7.2488     0.0000   336.0000 </r>
       <r>     7.3103     0.0000   336.0000 </r>
       <r>     7.3718     0.0000   336.0000 </r>
       <r>     7.4334     0.0000   336.0000 </r>
      </set>
     </set>
    </array>
   </total>
  </dos>
 </calculation>
 <structure name="finalpos" >
  <crystal>
   <varray name="basis" >
    <v>      11.72851883       0.00000000       0.00000000 </v>
    <v>       0.00000000      11.46426694       0.00000000 </v>
    <v>       0.00000000       0.00000000      11.46426694 </v>
   </varray>
   <i name="volume">   1541.47238719 </i>
   <varray name="rec_basis" >
    <v>       0.08526226       0.00000000       0.00000000 </v>
    <v>       0.00000000       0.08722756       0.00000000 </v>
    <v>       0.00000000       0.00000000       0.08722756 </v>
   </varray>
  </crystal>
  <varray name="positions" >
   <v>       0.00000000       0.00000000       0.00000000 </v>
   <v>       0.00000000       0.00000000       0.50000000 </v>
   <v>       0.00000000       0.50000000       0.00000000 </v>
   <v>       0.00000000       0.50000000       0.50000000 </v>
   <v>       0.50000000       0.00000000       0.00000000 </v>
   <v>       0.50000000       0.00000000       0.50000000 </v>
   <v>       0.50000000       0.50000000       0.00000000 </v>
   <v>       0.50000000       0.50000000       0.50000000 </v>
   <v>       0.25000000       0.25000000       0.00000000 </v>
   <v>       0.25000000       0.25000000       0.50000000 </v>
   <v>       0.25000000       0.75000000       0.00000000 </v>
   <v>       0.25000000       0.75000000       0.50000000 </v>
   <v>       0.75000000       0.25000000       0.00000000 </v>
   <v>       0.75000000       0.25000000       0.50000000 </v>
   <v>       0.75000000       0.75000000       0.00000000 </v>
   <v>       0.75000000       0.75000000       0.50000000 </v>
   <v>       0.25000000       0.00000000       0.25000000 </v>
   <v>       0.25000000       0.00000000       0.75000000 </v>
   <v>       0.25000000       0.50000000       0.25000000 </v>
   <v>       0.25000000       0.50000000       0.75000000 </v>
   <v>       0.75000000       0.00000000       0.25000000 </v>
   <v>       0.75000000       0.00000000       0.75000000 </v>
   <v>       0.75000000       0.50000000       0.25000000 </v>
   <v>       0.75000000       0.50000000       0.75000000 </v>
   <v>       0.00000000       0.25000000       0.25000000 </v>
   <v>       0.00000000       0.25000000       0.75000000 </v>
   <v>       0.00000000       0.75000000       0.25000000 </v>
   <v>       0.00000000       0.75000000       0.75000000 </v>
   <v>       0.50000000       0.25000000       0.25000000 </v>
   <v>       0.50000000       0.25000000       0.75000000 </v>
   <v>       0.50000000       0.75000000       0.25000000 </v>
   <v>       0.50000000       0.75000000       0.75000000 </v>
   <v>       0.12500000       0.12500000       0.12500000 </v>
   <v>       0.12500000       0.12500000       0.62500000 </v>
   <v>       0.12500000       0.62500000       0.12500000 </v>
   <v>       0.12500000       0.62500000       0.62500000 </v>
   <v>       0.62500000       0.12500000       0.12500000 </v>
   <v>       0.62500000       0.12500000       0.62500000 </v>
   <v>       0.62500000       0.62500000       0.12500000 </v>
   <v>       0.62500000       0.62500000       0.62500000 </v>
   <v>       0.37500000       0.12500000       0.37500000 </v>
   <v>       0.37500000       0.12500000       0.87500000 </v>
   <v>       0.37500000       0.62500000       0.37500000 </v>
   <v>       0.37500000       0.62500000       0.87500000 </v>
   <v>       0.87500000       0.12500000       0.37500000 </v>
   <v>       0.87500000       0.12500000       0.87500000 </v>
   <v>       0.87500000       0.62500000       0.37500000 </v>
   <v>       0.87500000       0.62500000       0.87500000 </v>
   <v>       0.37500000       0.37500000       0.12500000 </v>
   <v>       0.37500000       0.37500000       0.62500000 </v>
   <v>       0.37500000       0.87500000       0.12500000 </v>
   <v>       0.37500000       0.87500000       0.62500000 </v>
   <v>       0.87500000       0.37500000       0.12500000 </v>
   <v>       0.87500000       0.37500000       0.62500000 </v>
   <v>       0.87500000       0.87500000       0.12500000 </v>
   <v>       0.87500000       0.87500000       0.62500000 </v>
   <v>       0.12500000       0.37500000       0.37500000 </v>
   <v>       0.12500000       0.37500000       0.87500000 </v>
   <v>       0.12500000       0.87500000       0.37500000 </v>
   <v>       0.12500000       0.87500000       0.87500000 </v>
   <v>       0.62500000       0.37500000       0.37500000 </v>
   <v>       0.62500000       0.37500000       0.87500000 </v>
   <v>       0.62500000       0.87500000       0.37500000 </v>
   <v>       0.62500000       0.87500000       0.87500000 </v>
  </varray>
 </structure>
</modeling>
