GaAs                                    
   4.50000000000000     
     1.270147   -0.000000   -0.000000
    -0.000000    1.270147   -0.000000
     0.000000    0.000000    1.270147
   As   Ga
     4     4
Direct
  0.000000  1.000000  1.000000
  0.500000  0.500000  0.000000
  0.500000  0.000000  0.500000
  1.000000  0.500000  0.500000
  0.250000  0.250000  0.250000
  0.750000  0.250000  0.750000
  0.750000  0.750000  0.250000
  0.250000  0.750000  0.750000
 
   56   56   56
 -.66264823546E+02 -.55907213940E+02 -.27688684114E+02 0.10932967683E+02 0.50618627291E+02
 0.83131718681E+02 0.10336216885E+03 0.10993200994E+03 0.10465940765E+03 0.91439599455E+02
 0.74988064119E+02 0.59573373261E+02 0.46784456698E+02 0.36437275154E+02 0.28234250941E+02
 0.21853385948E+02 0.16966838254E+02 0.13259959450E+02 0.10455016471E+02 0.83285894538E+01
 0.67144334135E+01 0.54935989636E+01 0.45795239208E+01 0.39054411105E+01 0.34177827104E+01
 0.30748637004E+01 0.28472585011E+01 0.27168388162E+01 0.26743006189E+01 0.27168388162E+01
 0.28472585011E+01 0.30748637004E+01 0.34177827104E+01 0.39054411105E+01 0.45795239208E+01
 0.54935989636E+01 0.67144334135E+01 0.83285894538E+01 0.10455016471E+02 0.13259959450E+02
 0.16966838254E+02 0.21853385948E+02 0.28234250941E+02 0.36437275154E+02 0.46784456698E+02
 0.59573373261E+02 0.74988064119E+02 0.91439599455E+02 0.10465940765E+03 0.10993200994E+03
 0.10336216885E+03 0.83131718681E+02 0.50618627291E+02 0.10932967683E+02 -.27688684114E+02
 -.55907213940E+02 -.55907213940E+02 -.46026477094E+02 -.19124620005E+02 0.17637152899E+02
 0.55289289074E+02 0.85922245117E+02 0.10463962274E+03 0.11015162739E+03 0.10426627746E+03
 0.90807963395E+02 0.74390882800E+02 0.59145696115E+02 0.46497981117E+02 0.36256364413E+02
 0.28130264834E+02 0.21803854690E+02 0.16954385210E+02 0.13271581178E+02 0.10481502135E+02
 0.83638125863E+01 0.67545321588E+01 0.55362187616E+01 0.46232436924E+01 0.39494054287E+01
 0.34615095336E+01 0.31181587704E+01 0.28901461129E+01 0.27594639461E+01 0.27168388162E+01
 0.27594639461E+01 0.28901461129E+01 0.31181587704E+01 0.34615095336E+01 0.39494054287E+01
 0.46232436924E+01 0.55362187616E+01 0.67545321588E+01 0.83638125863E+01 0.10481502135E+02
 0.13271581178E+02 0.16954385210E+02 0.21803854690E+02 0.28130264834E+02 0.36256364413E+02
 0.46497981117E+02 0.59145696115E+02 0.74390882800E+02 0.90807963395E+02 0.10426627746E+03
 0.11015162739E+03 0.10463962274E+03 0.85922245117E+02 0.55289289074E+02 0.17637152899E+02
 -.19124620005E+02 -.46026477094E+02 -.27688684114E+02 -.19124620005E+02 0.41413438514E+01
 0.35766349261E+02 0.67802424272E+02 0.93247303663E+02 0.10780139302E+03 0.11042498927E+03
 0.10290104709E+03 0.88855283113E+02 0.72613305451E+02 0.57883383616E+02 0.45651326894E+02
 0.35721218540E+02 0.27822775107E+02 0.21657955778E+02 0.16918795921E+02 0.13307832832E+02
 0.10562298640E+02 0.84709704871E+01 0.68765689539E+01 0.56661048373E+01 0.47566944451E+01
 0.40838014431E+01 0.35953455952E+01 0.32507964429E+01 0.30216068383E+01 0.28901461129E+01
 0.28472585011E+01 0.28901461129E+01 0.30216068383E+01 0.32507964429E+01 0.35953455952E+01
 0.40838014431E+01 0.47566944451E+01 0.56661048373E+01 0.68765689539E+01 0.84709704871E+01
 0.10562298640E+02 0.13307832832E+02 0.16918795921E+02 0.21657955778E+02 0.27822775107E+02
 0.35721218540E+02 0.45651326894E+02 0.57883383616E+02 0.72613305451E+02 0.88855283113E+02
 0.10290104709E+03 0.11042498927E+03 0.10780139302E+03 0.93247303663E+02 0.67802424272E+02
 0.35766349261E+02 0.41413438514E+01 -.19124620005E+02 0.10932967683E+02 0.17637152899E+02
 0.35766349261E+02 0.60133419026E+02 0.84238812602E+02 0.10237600853E+03 0.11110884692E+03
 0.10976919938E+03 0.10011078127E+03 0.85466546899E+02 0.69725169215E+02 0.55848543440E+02
 0.44282994007E+02 0.34854893118E+02 0.27325400835E+02 0.21423824004E+02 0.16865296537E+02
 0.13372740827E+02 0.10701333741E+02 0.86545441226E+01 0.70859064755E+01 0.58895907726E+01
 0.49870992910E+01 0.43165780348E+01 0.38277960840E+01 0.34816828370E+01 0.32507964429E+01
 0.31181587704E+01 0.30748637004E+01 0.31181587704E+01 0.32507964429E+01 0.34816828370E+01
 0.38277960840E+01 0.43165780348E+01 0.49870992910E+01 0.58895907726E+01 0.70859064755E+01
 0.86545441226E+01 0.10701333741E+02 0.13372740827E+02 0.16865296537E+02 0.21423824004E+02
 0.27325400835E+02 0.34854893118E+02 0.44282994007E+02 0.55848543440E+02 0.69725169215E+02
 0.85466546899E+02 0.10011078127E+03 0.10976919938E+03 0.11110884692E+03 0.10237600853E+03
 0.84238812602E+02 0.60133419026E+02 0.35766349261E+02 0.17637152899E+02 0.50618627291E+02
 0.55289289074E+02 0.67802424272E+02 0.84238812602E+02 0.99697772168E+02 0.10991861877E+03
 0.11244553508E+03 0.10704458986E+03 0.95440327012E+02 0.80614661288E+02 0.65892056874E+02
 0.53143156299E+02 0.42456916432E+02 0.33696245806E+02 0.26661256090E+02 0.21115142129E+02
 0.16802481629E+02 0.13472858450E+02 0.10905171206E+02 0.89223418605E+01 0.73921881176E+01
 0.62182742779E+01 0.53278347027E+01 0.46625965218E+01 0.41749149385E+01 0.38277960840E+01
 0.35953455952E+01 0.34615095336E+01 0.34177827104E+01 0.34615095336E+01 0.35953455952E+01
 0.38277960840E+01 0.41749149385E+01 0.46625965218E+01 0.53278347027E+01 0.62182742779E+01
 0.73921881176E+01 0.89223418605E+01 0.10905171206E+02 0.13472858450E+02 0.16802481629E+02
 0.21115142129E+02 0.26661256090E+02 0.33696245806E+02 0.42456916432E+02 0.53143156299E+02
 0.65892056874E+02 0.80614661288E+02 0.95440327012E+02 0.10704458986E+03 0.11244553508E+03
 0.10991861877E+03 0.99697772168E+02 0.84238812602E+02 0.67802424272E+02 0.55289289074E+02
 0.83131718681E+02 0.85922245117E+02 0.93247303663E+02 0.10237600853E+03 0.10991861877E+03
 0.11299893923E+03 0.11011673788E+03 0.10146776372E+03 0.88736353663E+02 0.74517907686E+02
 0.61325405035E+02 0.49903462069E+02 0.40259987750E+02 0.32299131839E+02 0.25862795297E+02
 0.20751210395E+02 0.16742542310E+02 0.13617718362E+02 0.11183761596E+02 0.92865791891E+01
 0.78107289219E+01 0.66706828163E+01 0.58003418145E+01 0.51457577167E+01 0.46625965218E+01
 0.43165780348E+01 0.40838014431E+01 0.39494054287E+01 0.39054411105E+01 0.39494054287E+01
 0.40838014431E+01 0.43165780348E+01 0.46625965218E+01 0.51457577167E+01 0.58003418145E+01
 0.66706828163E+01 0.78107289219E+01 0.92865791891E+01 0.11183761596E+02 0.13617718362E+02
 0.16742542310E+02 0.20751210395E+02 0.25862795297E+02 0.32299131839E+02 0.40259987750E+02
 0.49903462069E+02 0.61325405035E+02 0.74517907686E+02 0.88736353663E+02 0.10146776372E+03
 0.11011673788E+03 0.11299893923E+03 0.10991861877E+03 0.10237600853E+03 0.93247303663E+02
 0.85922245117E+02 0.10336216885E+03 0.10463962274E+03 0.10780139302E+03 0.11110884692E+03
 0.11244553508E+03 0.11011673788E+03 0.10344598829E+03 0.92989907303E+02 0.80356418006E+02
 0.67688203356E+02 0.56263839884E+02 0.46289196123E+02 0.37796448689E+02 0.30729667053E+02
 0.24970694497E+02 0.20356859269E+02 0.16701918590E+02 0.13821008492E+02 0.11551932279E+02
 0.97654910768E+01 0.83641107738E+01 0.72737850370E+01 0.64355463379E+01 0.58003418145E+01
 0.53278347027E+01 0.49870992910E+01 0.47566944451E+01 0.46232436924E+01 0.45795239208E+01
 0.46232436924E+01 0.47566944451E+01 0.49870992910E+01 0.53278347027E+01 0.58003418145E+01
 0.64355463379E+01 0.72737850370E+01 0.83641107738E+01 0.97654910768E+01 0.11551932279E+02
 0.13821008492E+02 0.16701918590E+02 0.20356859269E+02 0.24970694497E+02 0.30729667053E+02
 0.37796448689E+02 0.46289196123E+02 0.56263839884E+02 0.67688203356E+02 0.80356418006E+02
 0.92989907303E+02 0.10344598829E+03 0.11011673788E+03 0.11244553508E+03 0.11110884692E+03
 0.10780139302E+03 0.10463962274E+03 0.10993200994E+03 0.11015162739E+03 0.11042498927E+03
 0.10976919938E+03 0.10704458986E+03 0.10146776372E+03 0.92989907303E+02 0.82409067951E+02
 0.71186355961E+02 0.60578192493E+02 0.50953741177E+02 0.42469474813E+02 0.35179751234E+02
 0.29061695010E+02 0.24031723689E+02 0.19962022739E+02 0.16702007115E+02 0.14101878733E+02
 0.12030812223E+02 0.10384516463E+02 0.90829391253E+01 0.80632932567E+01 0.72737850370E+01
 0.66706828163E+01 0.62182742779E+01 0.58895907726E+01 0.56661048373E+01 0.55362187616E+01
 0.54935989636E+01 0.55362187616E+01 0.56661048373E+01 0.58895907726E+01 0.62182742779E+01
 0.66706828163E+01 0.72737850370E+01 0.80632932567E+01 0.90829391253E+01 0.10384516463E+02
 0.12030812223E+02 0.14101878733E+02 0.16702007115E+02 0.19962022739E+02 0.24031723689E+02
 0.29061695010E+02 0.35179751234E+02 0.42469474813E+02 0.50953741177E+02 0.60578192493E+02
 0.71186355961E+02 0.82409067951E+02 0.92989907303E+02 0.10146776372E+03 0.10704458986E+03
 0.10976919938E+03 0.11042498927E+03 0.11015162739E+03 0.10465940765E+03 0.10426627746E+03
 0.10290104709E+03 0.10011078127E+03 0.95440327012E+02 0.88736353663E+02 0.80356418006E+02
 0.71186355961E+02 0.62109161770E+02 0.53508911664E+02 0.45626344479E+02 0.38608594401E+02
 0.32523493267E+02 0.27371247254E+02 0.23095836146E+02 0.19600689880E+02 0.16769205491E+02
 0.14485375127E+02 0.12648130525E+02 0.11176194867E+02 0.10005337393E+02 0.90829391253E+01
 0.83641107738E+01 0.78107289219E+01 0.73921881176E+01 0.70859064755E+01 0.68765689539E+01
 0.67545321588E+01 0.67144334135E+01 0.67545321588E+01 0.68765689539E+01 0.70859064755E+01
 0.73921881176E+01 0.78107289219E+01 0.83641107738E+01 0.90829391253E+01 0.10005337393E+02
 0.11176194867E+02 0.12648130525E+02 0.14485375127E+02 0.16769205491E+02 0.19600689880E+02
 0.23095836146E+02 0.27371247254E+02 0.32523493267E+02 0.38608594401E+02 0.45626344479E+02
 0.53508911664E+02 0.62109161770E+02 0.71186355961E+02 0.80356418006E+02 0.88736353663E+02
 0.95440327012E+02 0.10011078127E+03 0.10290104709E+03 0.10426627746E+03 0.91439599455E+02
 0.90807963395E+02 0.88855283113E+02 0.85466546899E+02 0.80614661288E+02 0.74517907686E+02
 0.67688203356E+02 0.60578192493E+02 0.53508911664E+02 0.46743942510E+02 0.40481401741E+02
 0.34854137739E+02 0.29932839184E+02 0.25730812321E+02 0.22212730454E+02 0.19308999129E+02
 0.16933755072E+02 0.15001441795E+02 0.13437118344E+02 0.12179063222E+02 0.11176194867E+02
 0.10384516463E+02 0.97654910768E+01 0.92865791891E+01 0.89223418605E+01 0.86545441226E+01
 0.84709704871E+01 0.83638125863E+01 0.83285894538E+01 0.83638125863E+01 0.84709704871E+01
 0.86545441226E+01 0.89223418605E+01 0.92865791891E+01 0.97654910768E+01 0.10384516463E+02
 0.11176194867E+02 0.12179063222E+02 0.13437118344E+02 0.15001441795E+02 0.16933755072E+02
 0.19308999129E+02 0.22212730454E+02 0.25730812321E+02 0.29932839184E+02 0.34854137739E+02
 0.40481401741E+02 0.46743942510E+02 0.53508911664E+02 0.60578192493E+02 0.67688203356E+02
 0.74517907686E+02 0.80614661288E+02 0.85466546899E+02 0.88855283113E+02 0.90807963395E+02
 0.74988064119E+02 0.74390882800E+02 0.72613305451E+02 0.69725169215E+02 0.65892056874E+02
 0.61325405035E+02 0.56263839884E+02 0.50953741177E+02 0.45626344479E+02 0.40481401741E+02
 0.35677679987E+02 0.31327977066E+02 0.27497164414E+02 0.24203995642E+02 0.21428189874E+02
 0.19122607609E+02 0.17227582480E+02 0.15683018365E+02 0.14435047468E+02 0.13437118344E+02
 0.12648130525E+02 0.12030812223E+02 0.11551932279E+02 0.11183761596E+02 0.10905171206E+02
 0.10701333741E+02 0.10562298640E+02 0.10481502135E+02 0.10455016471E+02 0.10481502135E+02
 0.10562298640E+02 0.10701333741E+02 0.10905171206E+02 0.11183761596E+02 0.11551932279E+02
 0.12030812223E+02 0.12648130525E+02 0.13437118344E+02 0.14435047468E+02 0.15683018365E+02
 0.17227582480E+02 0.19122607609E+02 0.21428189874E+02 0.24203995642E+02 0.27497164414E+02
 0.31327977066E+02 0.35677679987E+02 0.40481401741E+02 0.45626344479E+02 0.50953741177E+02
 0.56263839884E+02 0.61325405035E+02 0.65892056874E+02 0.69725169215E+02 0.72613305451E+02
 0.74390882800E+02 0.59573373261E+02 0.59145696115E+02 0.57883383616E+02 0.55848543440E+02
 0.53143156299E+02 0.49903462069E+02 0.46289196123E+02 0.42469474813E+02 0.38608594401E+02
 0.34854137739E+02 0.31327977066E+02 0.28119931344E+02 0.25284410487E+02 0.22841152934E+02
 0.20780761261E+02 0.19074015913E+02 0.17682116636E+02 0.16564580246E+02 0.15683018365E+02
 0.15001441795E+02 0.14485375127E+02 0.14101878733E+02 0.13821008492E+02 0.13617718362E+02
 0.13472858450E+02 0.13372740827E+02 0.13307832832E+02 0.13271581178E+02 0.13259959450E+02
 0.13271581178E+02 0.13307832832E+02 0.13372740827E+02 0.13472858450E+02 0.13617718362E+02
 0.13821008492E+02 0.14101878733E+02 0.14485375127E+02 0.15001441795E+02 0.15683018365E+02
 0.16564580246E+02 0.17682116636E+02 0.19074015913E+02 0.20780761261E+02 0.22841152934E+02
 0.25284410487E+02 0.28119931344E+02 0.31327977066E+02 0.34854137739E+02 0.38608594401E+02
 0.42469474813E+02 0.46289196123E+02 0.49903462069E+02 0.53143156299E+02 0.55848543440E+02
 0.57883383616E+02 0.59145696115E+02 0.46784456698E+02 0.46497981117E+02 0.45651326894E+02
 0.44282994007E+02 0.42456916432E+02 0.40259987750E+02 0.37796448689E+02 0.35179751234E+02
 0.32523493267E+02 0.29932839184E+02 0.27497164414E+02 0.25284410487E+02 0.23337937239E+02
 0.21676789710E+02 0.20299578103E+02 0.19190773812E+02 0.18327133557E+02 0.17682116636E+02
 0.17227582480E+02 0.16933755072E+02 0.16769205491E+02 0.16702007115E+02 0.16701918590E+02
 0.16742542310E+02 0.16802481629E+02 0.16865296537E+02 0.16918795921E+02 0.16954385210E+02
 0.16966838254E+02 0.16954385210E+02 0.16918795921E+02 0.16865296537E+02 0.16802481629E+02
 0.16742542310E+02 0.16701918590E+02 0.16702007115E+02 0.16769205491E+02 0.16933755072E+02
 0.17227582480E+02 0.17682116636E+02 0.18327133557E+02 0.19190773812E+02 0.20299578103E+02
 0.21676789710E+02 0.23337937239E+02 0.25284410487E+02 0.27497164414E+02 0.29932839184E+02
 0.32523493267E+02 0.35179751234E+02 0.37796448689E+02 0.40259987750E+02 0.42456916432E+02
 0.44282994007E+02 0.45651326894E+02 0.46497981117E+02 0.36437275154E+02 0.36256364413E+02
 0.35721218540E+02 0.34854893118E+02 0.33696245806E+02 0.32299131839E+02 0.30729667053E+02
 0.29061695010E+02 0.27371247254E+02 0.25730812321E+02 0.24203995642E+02 0.22841152934E+02
 0.21676789710E+02 0.20729429829E+02 0.20003915251E+02 0.19495031950E+02 0.19190773812E+02
 0.19074015913E+02 0.19122607609E+02 0.19308999129E+02 0.19600689880E+02 0.19962022739E+02
 0.20356859269E+02 0.20751210395E+02 0.21115142129E+02 0.21423824004E+02 0.21657955778E+02
 0.21803854690E+02 0.21853385948E+02 0.21803854690E+02 0.21657955778E+02 0.21423824004E+02
 0.21115142129E+02 0.20751210395E+02 0.20356859269E+02 0.19962022739E+02 0.19600689880E+02
 0.19308999129E+02 0.19122607609E+02 0.19074015913E+02 0.19190773812E+02 0.19495031950E+02
 0.20003915251E+02 0.20729429829E+02 0.21676789710E+02 0.22841152934E+02 0.24203995642E+02
 0.25730812321E+02 0.27371247254E+02 0.29061695010E+02 0.30729667053E+02 0.32299131839E+02
 0.33696245806E+02 0.34854893118E+02 0.35721218540E+02 0.36256364413E+02 0.28234250941E+02
 0.28130264834E+02 0.27822775107E+02 0.27325400835E+02 0.26661256090E+02 0.25862795297E+02
 0.24970694497E+02 0.24031723689E+02 0.23095836146E+02 0.22212730454E+02 0.21428189874E+02
 0.20780761261E+02 0.20299578103E+02 0.20003915251E+02 0.19904272664E+02 0.20003915251E+02
 0.20299578103E+02 0.20780761261E+02 0.21428189874E+02 0.22212730454E+02 0.23095836146E+02
 0.24031723689E+02 0.24970694497E+02 0.25862795297E+02 0.26661256090E+02 0.27325400835E+02
 0.27822775107E+02 0.28130264834E+02 0.28234250941E+02 0.28130264834E+02 0.27822775107E+02
 0.27325400835E+02 0.26661256090E+02 0.25862795297E+02 0.24970694497E+02 0.24031723689E+02
 0.23095836146E+02 0.22212730454E+02 0.21428189874E+02 0.20780761261E+02 0.20299578103E+02
 0.20003915251E+02 0.19904272664E+02 0.20003915251E+02 0.20299578103E+02 0.20780761261E+02
 0.21428189874E+02 0.22212730454E+02 0.23095836146E+02 0.24031723689E+02 0.24970694497E+02
 0.25862795297E+02 0.26661256090E+02 0.27325400835E+02 0.27822775107E+02 0.28130264834E+02
 0.21853385948E+02 0.21803854690E+02 0.21657955778E+02 0.21423824004E+02 0.21115142129E+02
 0.20751210395E+02 0.20356859269E+02 0.19962022739E+02 0.19600689880E+02 0.19308999129E+02
 0.19122607609E+02 0.19074015913E+02 0.19190773812E+02 0.19495031950E+02 0.20003915251E+02
 0.20729429829E+02 0.21676789710E+02 0.22841152934E+02 0.24203995642E+02 0.25730812321E+02
 0.27371247254E+02 0.29061695010E+02 0.30729667053E+02 0.32299131839E+02 0.33696245806E+02
 0.34854893118E+02 0.35721218540E+02 0.36256364413E+02 0.36437275154E+02 0.36256364413E+02
 0.35721218540E+02 0.34854893118E+02 0.33696245806E+02 0.32299131839E+02 0.30729667053E+02
 0.29061695010E+02 0.27371247254E+02 0.25730812321E+02 0.24203995642E+02 0.22841152934E+02
 0.21676789710E+02 0.20729429829E+02 0.20003915251E+02 0.19495031950E+02 0.19190773812E+02
 0.19074015913E+02 0.19122607609E+02 0.19308999129E+02 0.19600689880E+02 0.19962022739E+02
 0.20356859269E+02 0.20751210395E+02 0.21115142129E+02 0.21423824004E+02 0.21657955778E+02
 0.21803854690E+02 0.16966838254E+02 0.16954385210E+02 0.16918795921E+02 0.16865296537E+02
 0.16802481629E+02 0.16742542310E+02 0.16701918590E+02 0.16702007115E+02 0.16769205491E+02
 0.16933755072E+02 0.17227582480E+02 0.17682116636E+02 0.18327133557E+02 0.19190773812E+02
 0.20299578103E+02 0.21676789710E+02 0.23337937239E+02 0.25284410487E+02 0.27497164414E+02
 0.29932839184E+02 0.32523493267E+02 0.35179751234E+02 0.37796448689E+02 0.40259987750E+02
 0.42456916432E+02 0.44282994007E+02 0.45651326894E+02 0.46497981117E+02 0.46784456698E+02
 0.46497981117E+02 0.45651326894E+02 0.44282994007E+02 0.42456916432E+02 0.40259987750E+02
 0.37796448689E+02 0.35179751234E+02 0.32523493267E+02 0.29932839184E+02 0.27497164414E+02
 0.25284410487E+02 0.23337937239E+02 0.21676789710E+02 0.20299578103E+02 0.19190773812E+02
 0.18327133557E+02 0.17682116636E+02 0.17227582480E+02 0.16933755072E+02 0.16769205491E+02
 0.16702007115E+02 0.16701918590E+02 0.16742542310E+02 0.16802481629E+02 0.16865296537E+02
 0.16918795921E+02 0.16954385210E+02 0.13259959450E+02 0.13271581178E+02 0.13307832832E+02
 0.13372740827E+02 0.13472858450E+02 0.13617718362E+02 0.13821008492E+02 0.14101878733E+02
 0.14485375127E+02 0.15001441795E+02 0.15683018365E+02 0.16564580246E+02 0.17682116636E+02
 0.19074015913E+02 0.20780761261E+02 0.22841152934E+02 0.25284410487E+02 0.28119931344E+02
 0.31327977066E+02 0.34854137739E+02 0.38608594401E+02 0.42469474813E+02 0.46289196123E+02
 0.49903462069E+02 0.53143156299E+02 0.55848543440E+02 0.57883383616E+02 0.59145696115E+02
 0.59573373261E+02 0.59145696115E+02 0.57883383616E+02 0.55848543440E+02 0.53143156299E+02
 0.49903462069E+02 0.46289196123E+02 0.42469474813E+02 0.38608594401E+02 0.34854137739E+02
 0.31327977066E+02 0.28119931344E+02 0.25284410487E+02 0.22841152934E+02 0.20780761261E+02
 0.19074015913E+02 0.17682116636E+02 0.16564580246E+02 0.15683018365E+02 0.15001441795E+02
 0.14485375127E+02 0.14101878733E+02 0.13821008492E+02 0.13617718362E+02 0.13472858450E+02
 0.13372740827E+02 0.13307832832E+02 0.13271581178E+02 0.10455016471E+02 0.10481502135E+02
 0.10562298640E+02 0.10701333741E+02 0.10905171206E+02 0.11183761596E+02 0.11551932279E+02
 0.12030812223E+02 0.12648130525E+02 0.13437118344E+02 0.14435047468E+02 0.15683018365E+02
 0.17227582480E+02 0.19122607609E+02 0.21428189874E+02 0.24203995642E+02 0.27497164414E+02
 0.31327977066E+02 0.35677679987E+02 0.40481401741E+02 0.45626344479E+02 0.50953741177E+02
 0.56263839884E+02 0.61325405035E+02 0.65892056874E+02 0.69725169215E+02 0.72613305451E+02
 0.74390882800E+02 0.74988064119E+02 0.74390882800E+02 0.72613305451E+02 0.69725169215E+02
 0.65892056874E+02 0.61325405035E+02 0.56263839884E+02 0.50953741177E+02 0.45626344479E+02
 0.40481401741E+02 0.35677679987E+02 0.31327977066E+02 0.27497164414E+02 0.24203995642E+02
 0.21428189874E+02 0.19122607609E+02 0.17227582480E+02 0.15683018365E+02 0.14435047468E+02
 0.13437118344E+02 0.12648130525E+02 0.12030812223E+02 0.11551932279E+02 0.11183761596E+02
 0.10905171206E+02 0.10701333741E+02 0.10562298640E+02 0.10481502135E+02 0.83285894538E+01
 0.83638125863E+01 0.84709704871E+01 0.86545441226E+01 0.89223418605E+01 0.92865791891E+01
 0.97654910768E+01 0.10384516463E+02 0.11176194867E+02 0.12179063222E+02 0.13437118344E+02
 0.15001441795E+02 0.16933755072E+02 0.19308999129E+02 0.22212730454E+02 0.25730812321E+02
 0.29932839184E+02 0.34854137739E+02 0.40481401741E+02 0.46743942510E+02 0.53508911664E+02
 0.60578192493E+02 0.67688203356E+02 0.74517907686E+02 0.80614661288E+02 0.85466546899E+02
 0.88855283113E+02 0.90807963395E+02 0.91439599455E+02 0.90807963395E+02 0.88855283113E+02
 0.85466546899E+02 0.80614661288E+02 0.74517907686E+02 0.67688203356E+02 0.60578192493E+02
 0.53508911664E+02 0.46743942510E+02 0.40481401741E+02 0.34854137739E+02 0.29932839184E+02
 0.25730812321E+02 0.22212730454E+02 0.19308999129E+02 0.16933755072E+02 0.15001441795E+02
 0.13437118344E+02 0.12179063222E+02 0.11176194867E+02 0.10384516463E+02 0.97654910768E+01
 0.92865791891E+01 0.89223418605E+01 0.86545441226E+01 0.84709704871E+01 0.83638125863E+01
 0.67144334135E+01 0.67545321588E+01 0.68765689539E+01 0.70859064755E+01 0.73921881176E+01
 0.78107289219E+01 0.83641107738E+01 0.90829391253E+01 0.10005337393E+02 0.11176194867E+02
 0.12648130525E+02 0.14485375127E+02 0.16769205491E+02 0.19600689880E+02 0.23095836146E+02
 0.27371247254E+02 0.32523493267E+02 0.38608594401E+02 0.45626344479E+02 0.53508911664E+02
 0.62109161770E+02 0.71186355961E+02 0.80356418006E+02 0.88736353663E+02 0.95440327012E+02
 0.10011078127E+03 0.10290104709E+03 0.10426627746E+03 0.10465940765E+03 0.10426627746E+03
 0.10290104709E+03 0.10011078127E+03 0.95440327012E+02 0.88736353663E+02 0.80356418006E+02
 0.71186355961E+02 0.62109161770E+02 0.53508911664E+02 0.45626344479E+02 0.38608594401E+02
 0.32523493267E+02 0.27371247254E+02 0.23095836146E+02 0.19600689880E+02 0.16769205491E+02
 0.14485375127E+02 0.12648130525E+02 0.11176194867E+02 0.10005337393E+02 0.90829391253E+01
 0.83641107738E+01 0.78107289219E+01 0.73921881176E+01 0.70859064755E+01 0.68765689539E+01
 0.67545321588E+01 0.54935989636E+01 0.55362187616E+01 0.56661048373E+01 0.58895907726E+01
 0.62182742779E+01 0.66706828163E+01 0.72737850370E+01 0.80632932567E+01 0.90829391253E+01
 0.10384516463E+02 0.12030812223E+02 0.14101878733E+02 0.16702007115E+02 0.19962022739E+02
 0.24031723689E+02 0.29061695010E+02 0.35179751234E+02 0.42469474813E+02 0.50953741177E+02
 0.60578192493E+02 0.71186355961E+02 0.82409067951E+02 0.92989907303E+02 0.10146776372E+03
 0.10704458986E+03 0.10976919938E+03 0.11042498927E+03 0.11015162739E+03 0.10993200994E+03
 0.11015162739E+03 0.11042498927E+03 0.10976919938E+03 0.10704458986E+03 0.10146776372E+03
 0.92989907303E+02 0.82409067951E+02 0.71186355961E+02 0.60578192493E+02 0.50953741177E+02
 0.42469474813E+02 0.35179751234E+02 0.29061695010E+02 0.24031723689E+02 0.19962022739E+02
 0.16702007115E+02 0.14101878733E+02 0.12030812223E+02 0.10384516463E+02 0.90829391253E+01
 0.80632932567E+01 0.72737850370E+01 0.66706828163E+01 0.62182742779E+01 0.58895907726E+01
 0.56661048373E+01 0.55362187616E+01 0.45795239208E+01 0.46232436924E+01 0.47566944451E+01
 0.49870992910E+01 0.53278347027E+01 0.58003418145E+01 0.64355463379E+01 0.72737850370E+01
 0.83641107738E+01 0.97654910768E+01 0.11551932279E+02 0.13821008492E+02 0.16701918590E+02
 0.20356859269E+02 0.24970694497E+02 0.30729667053E+02 0.37796448689E+02 0.46289196123E+02
 0.56263839884E+02 0.67688203356E+02 0.80356418006E+02 0.92989907303E+02 0.10344598829E+03
 0.11011673788E+03 0.11244553508E+03 0.11110884692E+03 0.10780139302E+03 0.10463962274E+03
 0.10336216885E+03 0.10463962274E+03 0.10780139302E+03 0.11110884692E+03 0.11244553508E+03
 0.11011673788E+03 0.10344598829E+03 0.92989907303E+02 0.80356418006E+02 0.67688203356E+02
 0.56263839884E+02 0.46289196123E+02 0.37796448689E+02 0.30729667053E+02 0.24970694497E+02
 0.20356859269E+02 0.16701918590E+02 0.13821008492E+02 0.11551932279E+02 0.97654910768E+01
 0.83641107738E+01 0.72737850370E+01 0.64355463379E+01 0.58003418145E+01 0.53278347027E+01
 0.49870992910E+01 0.47566944451E+01 0.46232436924E+01 0.39054411105E+01 0.39494054287E+01
 0.40838014431E+01 0.43165780348E+01 0.46625965218E+01 0.51457577167E+01 0.58003418145E+01
 0.66706828163E+01 0.78107289219E+01 0.92865791891E+01 0.11183761596E+02 0.13617718362E+02
 0.16742542310E+02 0.20751210395E+02 0.25862795297E+02 0.32299131839E+02 0.40259987750E+02
 0.49903462069E+02 0.61325405035E+02 0.74517907686E+02 0.88736353663E+02 0.10146776372E+03
 0.11011673788E+03 0.11299893923E+03 0.10991861877E+03 0.10237600853E+03 0.93247303663E+02
 0.85922245117E+02 0.83131718681E+02 0.85922245117E+02 0.93247303663E+02 0.10237600853E+03
 0.10991861877E+03 0.11299893923E+03 0.11011673788E+03 0.10146776372E+03 0.88736353663E+02
 0.74517907686E+02 0.61325405035E+02 0.49903462069E+02 0.40259987750E+02 0.32299131839E+02
 0.25862795297E+02 0.20751210395E+02 0.16742542310E+02 0.13617718362E+02 0.11183761596E+02
 0.92865791891E+01 0.78107289219E+01 0.66706828163E+01 0.58003418145E+01 0.51457577167E+01
 0.46625965218E+01 0.43165780348E+01 0.40838014431E+01 0.39494054287E+01 0.34177827104E+01
 0.34615095336E+01 0.35953455952E+01 0.38277960840E+01 0.41749149385E+01 0.46625965218E+01
 0.53278347027E+01 0.62182742779E+01 0.73921881176E+01 0.89223418605E+01 0.10905171206E+02
 0.13472858450E+02 0.16802481629E+02 0.21115142129E+02 0.26661256090E+02 0.33696245806E+02
 0.42456916432E+02 0.53143156299E+02 0.65892056874E+02 0.80614661288E+02 0.95440327012E+02
 0.10704458986E+03 0.11244553508E+03 0.10991861877E+03 0.99697772168E+02 0.84238812602E+02
 0.67802424272E+02 0.55289289074E+02 0.50618627291E+02 0.55289289074E+02 0.67802424272E+02
 0.84238812602E+02 0.99697772168E+02 0.10991861877E+03 0.11244553508E+03 0.10704458986E+03
 0.95440327012E+02 0.80614661288E+02 0.65892056874E+02 0.53143156299E+02 0.42456916432E+02
 0.33696245806E+02 0.26661256090E+02 0.21115142129E+02 0.16802481629E+02 0.13472858450E+02
 0.10905171206E+02 0.89223418605E+01 0.73921881176E+01 0.62182742779E+01 0.53278347027E+01
 0.46625965218E+01 0.41749149385E+01 0.38277960840E+01 0.35953455952E+01 0.34615095336E+01
 0.30748637004E+01 0.31181587704E+01 0.32507964429E+01 0.34816828370E+01 0.38277960840E+01
 0.43165780348E+01 0.49870992910E+01 0.58895907726E+01 0.70859064755E+01 0.86545441226E+01
 0.10701333741E+02 0.13372740827E+02 0.16865296537E+02 0.21423824004E+02 0.27325400835E+02
 0.34854893118E+02 0.44282994007E+02 0.55848543440E+02 0.69725169215E+02 0.85466546899E+02
 0.10011078127E+03 0.10976919938E+03 0.11110884692E+03 0.10237600853E+03 0.84238812602E+02
 0.60133419026E+02 0.35766349261E+02 0.17637152899E+02 0.10932967683E+02 0.17637152899E+02
 0.35766349261E+02 0.60133419026E+02 0.84238812602E+02 0.10237600853E+03 0.11110884692E+03
 0.10976919938E+03 0.10011078127E+03 0.85466546899E+02 0.69725169215E+02 0.55848543440E+02
 0.44282994007E+02 0.34854893118E+02 0.27325400835E+02 0.21423824004E+02 0.16865296537E+02
 0.13372740827E+02 0.10701333741E+02 0.86545441226E+01 0.70859064755E+01 0.58895907726E+01
 0.49870992910E+01 0.43165780348E+01 0.38277960840E+01 0.34816828370E+01 0.32507964429E+01
 0.31181587704E+01 0.28472585011E+01 0.28901461129E+01 0.30216068383E+01 0.32507964429E+01
 0.35953455952E+01 0.40838014431E+01 0.47566944451E+01 0.56661048373E+01 0.68765689539E+01
 0.84709704871E+01 0.10562298640E+02 0.13307832832E+02 0.16918795921E+02 0.21657955778E+02
 0.27822775107E+02 0.35721218540E+02 0.45651326894E+02 0.57883383616E+02 0.72613305451E+02
 0.88855283113E+02 0.10290104709E+03 0.11042498927E+03 0.10780139302E+03 0.93247303663E+02
 0.67802424272E+02 0.35766349261E+02 0.41413438514E+01 -.19124620005E+02 -.27688684114E+02
 -.19124620005E+02 0.41413438514E+01 0.35766349261E+02 0.67802424272E+02 0.93247303663E+02
 0.10780139302E+03 0.11042498927E+03 0.10290104709E+03 0.88855283113E+02 0.72613305451E+02
 0.57883383616E+02 0.45651326894E+02 0.35721218540E+02 0.27822775107E+02 0.21657955778E+02
 0.16918795921E+02 0.13307832832E+02 0.10562298640E+02 0.84709704871E+01 0.68765689539E+01
 0.56661048373E+01 0.47566944451E+01 0.40838014431E+01 0.35953455952E+01 0.32507964429E+01
 0.30216068383E+01 0.28901461129E+01 0.27168388162E+01 0.27594639461E+01 0.28901461129E+01
 0.31181587704E+01 0.34615095336E+01 0.39494054287E+01 0.46232436924E+01 0.55362187616E+01
 0.67545321588E+01 0.83638125863E+01 0.10481502135E+02 0.13271581178E+02 0.16954385210E+02
 0.21803854690E+02 0.28130264834E+02 0.36256364413E+02 0.46497981117E+02 0.59145696115E+02
 0.74390882800E+02 0.90807963395E+02 0.10426627746E+03 0.11015162739E+03 0.10463962274E+03
 0.85922245117E+02 0.55289289074E+02 0.17637152899E+02 -.19124620005E+02 -.46026477094E+02
 -.55907213940E+02 -.46026477094E+02 -.19124620005E+02 0.17637152899E+02 0.55289289074E+02
 0.85922245117E+02 0.10463962274E+03 0.11015162739E+03 0.10426627746E+03 0.90807963395E+02
 0.74390882800E+02 0.59145696115E+02 0.46497981117E+02 0.36256364413E+02 0.28130264834E+02
 0.21803854690E+02 0.16954385210E+02 0.13271581178E+02 0.10481502135E+02 0.83638125863E+01
 0.67545321588E+01 0.55362187616E+01 0.46232436924E+01 0.39494054287E+01 0.34615095336E+01
 0.31181587704E+01 0.28901461129E+01 0.27594639461E+01 0.26743006189E+01 0.27168388162E+01
 0.28472585011E+01 0.30748637004E+01 0.34177827104E+01 0.39054411105E+01 0.45795239208E+01
 0.54935989636E+01 0.67144334135E+01 0.83285894538E+01 0.10455016471E+02 0.13259959450E+02
 0.16966838254E+02 0.21853385948E+02 0.28234250941E+02 0.36437275154E+02 0.46784456698E+02
 0.59573373261E+02 0.74988064119E+02 0.91439599455E+02 0.10465940765E+03 0.10993200994E+03
 0.10336216885E+03 0.83131718681E+02 0.50618627291E+02 0.10932967683E+02 -.27688684114E+02
 -.55907213940E+02 -.66264823546E+02 -.55907213940E+02 -.27688684114E+02 0.10932967683E+02
 0.50618627291E+02 0.83131718681E+02 0.10336216885E+03 0.10993200994E+03 0.10465940765E+03
 0.91439599455E+02 0.74988064119E+02 0.59573373261E+02 0.46784456698E+02 0.36437275154E+02
 0.28234250941E+02 0.21853385948E+02 0.16966838254E+02 0.13259959450E+02 0.10455016471E+02
 0.83285894538E+01 0.67144334135E+01 0.54935989636E+01 0.45795239208E+01 0.39054411105E+01