   8   8   0   0
  0.2082684E+02  0.5502640E-09  0.5502640E-09  0.5502640E-09  0.1000000E-15
  1.000000000000000E-004
  CAR 
 GaAs                                    
      8.61726672    -10.99358243  301      2.53994628      1.00000000
    -10.994  0.0000E+00  0.0000E+00
    -10.928  0.0000E+00  0.0000E+00
    -10.863  0.0000E+00  0.0000E+00
    -10.797  0.0000E+00  0.0000E+00
    -10.732  0.0000E+00  0.0000E+00
    -10.667  0.0000E+00  0.0000E+00
    -10.601  0.0000E+00  0.0000E+00
    -10.536  0.0000E+00  0.0000E+00
    -10.471  0.0000E+00  0.0000E+00
    -10.405  0.0000E+00  0.0000E+00
    -10.340  0.0000E+00  0.0000E+00
    -10.275  0.0000E+00  0.0000E+00
    -10.209  0.0000E+00  0.0000E+00
    -10.144  0.0000E+00  0.0000E+00
    -10.078  0.0000E+00  0.0000E+00
    -10.013  0.0000E+00  0.0000E+00
     -9.948  0.5202E-03  0.7962E-05
     -9.882  0.3056E-02  0.1134E-03
     -9.817  0.7081E-02  0.4463E-03
     -9.752  0.9390E-02  0.9964E-03
     -9.686  0.9873E-02  0.1630E-02
     -9.621  0.1082E-01  0.2302E-02
     -9.555  0.1254E-01  0.3063E-02
     -9.490  0.1448E-01  0.3945E-02
     -9.425  0.1987E-01  0.5005E-02
     -9.359  0.2798E-01  0.6584E-02
     -9.294  0.2810E-01  0.8514E-02
     -9.229  0.2337E-01  0.1019E-01
     -9.163  0.2257E-01  0.1167E-01
     -9.098  0.2221E-01  0.1314E-01
     -9.032  0.2149E-01  0.1457E-01
     -8.967  0.2935E-01  0.1610E-01
     -8.902  0.2041E-01  0.1772E-01
     -8.836  0.1107E-01  0.1858E-01
     -8.771  0.2250E-01  0.1962E-01
     -8.706  0.3456E-01  0.2157E-01
     -8.640  0.3672E-01  0.2398E-01
     -8.575  0.4028E-01  0.2643E-01
     -8.510  0.4505E-01  0.2922E-01
     -8.444  0.1401E+00  0.3415E-01
     -8.379  0.4713E-01  0.3982E-01
     -8.313  0.4302E-01  0.4253E-01
     -8.248  0.4705E-01  0.4547E-01
     -8.183  0.6536E-01  0.4887E-01
     -8.117  0.7746E-01  0.5363E-01
     -8.052  0.8749E-01  0.5901E-01
     -7.987  0.8941E-01  0.6515E-01
     -7.921  0.6480E-01  0.6997E-01
     -7.856  0.5832E-01  0.7399E-01
     -7.790  0.4938E-01  0.7760E-01
     -7.725  0.9790E-02  0.8000E-01
     -7.660  0.0000E+00  0.8000E-01
     -7.594  0.0000E+00  0.8000E-01
     -7.529  0.0000E+00  0.8000E-01
     -7.464  0.0000E+00  0.8000E-01
     -7.398  0.0000E+00  0.8000E-01
     -7.333  0.0000E+00  0.8000E-01
     -7.268  0.0000E+00  0.8000E-01
     -7.202  0.0000E+00  0.8000E-01
     -7.137  0.0000E+00  0.8000E-01
     -7.071  0.0000E+00  0.8000E-01
     -7.006  0.0000E+00  0.8000E-01
     -6.941  0.0000E+00  0.8000E-01
     -6.875  0.0000E+00  0.8000E-01
     -6.810  0.0000E+00  0.8000E-01
     -6.745  0.0000E+00  0.8000E-01
     -6.679  0.0000E+00  0.8000E-01
     -6.614  0.0000E+00  0.8000E-01
     -6.548  0.0000E+00  0.8000E-01
     -6.483  0.0000E+00  0.8000E-01
     -6.418  0.0000E+00  0.8000E-01
     -6.352  0.0000E+00  0.8000E-01
     -6.287  0.0000E+00  0.8000E-01
     -6.222  0.0000E+00  0.8000E-01
     -6.156  0.0000E+00  0.8000E-01
     -6.091  0.0000E+00  0.8000E-01
     -6.026  0.0000E+00  0.8000E-01
     -5.960  0.0000E+00  0.8000E-01
     -5.895  0.0000E+00  0.8000E-01
     -5.829  0.0000E+00  0.8000E-01
     -5.764  0.0000E+00  0.8000E-01
     -5.699  0.0000E+00  0.8000E-01
     -5.633  0.0000E+00  0.8000E-01
     -5.568  0.0000E+00  0.8000E-01
     -5.503  0.0000E+00  0.8000E-01
     -5.437  0.0000E+00  0.8000E-01
     -5.372  0.0000E+00  0.8000E-01
     -5.306  0.0000E+00  0.8000E-01
     -5.241  0.0000E+00  0.8000E-01
     -5.176  0.0000E+00  0.8000E-01
     -5.110  0.0000E+00  0.8000E-01
     -5.045  0.0000E+00  0.8000E-01
     -4.980  0.0000E+00  0.8000E-01
     -4.914  0.0000E+00  0.8000E-01
     -4.849  0.0000E+00  0.8000E-01
     -4.783  0.0000E+00  0.8000E-01
     -4.718  0.0000E+00  0.8000E-01
     -4.653  0.0000E+00  0.8000E-01
     -4.587  0.0000E+00  0.8000E-01
     -4.522  0.0000E+00  0.8000E-01
     -4.457  0.0000E+00  0.8000E-01
     -4.391  0.0000E+00  0.8000E-01
     -4.326  0.0000E+00  0.8000E-01
     -4.261  0.0000E+00  0.8000E-01
     -4.195  0.0000E+00  0.8000E-01
     -4.130  0.2275E-02  0.8002E-01
     -4.064  0.1792E-01  0.8072E-01
     -3.999  0.2559E-01  0.8206E-01
     -3.934  0.5103E-01  0.8453E-01
     -3.868  0.7006E-01  0.8859E-01
     -3.803  0.1635E+00  0.9640E-01
     -3.738  0.1359E+00  0.1056E+00
     -3.672  0.7484E-01  0.1116E+00
     -3.607  0.6170E-01  0.1159E+00
     -3.541  0.3700E-01  0.1186E+00
     -3.476  0.3880E-01  0.1212E+00
     -3.411  0.3053E-01  0.1233E+00
     -3.345  0.2981E-01  0.1253E+00
     -3.280  0.2915E-01  0.1272E+00
     -3.215  0.2855E-01  0.1291E+00
     -3.149  0.2801E-01  0.1310E+00
     -3.084  0.2195E-01  0.1327E+00
     -3.019  0.2148E-01  0.1341E+00
     -2.953  0.2091E-01  0.1355E+00
     -2.888  0.2020E-01  0.1369E+00
     -2.822  0.1913E-01  0.1381E+00
     -2.757  0.1820E-01  0.1394E+00
     -2.692  0.1695E-01  0.1405E+00
     -2.626  0.1557E-01  0.1416E+00
     -2.561  0.1475E-01  0.1426E+00
     -2.496  0.1267E-01  0.1434E+00
     -2.430  0.1084E-01  0.1442E+00
     -2.365  0.9286E-02  0.1449E+00
     -2.299  0.8963E-02  0.1454E+00
     -2.234  0.7653E-02  0.1460E+00
     -2.169  0.7754E-02  0.1465E+00
     -2.103  0.7837E-02  0.1470E+00
     -2.038  0.7902E-02  0.1476E+00
     -1.973  0.7949E-02  0.1481E+00
     -1.907  0.7978E-02  0.1486E+00
     -1.842  0.8083E-02  0.1491E+00
     -1.776  0.8234E-02  0.1497E+00
     -1.711  0.8421E-02  0.1502E+00
     -1.646  0.8644E-02  0.1508E+00
     -1.580  0.8903E-02  0.1513E+00
     -1.515  0.9197E-02  0.1519E+00
     -1.450  0.9528E-02  0.1525E+00
     -1.384  0.9894E-02  0.1532E+00
     -1.319  0.1049E-01  0.1538E+00
     -1.254  0.1020E-01  0.1545E+00
     -1.188  0.2945E-01  0.1558E+00
     -1.123  0.3114E-01  0.1578E+00
     -1.057  0.3306E-01  0.1599E+00
     -0.992  0.3503E-01  0.1621E+00
     -0.927  0.6485E-01  0.1650E+00
     -0.861  0.7373E-01  0.1698E+00
     -0.796  0.5894E-01  0.1741E+00
     -0.731  0.5266E-01  0.1777E+00
     -0.665  0.5152E-01  0.1811E+00
     -0.600  0.4944E-01  0.1843E+00
     -0.534  0.4580E-01  0.1874E+00
     -0.469  0.4595E-01  0.1904E+00
     -0.404  0.4640E-01  0.1934E+00
     -0.338  0.5259E-01  0.1967E+00
     -0.273  0.5097E-01  0.2001E+00
     -0.208  0.4689E-01  0.2032E+00
     -0.142  0.4779E-01  0.2063E+00
     -0.077  0.5569E-01  0.2097E+00
     -0.012  0.7056E-01  0.2139E+00
      0.054  0.9494E-01  0.2197E+00
      0.119  0.7239E-01  0.2251E+00
      0.185  0.6908E-01  0.2297E+00
      0.250  0.6584E-01  0.2341E+00
      0.315  0.6357E-01  0.2383E+00
      0.381  0.5781E-01  0.2423E+00
      0.446  0.5278E-01  0.2459E+00
      0.511  0.4891E-01  0.2493E+00
      0.577  0.5066E-01  0.2524E+00
      0.642  0.6069E-01  0.2564E+00
      0.708  0.6091E-01  0.2602E+00
      0.773  0.5392E-01  0.2637E+00
      0.838  0.5738E-01  0.2673E+00
      0.904  0.7227E-01  0.2714E+00
      0.969  0.9645E-01  0.2767E+00
      1.034  0.6145E-01  0.2818E+00
      1.100  0.5335E-01  0.2856E+00
      1.165  0.4499E-01  0.2888E+00
      1.231  0.3516E-01  0.2916E+00
      1.296  0.2257E-01  0.2933E+00
      1.361  0.2363E-01  0.2948E+00
      1.427  0.3448E-01  0.2967E+00
      1.492  0.5270E-01  0.2997E+00
      1.557  0.5563E-01  0.3031E+00
      1.623  0.6178E-01  0.3069E+00
      1.688  0.5496E-01  0.3108E+00
      1.753  0.1974E-01  0.3133E+00
      1.819  0.1733E-01  0.3145E+00
      1.884  0.1496E-01  0.3156E+00
      1.950  0.1262E-01  0.3165E+00
      2.015  0.1034E-01  0.3172E+00
      2.080  0.1049E-01  0.3179E+00
      2.146  0.1080E-01  0.3186E+00
      2.211  0.9088E-02  0.3193E+00
      2.276  0.5350E-02  0.3197E+00
      2.342  0.1393E-02  0.3199E+00
      2.407  0.3909E-03  0.3200E+00
      2.473  0.4910E-05  0.3200E+00
      2.538  0.0000E+00  0.3200E+00
      2.603  0.0000E+00  0.3200E+00
      2.669  0.0000E+00  0.3200E+00
      2.734  0.0000E+00  0.3200E+00
      2.799  0.0000E+00  0.3200E+00
      2.865  0.2714E-05  0.3200E+00
      2.930  0.1328E-04  0.3200E+00
      2.995  0.3183E-04  0.3200E+00
      3.061  0.5836E-04  0.3200E+00
      3.126  0.9286E-04  0.3200E+00
      3.192  0.1353E-03  0.3200E+00
      3.257  0.1858E-03  0.3200E+00
      3.322  0.2442E-03  0.3200E+00
      3.388  0.3106E-03  0.3201E+00
      3.453  0.3850E-03  0.3201E+00
      3.518  0.4046E-02  0.3203E+00
      3.584  0.1919E-02  0.3204E+00
      3.649  0.2275E-02  0.3205E+00
      3.715  0.2667E-02  0.3207E+00
      3.780  0.3094E-02  0.3209E+00
      3.845  0.3557E-02  0.3211E+00
      3.911  0.4055E-02  0.3214E+00
      3.976  0.4802E-02  0.3216E+00
      4.041  0.8011E-02  0.3221E+00
      4.107  0.1106E-01  0.3227E+00
      4.172  0.1394E-01  0.3235E+00
      4.238  0.2778E-01  0.3250E+00
      4.303  0.2472E-01  0.3265E+00
      4.368  0.3338E-01  0.3283E+00
      4.434  0.4463E-01  0.3310E+00
      4.499  0.4625E-01  0.3339E+00
      4.564  0.5143E-01  0.3371E+00
      4.630  0.5990E-01  0.3407E+00
      4.695  0.6844E-01  0.3450E+00
      4.760  0.6932E-01  0.3496E+00
      4.826  0.6909E-01  0.3539E+00
      4.891  0.1113E+00  0.3595E+00
      4.957  0.8055E-01  0.3650E+00
      5.022  0.6626E-01  0.3699E+00
      5.087  0.6588E-01  0.3743E+00
      5.153  0.6919E-01  0.3789E+00
      5.218  0.6290E-01  0.3833E+00
      5.283  0.7692E-01  0.3875E+00
      5.349  0.5977E-01  0.3920E+00
      5.414  0.3987E-01  0.3951E+00
      5.480  0.3768E-01  0.3976E+00
      5.545  0.3578E-01  0.4000E+00
      5.610  0.3417E-01  0.4023E+00
      5.676  0.3285E-01  0.4045E+00
      5.741  0.2705E-01  0.4064E+00
      5.806  0.1340E-01  0.4078E+00
      5.872  0.1838E-01  0.4089E+00
      5.937  0.2003E-01  0.4102E+00
      6.002  0.2167E-01  0.4115E+00
      6.068  0.2328E-01  0.4130E+00
      6.133  0.2487E-01  0.4146E+00
      6.199  0.2644E-01  0.4163E+00
      6.264  0.2891E-01  0.4181E+00
      6.329  0.4734E-01  0.4203E+00
      6.395  0.5406E-01  0.4236E+00
      6.460  0.4989E-01  0.4270E+00
      6.525  0.5343E-01  0.4304E+00
      6.591  0.6199E-01  0.4342E+00
      6.656  0.6352E-01  0.4384E+00
      6.722  0.8476E-01  0.4429E+00
      6.787  0.6542E-01  0.4478E+00
      6.852  0.4922E-01  0.4515E+00
      6.918  0.3271E-01  0.4543E+00
      6.983  0.2875E-01  0.4561E+00
      7.048  0.3287E-01  0.4581E+00
      7.114  0.3772E-01  0.4604E+00
      7.179  0.7131E-01  0.4635E+00
      7.245  0.7963E-01  0.4706E+00
      7.310  0.4425E-01  0.4738E+00
      7.375  0.2857E-01  0.4763E+00
      7.441  0.1957E-01  0.4780E+00
      7.506  0.1350E-01  0.4791E+00
      7.571  0.7436E-02  0.4798E+00
      7.637  0.0000E+00  0.4800E+00
      7.702  0.0000E+00  0.4800E+00
      7.767  0.0000E+00  0.4800E+00
      7.833  0.0000E+00  0.4800E+00
      7.898  0.0000E+00  0.4800E+00
      7.964  0.0000E+00  0.4800E+00
      8.029  0.0000E+00  0.4800E+00
      8.094  0.0000E+00  0.4800E+00
      8.160  0.0000E+00  0.4800E+00
      8.225  0.0000E+00  0.4800E+00
      8.290  0.0000E+00  0.4800E+00
      8.356  0.0000E+00  0.4800E+00
      8.421  0.0000E+00  0.4800E+00
      8.487  0.0000E+00  0.4800E+00
      8.552  0.0000E+00  0.4800E+00
      8.617  0.0000E+00  0.4800E+00
