       N       E                     dE             d eps       ncg     rms          rms(c)
DAV:   1    -0.325893086012E+02   -0.32589E+02   -0.75425E+00   544   0.117E+01    0.528E+00
DAV:   2    -0.323990554323E+02    0.19025E+00   -0.38757E-01   496   0.286E+00    0.317E+00
DAV:   3    -0.323408903101E+02    0.58165E-01   -0.30976E-01   512   0.202E+00    0.319E-01
DAV:   4    -0.323357244572E+02    0.51659E-02   -0.23270E-02   504   0.682E-01    0.213E-01
DAV:   5    -0.323353283272E+02    0.39613E-03   -0.20480E-03   560   0.181E-01    0.582E-02
DAV:   6    -0.323353519957E+02   -0.23668E-04   -0.42759E-05   256   0.308E-02
   1 F= -.30775462E+02 E0= -.30775462E+02  d E =-.307755E+02
       N       E                     dE             d eps       ncg     rms          rms(c)
DAV:   1    -0.328078446716E+02   -0.47252E+00   -0.14591E+00   544   0.515E+00    0.129E+00
DAV:   2    -0.327577001474E+02    0.50145E-01   -0.85712E-02   504   0.131E+00    0.666E-01
DAV:   3    -0.327406376654E+02    0.17062E-01   -0.60502E-02   528   0.897E-01    0.196E-01
DAV:   4    -0.327399844086E+02    0.65326E-03   -0.24622E-03   512   0.236E-01    0.147E-01
DAV:   5    -0.327395592131E+02    0.42520E-03   -0.76461E-04   544   0.115E-01    0.676E-02
DAV:   6    -0.327395609188E+02   -0.17057E-05   -0.63672E-05   240   0.318E-02
   2 F= -.31117667E+02 E0= -.31117667E+02  d E =-.342205E+00
       N       E                     dE             d eps       ncg     rms          rms(c)
DAV:   1    -0.332831382098E+02   -0.54358E+00   -0.40823E+00   528   0.845E+00    0.210E+00
DAV:   2    -0.331428062558E+02    0.14033E+00   -0.24008E-01   512   0.219E+00    0.107E+00
DAV:   3    -0.330965195795E+02    0.46287E-01   -0.16738E-01   520   0.147E+00    0.301E-01
DAV:   4    -0.330943662766E+02    0.21533E-02   -0.74377E-03   528   0.406E-01    0.208E-01
DAV:   5    -0.330933134425E+02    0.10528E-02   -0.19897E-03   552   0.185E-01    0.109E-01
DAV:   6    -0.330933247270E+02   -0.11285E-04   -0.16050E-04   344   0.473E-02
   3 F= -.31363164E+02 E0= -.31363164E+02  d E =-.587702E+00
       N       E                     dE             d eps       ncg     rms          rms(c)
DAV:   1    -0.331216135915E+02   -0.28300E-01   -0.10860E-01   512   0.139E+00    0.336E-01
DAV:   2    -0.331180112127E+02    0.36024E-02   -0.63907E-03   520   0.354E-01    0.172E-01
DAV:   3    -0.331168061077E+02    0.12051E-02   -0.43175E-03   520   0.235E-01    0.521E-02
DAV:   4    -0.331167492066E+02    0.56901E-04   -0.17304E-04   312   0.636E-02
   4 F= -.31368592E+02 E0= -.31368592E+02  d E =-.593130E+00
