<?xml version="1.0" encoding="ISO-8859-1"?>
<modeling>
 <generator>
  <i name="program" type="string">vasp </i>
  <i name="version" type="string">6.4.3  </i>
  <i name="subversion" type="string">19Mar24 (build Aug 29 2024 15:27:20) complex                          parallel </i>
  <i name="platform" type="string">LinuxIFC </i>
  <i name="date" type="string">2025 03 19 </i>
  <i name="time" type="string">11:21:06 </i>
 </generator>
 <incar>
  <i type="string" name="SYSTEM">GaAs</i>
  <i type="string" name="PREC">Normal</i>
  <i type="int" name="IBRION">     2</i>
  <i type="int" name="NFREE">     2</i>
  <i type="int" name="NSW">   100</i>
  <i type="int" name="ISIF">     3</i>
  <i name="ENCUT">    400.00000000</i>
  <i name="POTIM">      0.10000000</i>
  <i type="int" name="ISMEAR">    -5</i>
  <i name="SIGMA">      0.10000000</i>
  <i name="PSTRESS">     15.00000000</i>
 </incar>
 <primitive_cell>
  <structure name="primitive_cell" >
   <crystal>
    <varray name="basis" >
     <v>       2.75132003      -2.75132003       0.00000000 </v>
     <v>       2.75132003       0.00000000       2.75132003 </v>
     <v>       0.00000000      -2.75132003       2.75132003 </v>
    </varray>
    <i name="volume">     41.65367512 </i>
    <varray name="rec_basis" >
     <v>       0.18173095      -0.18173095      -0.18173095 </v>
     <v>       0.18173095       0.18173095       0.18173095 </v>
     <v>      -0.18173095      -0.18173095       0.18173095 </v>
    </varray>
   </crystal>
   <varray name="positions" >
    <v>       0.00000000       0.00000000       0.00000000 </v>
    <v>       0.75000000       0.75000000       0.75000000 </v>
   </varray>
  </structure>
  <varray name="primitive_index" >
   <v type="int" >        1 </v>
   <v type="int" >        5 </v>
  </varray>
 </primitive_cell>
 <kpoints>
  <generation param="Gamma">
   <v type="int" name="divisions">       5        5        5 </v>
   <v name="usershift">      0.00000000       0.00000000       0.00000000 </v>
   <v name="genvec1">      0.20000000       0.00000000       0.00000000 </v>
   <v name="genvec2">      0.00000000       0.20000000       0.00000000 </v>
   <v name="genvec3">      0.00000000       0.00000000       0.20000000 </v>
   <v name="shift">      0.00000000       0.00000000       0.00000000 </v>
  </generation>
  <varray name="kpointlist" >
   <v>       0.00000000       0.00000000       0.00000000 </v>
   <v>       0.20000000       0.00000000       0.00000000 </v>
   <v>       0.40000000       0.00000000       0.00000000 </v>
   <v>       0.20000000       0.20000000       0.00000000 </v>
   <v>       0.40000000       0.20000000       0.00000000 </v>
   <v>       0.40000000       0.40000000       0.00000000 </v>
   <v>       0.20000000       0.20000000       0.20000000 </v>
   <v>       0.40000000       0.20000000       0.20000000 </v>
   <v>       0.40000000       0.40000000       0.20000000 </v>
   <v>       0.40000000       0.40000000       0.40000000 </v>
  </varray>
  <varray name="weights" >
   <v>       0.00800000 </v>
   <v>       0.04800000 </v>
   <v>       0.04800000 </v>
   <v>       0.09600000 </v>
   <v>       0.19200000 </v>
   <v>       0.09600000 </v>
   <v>       0.06400000 </v>
   <v>       0.19200000 </v>
   <v>       0.19200000 </v>
   <v>       0.06400000 </v>
  </varray>
  <varray name="tetrahedronlist"  type="int" >
   <v type="int" >       12        7        8        8        9 </v>
   <v type="int" >       18        8        8        9        9 </v>
   <v type="int" >       24        8        9        9       10 </v>
   <v type="int" >       12        8        9        9        9 </v>
   <v type="int" >       24        9        9        9       10 </v>
   <v type="int" >       18        9        9       10       10 </v>
   <v type="int" >       24        4        5        7        8 </v>
   <v type="int" >       12        5        7        8        8 </v>
   <v type="int" >       24        5        8        8        9 </v>
   <v type="int" >       24        4        5        5        8 </v>
   <v type="int" >       24        5        5        6        8 </v>
   <v type="int" >       12        5        6        8        9 </v>
   <v type="int" >       12        9       10       10       10 </v>
   <v type="int" >       12        8        8        9       10 </v>
   <v type="int" >       12        8        9       10       10 </v>
   <v type="int" >       12        5        5        8        9 </v>
   <v type="int" >       12        5        8        9        9 </v>
   <v type="int" >       12        5        5        6        9 </v>
   <v type="int" >       12        5        6        6        9 </v>
   <v type="int" >       12        5        6        9        9 </v>
   <v type="int" >       12        5        6        8        8 </v>
   <v type="int" >       12        5        6        6        8 </v>
   <v type="int" >       12        6        8        8        9 </v>
   <v type="int" >       12        6        8        9        9 </v>
   <v type="int" >       12        6        6        8        9 </v>
   <v type="int" >       12        7        8        9       10 </v>
   <v type="int" >       12        4        5        8        9 </v>
   <v type="int" >       12        4        7        8        9 </v>
   <v type="int" >       12        4        5        6        9 </v>
   <v type="int" >       12        5        6        7        8 </v>
   <v type="int" >       12        4        5        6        7 </v>
   <v type="int" >       12        6        7        8        9 </v>
   <v type="int" >       12        2        4        7        8 </v>
   <v type="int" >       12        2        4        5        8 </v>
   <v type="int" >       12        2        3        5        8 </v>
   <v type="int" >       12        4        4        5        7 </v>
   <v type="int" >       12        2        4        4        5 </v>
   <v type="int" >       12        2        3        4        5 </v>
   <v type="int" >       12        3        4        5        5 </v>
   <v type="int" >       12        2        3        4        7 </v>
   <v type="int" >       12        3        4        5        7 </v>
   <v type="int" >       12        3        5        7        8 </v>
   <v type="int" >        6       10       10       10       10 </v>
   <v type="int" >       12        6        6        9        9 </v>
   <v type="int" >       12        6        9        9        9 </v>
   <v type="int" >       12        6        6        6        9 </v>
   <v type="int" >       12        3        5        8        8 </v>
   <v type="int" >       12        3        5        5        8 </v>
   <v type="int" >       12        3        3        5        8 </v>
   <v type="int" >       12        5        5        5        8 </v>
   <v type="int" >       12        3        5        5        5 </v>
   <v type="int" >        6        3        3        5        5 </v>
   <v type="int" >        6        5        5        8        8 </v>
   <v type="int" >       12        2        4        4        7 </v>
   <v type="int" >       12        2        2        4        4 </v>
   <v type="int" >       12        1        2        2        4 </v>
   <v type="int" >       12        1        2        4        7 </v>
  </varray>
  <i name="volumeweight">      0.00133333 </i>
 </kpoints>
 <parameters>
  <separator name="general" >
   <i type="string" name="SYSTEM">GaAs</i>
   <i type="logical" name="LCOMPAT"> F  </i>
  </separator>
  <separator name="electronic" >
   <i type="string" name="PREC">normal</i>
   <i name="ENMAX">    400.00000000</i>
   <i name="ENAUG">    462.75800000</i>
   <i name="EDIFF">      0.00010000</i>
   <i type="int" name="IALGO">    38</i>
   <i type="int" name="IWAVPR">    11</i>
   <i type="int" name="NBANDS">    24</i>
   <i type="int" name="NBANDSLOW">    -1</i>
   <i type="int" name="NBANDSHIGH">    -1</i>
   <i name="NELECT">     32.00000000</i>
   <i type="int" name="TURBO">     0</i>
   <i type="int" name="IRESTART">     0</i>
   <i type="int" name="NREBOOT">     0</i>
   <i type="int" name="NMIN">     0</i>
   <i name="EREF">      0.00000000</i>
   <separator name="electronic smearing" >
    <i type="int" name="ISMEAR">    -5</i>
    <i name="SIGMA">      0.10000000</i>
    <i name="KSPACING">      0.50000000</i>
    <i type="logical" name="KGAMMA"> T  </i>
    <i type="logical" name="KBLOWUP"> T  </i>
   </separator>
   <separator name="electronic projectors" >
    <i type="logical" name="LREAL"> F  </i>
    <v name="ROPT">      0.00000000      0.00000000</v>
    <i type="int" name="LMAXPAW">  -100</i>
    <i type="int" name="LMAXMIX">     2</i>
    <i type="logical" name="NLSPLINE"> F  </i>
   </separator>
   <separator name="electronic startup" >
    <i type="int" name="ISTART">     1</i>
    <i type="int" name="ICHARG">     0</i>
    <i type="int" name="INIWAV">     1</i>
   </separator>
   <separator name="electronic spin" >
    <i type="int" name="ISPIN">     1</i>
    <i type="logical" name="LNONCOLLINEAR"> F  </i>
    <v name="MAGMOM">      1.00000000      1.00000000      1.00000000      1.00000000      1.00000000      1.00000000      1.00000000      1.00000000</v>
    <i name="NUPDOWN">     -1.00000000</i>
    <i type="logical" name="LSORBIT"> F  </i>
    <v name="SAXIS">      0.00000000      0.00000000      1.00000000</v>
    <i type="logical" name="LSPIRAL"> F  </i>
    <v name="QSPIRAL">      0.00000000      0.00000000      0.00000000</v>
    <i type="logical" name="LZEROZ"> F  </i>
   </separator>
   <separator name="electronic exchange-correlation" >
    <i type="logical" name="LASPH"> F  </i>
   </separator>
   <separator name="electronic convergence" >
    <i type="int" name="NELM">    60</i>
    <i type="int" name="NELMDL">     0</i>
    <i type="int" name="NELMIN">     2</i>
    <i name="ENINI">    400.00000000</i>
    <separator name="electronic convergence detail" >
     <i type="logical" name="LDIAG"> T  </i>
     <i type="logical" name="LSUBROT"> F  </i>
     <i name="WEIMIN">      0.00100000</i>
     <i name="EBREAK">      0.00000104</i>
     <i name="DEPER">      0.30000000</i>
     <i type="int" name="NRMM">     4</i>
     <i name="TIME">      0.40000000</i>
    </separator>
   </separator>
   <separator name="electronic mixer" >
    <i name="AMIX">      0.40000000</i>
    <i name="BMIX">      1.00000000</i>
    <i name="AMIN">      0.10000000</i>
    <i name="AMIX_MAG">      1.60000000</i>
    <i name="BMIX_MAG">      1.00000000</i>
    <separator name="electronic mixer details" >
     <i type="int" name="IMIX">     4</i>
     <i type="logical" name="MIXFIRST"> F  </i>
     <i type="int" name="MAXMIX">   -45</i>
     <i name="WC">    100.00000000</i>
     <i type="int" name="INIMIX">     1</i>
     <i type="int" name="MIXPRE">     1</i>
     <i type="int" name="MREMOVE">     5</i>
    </separator>
   </separator>
   <separator name="electronic dipolcorrection" >
    <i type="logical" name="LDIPOL"> F  </i>
    <i type="logical" name="LMONO"> F  </i>
    <i type="int" name="IDIPOL">     0</i>
    <i name="EPSILON">      1.00000000</i>
    <v name="DIPOL">   -100.00000000   -100.00000000   -100.00000000</v>
    <i name="EFIELD">      0.00000000</i>
    <i type="logical" name="LVACPOTAV"> F  </i>
   </separator>
  </separator>
  <separator name="grids" >
   <i type="int" name="NGX">    28</i>
   <i type="int" name="NGY">    28</i>
   <i type="int" name="NGZ">    28</i>
   <i type="int" name="NGXF">    56</i>
   <i type="int" name="NGYF">    56</i>
   <i type="int" name="NGZF">    56</i>
   <i type="logical" name="ADDGRID"> F  </i>
  </separator>
  <separator name="ionic" >
   <i type="int" name="NSW">   100</i>
   <i type="int" name="IBRION">     2</i>
   <i type="int" name="MDALGO">     0</i>
   <i type="int" name="ISIF">     3</i>
   <i name="PSTRESS">     15.00000000</i>
   <i name="EDIFFG">      0.00100000</i>
   <i type="int" name="NFREE">     2</i>
   <i name="POTIM">      0.10000000</i>
   <i name="SMASS">     -3.00000000</i>
   <i name="SCALEE">      1.00000000</i>
  </separator>
  <separator name="ionic md" >
   <i name="TEBEG">      0.00010000</i>
   <i name="TEEND">      0.00010000</i>
   <i type="int" name="NBLOCK">     1</i>
   <i type="int" name="KBLOCK">   100</i>
   <i type="int" name="NPACO">   256</i>
   <i name="APACO">     10.00000000</i>
  </separator>
  <separator name="symmetry" >
   <i type="int" name="ISYM">     2</i>
   <i name="SYMPREC">      0.00001000</i>
  </separator>
  <separator name="dos" >
   <i type="int" name="LORBIT">     0</i>
   <v name="RWIGS">     -1.00000000     -1.00000000</v>
   <i type="int" name="NEDOS">   301</i>
   <i name="EMIN">     10.00000000</i>
   <i name="EMAX">    -10.00000000</i>
   <i name="EFERMI">      0.00000000</i>
  </separator>
  <separator name="writing" >
   <i type="int" name="NWRITE">     2</i>
   <i type="logical" name="LWAVE"> T  </i>
   <i type="logical" name="LDOWNSAMPLE"> F  </i>
   <i type="logical" name="LCHARG"> T  </i>
   <i type="logical" name="LPARD"> F  </i>
   <i type="logical" name="LVTOT"> F  </i>
   <i type="logical" name="LVHAR"> F  </i>
   <i type="logical" name="LELF"> F  </i>
   <i type="logical" name="LOPTICS"> F  </i>
   <v name="STM">      0.00000000      0.00000000      0.00000000      0.00000000      0.00000000      0.00000000      0.00000000</v>
  </separator>
  <separator name="performance" >
   <i type="int" name="NPAR">     8</i>
   <i type="int" name="NSIM">     4</i>
   <i type="int" name="NBLK">    -1</i>
   <i type="logical" name="LPLANE"> T  </i>
   <i type="logical" name="LSCALAPACK"> T  </i>
   <i type="logical" name="LSCAAWARE"> F  </i>
   <i type="logical" name="LSCALU"> F  </i>
   <i type="logical" name="LASYNC"> F  </i>
   <i type="logical" name="LORBITALREAL"> F  </i>
  </separator>
  <separator name="miscellaneous" >
   <i type="int" name="IDIOT">     3</i>
   <i type="int" name="PHON_NSTRUCT">    -1</i>
   <i type="logical" name="LMUSIC"> F  </i>
   <v name="POMASS">     74.92200000     69.72300000</v>
   <v name="DARWINR">      0.00000000      0.00000000</v>
   <v name="DARWINV">      1.00000000      1.00000000</v>
   <i type="logical" name="LCORR"> T  </i>
  </separator>
  <i type="logical" name="GGA_COMPAT"> T  </i>
  <i type="logical" name="LBERRY"> F  </i>
  <i type="int" name="ICORELEVEL">     0</i>
  <i type="logical" name="LDAU"> F  </i>
  <i type="int" name="I_CONSTRAINED_M">     0</i>
  <separator name="electronic exchange-correlation" >
   <i type="string" name="GGA    ">PE</i>
   <i type="string" name="XC_C">1</i>
   <i type="int" name="VOSKOWN">     0</i>
   <i type="logical" name="LHFCALC"> F  </i>
   <i type="string" name="PRECFOCK"></i>
   <i type="logical" name="LSYMGRAD"> F  </i>
   <i type="logical" name="LHFONE"> F  </i>
   <i type="logical" name="LRHFCALC"> F  </i>
   <i type="logical" name="LTHOMAS"> F  </i>
   <i type="logical" name="LMODELHF"> F  </i>
   <i type="logical" name="LFOCKACE"> F  </i>
   <i name="ENCUT4O">     -1.00000000</i>
   <i type="int" name="EXXOEP">     0</i>
   <i type="int" name="FOURORBIT">     0</i>
   <i name="AEXX">      0.00000000</i>
   <i name="HFALPHA">      0.00000000</i>
   <i name="MCALPHA">      0.00000000</i>
   <i name="ALDAX">      1.00000000</i>
   <i name="AGGAX">      1.00000000</i>
   <i name="AMGGAX">      1.00000000</i>
   <i name="ALDAC">      1.00000000</i>
   <i name="AGGAC">      1.00000000</i>
   <i name="AMGGAC">      1.00000000</i>
   <i type="int" name="NKREDX">     1</i>
   <i type="int" name="NKREDY">     1</i>
   <i type="int" name="NKREDZ">     1</i>
   <i type="logical" name="SHIFTRED"> F  </i>
   <i type="logical" name="ODDONLY"> F  </i>
   <i type="logical" name="EVENONLY"> F  </i>
   <i type="int" name="LMAXFOCK">     0</i>
   <i type="int" name="NMAXFOCKAE">     0</i>
   <i type="logical" name="LFOCKAEDFT"> F  </i>
   <i name="HFSCREEN">      0.00000000</i>
   <i name="HFSCREENC">      0.00000000</i>
   <i type="int" name="NBANDSGWLOW">     0</i>
  </separator>
  <separator name="vdW DFT" >
   <i type="logical" name="LUSE_VDW"> F  </i>
   <i type="int" name="IVDW_NL">    -1</i>
   <i type="logical" name="LSPIN_VDW"> F  </i>
   <i name="ZAB_VDW">     -0.84910000</i>
   <i name="GAMMA_VDW">      1.39626340</i>
   <i name="ALPHA_VDW">      0.00000000</i>
   <i name="PARAM1">      0.12340000</i>
   <i name="PARAM2">      1.00000000</i>
   <i name="BPARAM">      6.30000000</i>
   <i name="CPARAM">      0.00930000</i>
  </separator>
  <separator name="model GW" >
   <i type="int" name="MODEL_GW">     0</i>
   <i name="MODEL_EPS0">     12.49610254</i>
   <i name="MODEL_ALPHA">      1.00000000</i>
  </separator>
  <separator name="linear response parameters" >
   <i type="logical" name="LEPSILON"> F  </i>
   <i type="logical" name="LRPA"> F  </i>
   <i type="logical" name="LNABLA"> F  </i>
   <i type="logical" name="LVEL"> F  </i>
   <i name="CSHIFT">      0.10000000</i>
   <i name="OMEGAMAX">     -1.00000000</i>
   <i name="DEG_THRESHOLD">      0.00200000</i>
   <i name="RTIME">     -0.10000000</i>
   <i name="WPLASMAI">      0.00000000</i>
   <v name="DFIELD">      0.00000000      0.00000000      0.00000000</v>
   <v name="WPLASMA">      0.00000000      0.00000000      0.00000000      0.00000000      0.00000000      0.00000000      0.00000000      0.00000000      0.00000000</v>
  </separator>
  <separator name="orbital magnetization" >
   <i type="logical" name="NUCIND"> F  </i>
   <v name="MAGPOS">      0.00000000      0.00000000      0.00000000</v>
   <i type="logical" name="LNICSALL"> T  </i>
   <i type="logical" name="ORBITALMAG"> F  </i>
   <i type="logical" name="LMAGBLOCH"> F  </i>
   <i type="logical" name="LCHIMAG"> F  </i>
   <i type="logical" name="LGAUGE"> T  </i>
   <i type="int" name="MAGATOM">     0</i>
   <v name="MAGDIPOL">      0.00000000      0.00000000      0.00000000</v>
   <v name="AVECCONST">      0.00000000      0.00000000      0.00000000</v>
  </separator>
  <separator name="response functions" >
   <i type="logical" name="LALL_IN_ONE"> F  </i>
   <i type="int" name="IALL_IN_ONE">    -1</i>
   <i type="int" name="NBANDS_WAVE">    -1</i>
   <i type="logical" name="LFINITE_TEMPERATURE"> F  </i>
   <i type="logical" name="LADDER"> F  </i>
   <i type="logical" name="LRPAFORCE"> F  </i>
   <i type="logical" name="LFXC"> F  </i>
   <i type="logical" name="LHARTREE"> T  </i>
   <i type="int" name="IBSE">     0</i>
   <v type="int" name="KPOINT">    -1     0     0     0</v>
   <i type="logical" name="LTCTC"> F  </i>
   <i type="logical" name="LTCTE"> F  </i>
   <i type="logical" name="LTETE"> F  </i>
   <i type="logical" name="LTRIPLET"> F  </i>
   <i type="logical" name="LFXCEPS"> F  </i>
   <i type="logical" name="LFXHEG"> F  </i>
   <i type="int" name="NATURALO">     2</i>
   <i type="logical" name="LHOLEGF"> F  </i>
   <i type="logical" name="L2ORDER"> F  </i>
   <i type="logical" name="LDMP1"> F  </i>
   <i type="logical" name="LMP2LT"> F  </i>
   <i type="logical" name="LSMP2LT"> F  </i>
   <i type="logical" name="LGWLF"> F  </i>
   <i name="ENCUTGW">     -1.60000002</i>
   <i name="ENCUTGWSOFT">     -1.60000002</i>
   <i name="ENCUTLF">     -1.00000000</i>
   <i type="logical" name="ESF_SPLINES"> F  </i>
   <i name="ESF_CONV">      0.01000000</i>
   <i type="int" name="ESF_NINTER">    15</i>
   <i type="int" name="LMAXMP2">    -1</i>
   <i name="SCISSOR">      0.00000000</i>
   <i type="int" name="NOMEGA">     0</i>
   <i type="int" name="NOMEGAR">     0</i>
   <i type="int" name="NBANDSGW">    -1</i>
   <i type="int" name="NBANDSO">    -1</i>
   <i type="int" name="NBANDSV">    -1</i>
   <i type="int" name="NELMGW">     1</i>
   <i type="int" name="NELMHF">     1</i>
   <i type="int" name="DIM">     3</i>
   <i type="int" name="IESPILON">     4</i>
   <i type="int" name="ANTIRES">     0</i>
   <i name="OMEGAMAX">    -30.00000000</i>
   <i name="OMEGAMIN">    -30.00000000</i>
   <i name="OMEGATL">   -200.00000000</i>
   <i type="int" name="OMEGAGRID">     0</i>
   <i name="CSHIFT">     -0.10000000</i>
   <i type="logical" name="LSELFENERGY"> F  </i>
   <i type="logical" name="LSPECTRAL"> F  </i>
   <i type="logical" name="LSPECTRALGW"> F  </i>
   <i type="logical" name="LSINGLES"> F  </i>
   <i type="logical" name="LFERMIGW"> F  </i>
   <i type="logical" name="ODDONLYGW"> F  </i>
   <i type="logical" name="EVENONLYGW"> F  </i>
   <i type="int" name="NKREDLFX">     1</i>
   <i type="int" name="NKREDLFY">     1</i>
   <i type="int" name="NKREDLFZ">     1</i>
   <i type="int" name="MAXMEM">  2800</i>
   <i type="int" name="TELESCOPE">     0</i>
   <i type="int" name="NTAUPAR">    -1</i>
   <i type="int" name="NOMEGAPAR">    -1</i>
   <i name="DAMP_NEWTON">      0.80000001</i>
   <i name="LAMBDA">      1.00000000</i>
  </separator>
  <separator name="External order field" >
   <i name="OFIELD_KAPPA">      0.00000000</i>
   <v name="OFIELD_K">      0.00000000      0.00000000      0.00000000</v>
   <i name="OFIELD_Q6_NEAR">      0.00000000</i>
   <i name="OFIELD_Q6_FAR">      0.00000000</i>
   <i name="OFIELD_A">      0.00000000</i>
  </separator>
  <separator name="optional k-points parameters" >
   <i type="int" name="KPOINTS_OPT_MODE">     1</i>
   <i type="logical" name="LKPOINTS_OPT"> F  </i>
  </separator>
 </parameters>
 <atominfo>
  <atoms>       8 </atoms>
  <types>       2 </types>
  <array name="atoms" >
   <dimension dim="1">ion</dimension>
   <field type="string">element</field>
   <field type="int">atomtype</field>
   <set>
    <rc><c>As</c><c>   1</c></rc>
    <rc><c>As</c><c>   1</c></rc>
    <rc><c>As</c><c>   1</c></rc>
    <rc><c>As</c><c>   1</c></rc>
    <rc><c>Ga</c><c>   2</c></rc>
    <rc><c>Ga</c><c>   2</c></rc>
    <rc><c>Ga</c><c>   2</c></rc>
    <rc><c>Ga</c><c>   2</c></rc>
   </set>
  </array>
  <array name="atomtypes" >
   <dimension dim="1">type</dimension>
   <field type="int">atomspertype</field>
   <field type="string">element</field>
   <field>mass</field>
   <field>valence</field>
   <field type="string">pseudopotential</field>
   <set>
    <rc><c>   4</c><c>As</c><c>     74.92200000</c><c>      5.00000000</c><c>  PAW_PBE As 22Sep2009                  </c></rc>
    <rc><c>   4</c><c>Ga</c><c>     69.72300000</c><c>      3.00000000</c><c>  PAW_PBE Ga 08Apr2002                  </c></rc>
   </set>
  </array>
 </atominfo>
 <structure name="initialpos" >
  <crystal>
   <varray name="basis" >
    <v>       5.50264006       0.00000000       0.00000000 </v>
    <v>       0.00000000       5.50264006       0.00000000 </v>
    <v>       0.00000000       0.00000000       5.50264006 </v>
   </varray>
   <i name="volume">    166.61470049 </i>
   <varray name="rec_basis" >
    <v>       0.18173095       0.00000000       0.00000000 </v>
    <v>       0.00000000       0.18173095       0.00000000 </v>
    <v>       0.00000000       0.00000000       0.18173095 </v>
   </varray>
  </crystal>
  <varray name="positions" >
   <v>       0.00000000       0.00000000       0.00000000 </v>
   <v>       0.50000000       0.50000000       0.00000000 </v>
   <v>       0.50000000       0.00000000       0.50000000 </v>
   <v>       0.00000000       0.50000000       0.50000000 </v>
   <v>       0.25000000       0.25000000       0.25000000 </v>
   <v>       0.75000000       0.25000000       0.75000000 </v>
   <v>       0.75000000       0.75000000       0.25000000 </v>
   <v>       0.25000000       0.75000000       0.75000000 </v>
  </varray>
 </structure>
 <calculation>
  <scstep>
   <time name="dav">    0.20    0.21</time>
   <time name="total">    0.22    0.23</time>
   <energy>
    <i name="alphaZ">     82.12872199 </i>
    <i name="ewald">   -941.78307081 </i>
    <i name="hartreedc">    -71.54195235 </i>
    <i name="XCdc">   -119.79238163 </i>
    <i name="pawpsdc">   2888.93764376 </i>
    <i name="pawaedc">  -2710.21976758 </i>
    <i name="eentropy">      0.00000000 </i>
    <i name="bandstr">    -76.53513492 </i>
    <i name="atom">    916.21663293 </i>
    <i name="e_fr_energy">    -32.58930860 </i>
    <i name="e_wo_entrp">    -32.58930860 </i>
    <i name="e_0_energy">    -32.58930860 </i>
   </energy>
  </scstep>
  <scstep>
   <time name="dav">    0.18    0.19</time>
   <time name="total">    0.20    0.21</time>
   <energy>
    <i name="e_fr_energy">    -32.39905543 </i>
    <i name="e_wo_entrp">    -32.39905543 </i>
    <i name="e_0_energy">    -32.39905543 </i>
   </energy>
  </scstep>
  <scstep>
   <time name="dav">    0.18    0.19</time>
   <time name="total">    0.20    0.21</time>
   <energy>
    <i name="e_fr_energy">    -32.34089031 </i>
    <i name="e_wo_entrp">    -32.34089031 </i>
    <i name="e_0_energy">    -32.34089031 </i>
   </energy>
  </scstep>
  <scstep>
   <time name="dav">    0.18    0.19</time>
   <time name="total">    0.20    0.21</time>
   <energy>
    <i name="e_fr_energy">    -32.33572446 </i>
    <i name="e_wo_entrp">    -32.33572446 </i>
    <i name="e_0_energy">    -32.33572446 </i>
   </energy>
  </scstep>
  <scstep>
   <time name="dav">    0.19    0.20</time>
   <time name="total">    0.22    0.23</time>
   <energy>
    <i name="e_fr_energy">    -32.33532833 </i>
    <i name="e_wo_entrp">    -32.33532833 </i>
    <i name="e_0_energy">    -32.33532833 </i>
   </energy>
  </scstep>
  <scstep>
   <time name="dav">    0.13    0.14</time>
   <time name="total">    0.14    0.15</time>
   <energy>
    <i name="alphaZ">     82.12872199 </i>
    <i name="ewald">   -941.78307081 </i>
    <i name="hartreedc">    -78.87910271 </i>
    <i name="XCdc">   -120.02893403 </i>
    <i name="pawpsdc">   2304.73592825 </i>
    <i name="pawaedc">  -2126.23692148 </i>
    <i name="eentropy">      0.00000000 </i>
    <i name="bandstr">    -68.48860613 </i>
    <i name="atom">    916.21663293 </i>
    <i name="e_fr_energy">    -32.33535200 </i>
    <i name="e_wo_entrp">    -32.33535200 </i>
    <i name="e_0_energy">    -32.33535200 </i>
   </energy>
  </scstep>
  <structure>
   <crystal>
    <varray name="basis" >
     <v>       5.50264006       0.00000000       0.00000000 </v>
     <v>       0.00000000       5.50264006       0.00000000 </v>
     <v>       0.00000000       0.00000000       5.50264006 </v>
    </varray>
    <i name="volume">    166.61470049 </i>
    <varray name="rec_basis" >
     <v>       0.18173095       0.00000000       0.00000000 </v>
     <v>       0.00000000       0.18173095       0.00000000 </v>
     <v>       0.00000000       0.00000000       0.18173095 </v>
    </varray>
   </crystal>
   <varray name="positions" >
    <v>       0.00000000       0.00000000       0.00000000 </v>
    <v>       0.50000000       0.50000000       0.00000000 </v>
    <v>       0.50000000       0.00000000       0.50000000 </v>
    <v>       0.00000000       0.50000000       0.50000000 </v>
    <v>       0.25000000       0.25000000       0.25000000 </v>
    <v>       0.75000000       0.25000000       0.75000000 </v>
    <v>       0.75000000       0.75000000       0.25000000 </v>
    <v>       0.25000000       0.75000000       0.75000000 </v>
   </varray>
  </structure>
  <varray name="forces" >
   <v>       0.00000000      -0.00000000      -0.00000000 </v>
   <v>      -0.00000000       0.00000000       0.00000000 </v>
   <v>      -0.00000000       0.00000000       0.00000000 </v>
   <v>      -0.00000000       0.00000000       0.00000000 </v>
   <v>       0.00000000      -0.00000000      -0.00000000 </v>
   <v>       0.00000000      -0.00000000       0.00000000 </v>
   <v>       0.00000000      -0.00000000      -0.00000000 </v>
   <v>       0.00000000      -0.00000000      -0.00000000 </v>
  </varray>
  <varray name="stress" >
   <v>     119.27026750      -0.00000000      -0.00000000 </v>
   <v>      -0.00000000     119.27026750      -0.00000000 </v>
   <v>       0.00000000       0.00000000     119.27026750 </v>
  </varray>
  <energy>
   <i name="e_fr_energy">    -30.77546193 </i>
   <i name="e_wo_entrp">    -30.77546193 </i>
   <i name="e_0_energy">    -30.77546193 </i>
  </energy>
  <time name="totalsc">    1.63    1.73</time>
 </calculation>
 <calculation>
  <scstep>
   <time name="dav">    0.19    0.20</time>
   <time name="total">    0.21    0.22</time>
   <energy>
    <i name="alphaZ">     78.98901159 </i>
    <i name="ewald">   -929.62562037 </i>
    <i name="hartreedc">    -77.89903928 </i>
    <i name="XCdc">   -120.34375047 </i>
    <i name="pawpsdc">   2306.43656668 </i>
    <i name="pawaedc">  -2127.93409276 </i>
    <i name="eentropy">      0.00000000 </i>
    <i name="bandstr">    -78.64755299 </i>
    <i name="atom">    916.21663293 </i>
    <i name="e_fr_energy">    -32.80784467 </i>
    <i name="e_wo_entrp">    -32.80784467 </i>
    <i name="e_0_energy">    -32.80784467 </i>
   </energy>
  </scstep>
  <scstep>
   <time name="dav">    0.18    0.19</time>
   <time name="total">    0.20    0.21</time>
   <energy>
    <i name="e_fr_energy">    -32.75770015 </i>
    <i name="e_wo_entrp">    -32.75770015 </i>
    <i name="e_0_energy">    -32.75770015 </i>
   </energy>
  </scstep>
  <scstep>
   <time name="dav">    0.19    0.20</time>
   <time name="total">    0.21    0.22</time>
   <energy>
    <i name="e_fr_energy">    -32.74063767 </i>
    <i name="e_wo_entrp">    -32.74063767 </i>
    <i name="e_0_energy">    -32.74063767 </i>
   </energy>
  </scstep>
  <scstep>
   <time name="dav">    0.18    0.19</time>
   <time name="total">    0.20    0.22</time>
   <energy>
    <i name="e_fr_energy">    -32.73998441 </i>
    <i name="e_wo_entrp">    -32.73998441 </i>
    <i name="e_0_energy">    -32.73998441 </i>
   </energy>
  </scstep>
  <scstep>
   <time name="dav">    0.19    0.20</time>
   <time name="total">    0.21    0.22</time>
   <energy>
    <i name="e_fr_energy">    -32.73955921 </i>
    <i name="e_wo_entrp">    -32.73955921 </i>
    <i name="e_0_energy">    -32.73955921 </i>
   </energy>
  </scstep>
  <scstep>
   <time name="dav">    0.13    0.14</time>
   <time name="total">    0.14    0.15</time>
   <energy>
    <i name="alphaZ">     78.98901159 </i>
    <i name="ewald">   -929.62562037 </i>
    <i name="hartreedc">    -81.64890636 </i>
    <i name="XCdc">   -120.51744615 </i>
    <i name="pawpsdc">   2154.71111443 </i>
    <i name="pawaedc">  -1976.03949090 </i>
    <i name="eentropy">      0.00000000 </i>
    <i name="bandstr">    -74.82485609 </i>
    <i name="atom">    916.21663293 </i>
    <i name="e_fr_energy">    -32.73956092 </i>
    <i name="e_wo_entrp">    -32.73956092 </i>
    <i name="e_0_energy">    -32.73956092 </i>
   </energy>
  </scstep>
  <structure>
   <crystal>
    <varray name="basis" >
     <v>       5.57460244      -0.00000000      -0.00000000 </v>
     <v>      -0.00000000       5.57460244      -0.00000000 </v>
     <v>       0.00000000       0.00000000       5.57460244 </v>
    </varray>
    <i name="volume">    173.23741797 </i>
    <varray name="rec_basis" >
     <v>       0.17938499       0.00000000      -0.00000000 </v>
     <v>       0.00000000       0.17938499      -0.00000000 </v>
     <v>       0.00000000       0.00000000       0.17938499 </v>
    </varray>
   </crystal>
   <varray name="positions" >
    <v>       0.00000000       1.00000000       1.00000000 </v>
    <v>       0.50000000       0.50000000       0.00000000 </v>
    <v>       0.50000000       0.00000000       0.50000000 </v>
    <v>       1.00000000       0.50000000       0.50000000 </v>
    <v>       0.25000000       0.25000000       0.25000000 </v>
    <v>       0.75000000       0.25000000       0.75000000 </v>
    <v>       0.75000000       0.75000000       0.25000000 </v>
    <v>       0.25000000       0.75000000       0.75000000 </v>
   </varray>
  </structure>
  <varray name="forces" >
   <v>      -0.00000000       0.00000000       0.00000000 </v>
   <v>       0.00000000      -0.00000000       0.00000000 </v>
   <v>      -0.00000000      -0.00000000       0.00000000 </v>
   <v>       0.00000000      -0.00000000       0.00000000 </v>
   <v>      -0.00000000      -0.00000000      -0.00000000 </v>
   <v>      -0.00000000       0.00000000      -0.00000000 </v>
   <v>      -0.00000000       0.00000000      -0.00000000 </v>
   <v>      -0.00000000       0.00000000      -0.00000000 </v>
  </varray>
  <varray name="stress" >
   <v>      77.95815575       0.00000000       0.00000000 </v>
   <v>       0.00000000      77.95815575       0.00000000 </v>
   <v>       0.00000000      -0.00000000      77.95815575 </v>
  </varray>
  <energy>
   <i name="e_fr_energy">    -31.11766725 </i>
   <i name="e_wo_entrp">    -31.11766725 </i>
   <i name="e_0_energy">    -31.11766725 </i>
  </energy>
  <time name="totalsc">    1.49    2.03</time>
 </calculation>
 <calculation>
  <scstep>
   <time name="dav">    0.19    0.20</time>
   <time name="total">    0.21    0.22</time>
   <energy>
    <i name="alphaZ">     74.04615053 </i>
    <i name="ewald">   -909.81554538 </i>
    <i name="hartreedc">    -79.91873989 </i>
    <i name="XCdc">   -121.04634750 </i>
    <i name="pawpsdc">   2158.43446665 </i>
    <i name="pawaedc">  -1979.75907457 </i>
    <i name="eentropy">      0.00000000 </i>
    <i name="bandstr">    -91.44068099 </i>
    <i name="atom">    916.21663293 </i>
    <i name="e_fr_energy">    -33.28313821 </i>
    <i name="e_wo_entrp">    -33.28313821 </i>
    <i name="e_0_energy">    -33.28313821 </i>
   </energy>
  </scstep>
  <scstep>
   <time name="dav">    0.18    0.19</time>
   <time name="total">    0.21    0.22</time>
   <energy>
    <i name="e_fr_energy">    -33.14280626 </i>
    <i name="e_wo_entrp">    -33.14280626 </i>
    <i name="e_0_energy">    -33.14280626 </i>
   </energy>
  </scstep>
  <scstep>
   <time name="dav">    0.18    0.20</time>
   <time name="total">    0.21    0.22</time>
   <energy>
    <i name="e_fr_energy">    -33.09651958 </i>
    <i name="e_wo_entrp">    -33.09651958 </i>
    <i name="e_0_energy">    -33.09651958 </i>
   </energy>
  </scstep>
  <scstep>
   <time name="dav">    0.19    0.20</time>
   <time name="total">    0.21    0.22</time>
   <energy>
    <i name="e_fr_energy">    -33.09436628 </i>
    <i name="e_wo_entrp">    -33.09436628 </i>
    <i name="e_0_energy">    -33.09436628 </i>
   </energy>
  </scstep>
  <scstep>
   <time name="dav">    0.19    0.20</time>
   <time name="total">    0.21    0.22</time>
   <energy>
    <i name="e_fr_energy">    -33.09331344 </i>
    <i name="e_wo_entrp">    -33.09331344 </i>
    <i name="e_0_energy">    -33.09331344 </i>
   </energy>
  </scstep>
  <scstep>
   <time name="dav">    0.15    0.16</time>
   <time name="total">    0.16    0.17</time>
   <energy>
    <i name="alphaZ">     74.04615053 </i>
    <i name="ewald">   -909.81554538 </i>
    <i name="hartreedc">    -86.24673129 </i>
    <i name="XCdc">   -121.33119070 </i>
    <i name="pawpsdc">   1935.96345527 </i>
    <i name="pawaedc">  -1757.03533727 </i>
    <i name="eentropy">      0.00000000 </i>
    <i name="bandstr">    -84.89075882 </i>
    <i name="atom">    916.21663293 </i>
    <i name="e_fr_energy">    -33.09332473 </i>
    <i name="e_wo_entrp">    -33.09332473 </i>
    <i name="e_0_energy">    -33.09332473 </i>
   </energy>
  </scstep>
  <structure>
   <crystal>
    <varray name="basis" >
     <v>       5.69598231      -0.00000000      -0.00000000 </v>
     <v>      -0.00000000       5.69598231      -0.00000000 </v>
     <v>       0.00000000       0.00000000       5.69598231 </v>
    </varray>
    <i name="volume">    184.80167190 </i>
    <varray name="rec_basis" >
     <v>       0.17556234       0.00000000      -0.00000000 </v>
     <v>       0.00000000       0.17556234      -0.00000000 </v>
     <v>       0.00000000       0.00000000       0.17556234 </v>
    </varray>
   </crystal>
   <varray name="positions" >
    <v>       0.00000000       0.00000000       0.00000000 </v>
    <v>       0.50000000       0.50000000       0.00000000 </v>
    <v>       0.50000000       0.00000000       0.50000000 </v>
    <v>       0.00000000       0.50000000       0.50000000 </v>
    <v>       0.25000000       0.25000000       0.25000000 </v>
    <v>       0.75000000       0.25000000       0.75000000 </v>
    <v>       0.75000000       0.75000000       0.25000000 </v>
    <v>       0.25000000       0.75000000       0.75000000 </v>
   </varray>
  </structure>
  <varray name="forces" >
   <v>      -0.00000000      -0.00000000       0.00000000 </v>
   <v>       0.00000000      -0.00000000       0.00000000 </v>
   <v>      -0.00000000      -0.00000000       0.00000000 </v>
   <v>       0.00000000       0.00000000      -0.00000000 </v>
   <v>       0.00000000       0.00000000      -0.00000000 </v>
   <v>      -0.00000000      -0.00000000      -0.00000000 </v>
   <v>      -0.00000000       0.00000000      -0.00000000 </v>
   <v>      -0.00000000       0.00000000      -0.00000000 </v>
  </varray>
  <varray name="stress" >
   <v>      23.23415011      -0.00000000      -0.00000000 </v>
   <v>      -0.00000000      23.23415011       0.00000000 </v>
   <v>      -0.00000000      -0.00000000      23.23415011 </v>
  </varray>
  <energy>
   <i name="e_fr_energy">    -31.36316351 </i>
   <i name="e_wo_entrp">    -31.36316351 </i>
   <i name="e_0_energy">    -31.36316351 </i>
  </energy>
  <time name="totalsc">    1.52    1.60</time>
 </calculation>
 <calculation>
  <scstep>
   <time name="dav">    0.18    0.19</time>
   <time name="total">    0.20    0.22</time>
   <energy>
    <i name="alphaZ">     73.28390152 </i>
    <i name="ewald">   -906.68281711 </i>
    <i name="hartreedc">    -85.97096023 </i>
    <i name="XCdc">   -121.41587143 </i>
    <i name="pawpsdc">   1941.57437840 </i>
    <i name="pawaedc">  -1762.64072087 </i>
    <i name="eentropy">      0.00000000 </i>
    <i name="bandstr">    -87.48615680 </i>
    <i name="atom">    916.21663293 </i>
    <i name="e_fr_energy">    -33.12161359 </i>
    <i name="e_wo_entrp">    -33.12161359 </i>
    <i name="e_0_energy">    -33.12161359 </i>
   </energy>
  </scstep>
  <scstep>
   <time name="dav">    0.18    0.20</time>
   <time name="total">    0.21    0.22</time>
   <energy>
    <i name="e_fr_energy">    -33.11801121 </i>
    <i name="e_wo_entrp">    -33.11801121 </i>
    <i name="e_0_energy">    -33.11801121 </i>
   </energy>
  </scstep>
  <scstep>
   <time name="dav">    0.18    0.19</time>
   <time name="total">    0.21    0.22</time>
   <energy>
    <i name="e_fr_energy">    -33.11680611 </i>
    <i name="e_wo_entrp">    -33.11680611 </i>
    <i name="e_0_energy">    -33.11680611 </i>
   </energy>
  </scstep>
  <scstep>
   <time name="dav">    0.14    0.15</time>
   <time name="total">    0.15    0.16</time>
   <energy>
    <i name="alphaZ">     73.28390152 </i>
    <i name="ewald">   -906.68281711 </i>
    <i name="hartreedc">    -86.96051188 </i>
    <i name="XCdc">   -121.45393041 </i>
    <i name="pawpsdc">   1909.49431411 </i>
    <i name="pawaedc">  -1730.53087466 </i>
    <i name="eentropy">      0.00000000 </i>
    <i name="bandstr">    -86.48346371 </i>
    <i name="atom">    916.21663293 </i>
    <i name="e_fr_energy">    -33.11674921 </i>
    <i name="e_wo_entrp">    -33.11674921 </i>
    <i name="e_0_energy">    -33.11674921 </i>
   </energy>
  </scstep>
  <structure>
   <crystal>
    <varray name="basis" >
     <v>       5.71566280      -0.00000000      -0.00000000 </v>
     <v>      -0.00000000       5.71566280      -0.00000000 </v>
     <v>       0.00000000       0.00000000       5.71566280 </v>
    </varray>
    <i name="volume">    186.72385246 </i>
    <varray name="rec_basis" >
     <v>       0.17495784       0.00000000      -0.00000000 </v>
     <v>       0.00000000       0.17495784      -0.00000000 </v>
     <v>       0.00000000       0.00000000       0.17495784 </v>
    </varray>
   </crystal>
   <varray name="positions" >
    <v>       0.00000000       1.00000000       1.00000000 </v>
    <v>       0.50000000       0.50000000       0.00000000 </v>
    <v>       0.50000000       0.00000000       0.50000000 </v>
    <v>       1.00000000       0.50000000       0.50000000 </v>
    <v>       0.25000000       0.25000000       0.25000000 </v>
    <v>       0.75000000       0.25000000       0.75000000 </v>
    <v>       0.75000000       0.75000000       0.25000000 </v>
    <v>       0.25000000       0.75000000       0.75000000 </v>
   </varray>
  </structure>
  <varray name="forces" >
   <v>       0.00000000      -0.00000000      -0.00000000 </v>
   <v>      -0.00000000      -0.00000000      -0.00000000 </v>
   <v>       0.00000000      -0.00000000      -0.00000000 </v>
   <v>      -0.00000000      -0.00000000      -0.00000000 </v>
   <v>       0.00000000       0.00000000       0.00000000 </v>
   <v>      -0.00000000       0.00000000       0.00000000 </v>
   <v>      -0.00000000       0.00000000       0.00000000 </v>
   <v>      -0.00000000       0.00000000       0.00000000 </v>
  </varray>
  <varray name="stress" >
   <v>      16.16554494       0.00000000      -0.00000000 </v>
   <v>       0.00000000      16.16554494       0.00000000 </v>
   <v>       0.00000000       0.00000000      16.16554494 </v>
  </varray>
  <energy>
   <i name="e_fr_energy">    -31.36859204 </i>
   <i name="e_wo_entrp">    -31.36859204 </i>
   <i name="e_0_energy">    -31.36859204 </i>
  </energy>
  <time name="totalsc">    1.09    1.16</time>
  <eigenvalues>
   <array>
    <dimension dim="1">band</dimension>
    <dimension dim="2">kpoint</dimension>
    <dimension dim="3">spin</dimension>
    <field>eigene</field>
    <field>occ</field>
    <set>
     <set comment="spin 1">
      <set comment="kpoint 1">
       <r>   -9.9936    1.0000 </r>
       <r>   -7.7602    1.0000 </r>
       <r>   -7.7602    1.0000 </r>
       <r>   -7.7602    1.0000 </r>
       <r>   -4.1564    1.0000 </r>
       <r>   -4.1564    1.0000 </r>
       <r>   -4.1564    1.0000 </r>
       <r>   -0.0699    1.0000 </r>
       <r>   -0.0699    1.0000 </r>
       <r>   -0.0699    1.0000 </r>
       <r>   -0.0699    1.0000 </r>
       <r>   -0.0699    1.0000 </r>
       <r>   -0.0699    1.0000 </r>
       <r>    2.4808    1.0000 </r>
       <r>    2.4808    1.0000 </r>
       <r>    2.4808    1.0000 </r>
       <r>    2.8108    0.0000 </r>
       <r>    4.0128    0.0000 </r>
       <r>    4.0128    0.0000 </r>
       <r>    4.0128    0.0000 </r>
       <r>    4.1727    0.0000 </r>
       <r>    4.1727    0.0000 </r>
       <r>    4.1727    0.0000 </r>
       <r>    6.2345    0.0000 </r>
      </set>
      <set comment="kpoint 2">
       <r>   -9.8552    1.0000 </r>
       <r>   -8.1311    1.0000 </r>
       <r>   -7.7471    1.0000 </r>
       <r>   -7.7471    1.0000 </r>
       <r>   -4.0974    1.0000 </r>
       <r>   -4.0974    1.0000 </r>
       <r>   -3.5953    1.0000 </r>
       <r>   -0.3926    1.0000 </r>
       <r>   -0.3926    1.0000 </r>
       <r>   -0.3180    1.0000 </r>
       <r>   -0.3180    1.0000 </r>
       <r>    0.0873    1.0000 </r>
       <r>    0.0873    1.0000 </r>
       <r>    0.8848    1.0000 </r>
       <r>    2.0505    1.0000 </r>
       <r>    2.0505    1.0000 </r>
       <r>    3.9650    0.0000 </r>
       <r>    4.3475    0.0000 </r>
       <r>    4.6189    0.0000 </r>
       <r>    4.7198    0.0000 </r>
       <r>    4.7198    0.0000 </r>
       <r>    4.8870    0.0000 </r>
       <r>    4.8870    0.0000 </r>
       <r>    5.7733    0.0000 </r>
      </set>
      <set comment="kpoint 3">
       <r>   -9.4519    1.0000 </r>
       <r>   -8.8305    1.0000 </r>
       <r>   -7.7254    1.0000 </r>
       <r>   -7.7254    1.0000 </r>
       <r>   -3.9912    1.0000 </r>
       <r>   -3.9912    1.0000 </r>
       <r>   -2.3333    1.0000 </r>
       <r>   -0.8362    1.0000 </r>
       <r>   -0.8362    1.0000 </r>
       <r>   -0.7906    1.0000 </r>
       <r>   -0.6446    1.0000 </r>
       <r>   -0.6446    1.0000 </r>
       <r>    0.5451    1.0000 </r>
       <r>    0.5451    1.0000 </r>
       <r>    1.2510    1.0000 </r>
       <r>    1.2510    1.0000 </r>
       <r>    4.2408    0.0000 </r>
       <r>    4.8152    0.0000 </r>
       <r>    5.3945    0.0000 </r>
       <r>    5.6781    0.0000 </r>
       <r>    6.3984    0.0000 </r>
       <r>    6.3984    0.0000 </r>
       <r>    6.4582    0.0000 </r>
       <r>    6.4582    0.0000 </r>
      </set>
      <set comment="kpoint 4">
       <r>   -9.7206    1.0000 </r>
       <r>   -8.0819    1.0000 </r>
       <r>   -8.0819    1.0000 </r>
       <r>   -7.7676    1.0000 </r>
       <r>   -4.0373    1.0000 </r>
       <r>   -3.6286    1.0000 </r>
       <r>   -3.6286    1.0000 </r>
       <r>   -1.0025    1.0000 </r>
       <r>   -0.3160    1.0000 </r>
       <r>   -0.3160    1.0000 </r>
       <r>   -0.0184    1.0000 </r>
       <r>   -0.0136    1.0000 </r>
       <r>   -0.0136    1.0000 </r>
       <r>    0.1900    1.0000 </r>
       <r>    1.5899    1.0000 </r>
       <r>    2.3181    1.0000 </r>
       <r>    4.3423    0.0000 </r>
       <r>    4.4289    0.0000 </r>
       <r>    4.7305    0.0000 </r>
       <r>    4.7305    0.0000 </r>
       <r>    5.2306    0.0000 </r>
       <r>    5.2306    0.0000 </r>
       <r>    6.2166    0.0000 </r>
       <r>    6.3799    0.0000 </r>
      </set>
      <set comment="kpoint 5">
       <r>   -9.3302    1.0000 </r>
       <r>   -8.7354    1.0000 </r>
       <r>   -7.9625    1.0000 </r>
       <r>   -7.8402    1.0000 </r>
       <r>   -3.8927    1.0000 </r>
       <r>   -3.7354    1.0000 </r>
       <r>   -2.5794    1.0000 </r>
       <r>   -1.3266    1.0000 </r>
       <r>   -1.2405    1.0000 </r>
       <r>   -0.9478    1.0000 </r>
       <r>   -0.0488    1.0000 </r>
       <r>    0.0827    1.0000 </r>
       <r>    0.1471    1.0000 </r>
       <r>    0.6858    1.0000 </r>
       <r>    0.7698    1.0000 </r>
       <r>    1.6244    1.0000 </r>
       <r>    5.0164    0.0000 </r>
       <r>    5.2270    0.0000 </r>
       <r>    5.2661    0.0000 </r>
       <r>    5.7862    0.0000 </r>
       <r>    5.8274    0.0000 </r>
       <r>    6.3111    0.0000 </r>
       <r>    6.6376    0.0000 </r>
       <r>    7.6173    0.0000 </r>
      </set>
      <set comment="kpoint 6">
       <r>   -8.9831    1.0000 </r>
       <r>   -8.4761    1.0000 </r>
       <r>   -8.4761    1.0000 </r>
       <r>   -8.1335    1.0000 </r>
       <r>   -3.5874    1.0000 </r>
       <r>   -3.1002    1.0000 </r>
       <r>   -3.1002    1.0000 </r>
       <r>   -2.2502    1.0000 </r>
       <r>   -1.1914    1.0000 </r>
       <r>   -0.6795    1.0000 </r>
       <r>   -0.6795    1.0000 </r>
       <r>   -0.0486    1.0000 </r>
       <r>    0.8875    1.0000 </r>
       <r>    0.9490    1.0000 </r>
       <r>    0.9490    1.0000 </r>
       <r>    1.7395    1.0000 </r>
       <r>    4.9497    0.0000 </r>
       <r>    5.1282    0.0000 </r>
       <r>    5.6896    0.0000 </r>
       <r>    5.6896    0.0000 </r>
       <r>    6.9001    0.0000 </r>
       <r>    6.9001    0.0000 </r>
       <r>    7.3687    0.0000 </r>
       <r>    7.4204    0.0000 </r>
      </set>
      <set comment="kpoint 7">
       <r>   -9.5907    1.0000 </r>
       <r>   -8.0590    1.0000 </r>
       <r>   -8.0590    1.0000 </r>
       <r>   -8.0590    1.0000 </r>
       <r>   -3.6915    1.0000 </r>
       <r>   -3.6915    1.0000 </r>
       <r>   -3.6915    1.0000 </r>
       <r>   -0.7807    1.0000 </r>
       <r>   -0.6966    1.0000 </r>
       <r>   -0.6966    1.0000 </r>
       <r>   -0.6966    1.0000 </r>
       <r>    0.3335    1.0000 </r>
       <r>    0.3335    1.0000 </r>
       <r>    0.3335    1.0000 </r>
       <r>    2.0059    1.0000 </r>
       <r>    2.0059    1.0000 </r>
       <r>    3.9840    0.0000 </r>
       <r>    4.5041    0.0000 </r>
       <r>    4.5041    0.0000 </r>
       <r>    4.5041    0.0000 </r>
       <r>    6.3658    0.0000 </r>
       <r>    6.3658    0.0000 </r>
       <r>    6.3658    0.0000 </r>
       <r>    6.9050    0.0000 </r>
      </set>
      <set comment="kpoint 8">
       <r>   -9.2163    1.0000 </r>
       <r>   -8.6550    1.0000 </r>
       <r>   -8.0207    1.0000 </r>
       <r>   -8.0207    1.0000 </r>
       <r>   -3.8024    1.0000 </r>
       <r>   -3.8024    1.0000 </r>
       <r>   -2.8988    1.0000 </r>
       <r>   -1.8986    1.0000 </r>
       <r>   -0.8877    1.0000 </r>
       <r>   -0.8877    1.0000 </r>
       <r>    0.1511    1.0000 </r>
       <r>    0.3668    1.0000 </r>
       <r>    0.3668    1.0000 </r>
       <r>    0.7458    1.0000 </r>
       <r>    1.2993    1.0000 </r>
       <r>    1.3600    1.0000 </r>
       <r>    4.6008    0.0000 </r>
       <r>    4.8599    0.0000 </r>
       <r>    5.3449    0.0000 </r>
       <r>    5.3449    0.0000 </r>
       <r>    6.4544    0.0000 </r>
       <r>    6.5268    0.0000 </r>
       <r>    7.2103    0.0000 </r>
       <r>    7.2103    0.0000 </r>
      </set>
      <set comment="kpoint 9">
       <r>   -8.8960    1.0000 </r>
       <r>   -8.4453    1.0000 </r>
       <r>   -8.4453    1.0000 </r>
       <r>   -8.1975    1.0000 </r>
       <r>   -3.7789    1.0000 </r>
       <r>   -3.4442    1.0000 </r>
       <r>   -3.4442    1.0000 </r>
       <r>   -2.7735    1.0000 </r>
       <r>   -0.5900    1.0000 </r>
       <r>   -0.1355    1.0000 </r>
       <r>   -0.1355    1.0000 </r>
       <r>    0.6522    1.0000 </r>
       <r>    0.9737    1.0000 </r>
       <r>    1.0134    1.0000 </r>
       <r>    1.0134    1.0000 </r>
       <r>    1.6706    1.0000 </r>
       <r>    4.3859    0.0000 </r>
       <r>    4.8956    0.0000 </r>
       <r>    5.0923    0.0000 </r>
       <r>    5.0923    0.0000 </r>
       <r>    6.7082    0.0000 </r>
       <r>    6.7082    0.0000 </r>
       <r>    7.2144    0.0000 </r>
       <r>    7.2369    0.0000 </r>
      </set>
      <set comment="kpoint 10">
       <r>   -8.6670    1.0000 </r>
       <r>   -8.3933    1.0000 </r>
       <r>   -8.3933    1.0000 </r>
       <r>   -8.3933    1.0000 </r>
       <r>   -3.8584    1.0000 </r>
       <r>   -3.8584    1.0000 </r>
       <r>   -3.8584    1.0000 </r>
       <r>   -3.4912    1.0000 </r>
       <r>    0.6371    1.0000 </r>
       <r>    0.6371    1.0000 </r>
       <r>    0.6371    1.0000 </r>
       <r>    1.1994    1.0000 </r>
       <r>    1.1994    1.0000 </r>
       <r>    1.1994    1.0000 </r>
       <r>    1.4703    1.0000 </r>
       <r>    1.4703    1.0000 </r>
       <r>    3.5063    0.0000 </r>
       <r>    4.2331    0.0000 </r>
       <r>    4.2331    0.0000 </r>
       <r>    4.2331    0.0000 </r>
       <r>    6.8734    0.0000 </r>
       <r>    6.8734    0.0000 </r>
       <r>    6.8734    0.0000 </r>
       <r>    7.1621    0.0000 </r>
      </set>
     </set>
    </set>
   </array>
  </eigenvalues>
  <separator name="orbital magnetization" >
   <v name="MAGDIPOLOUT">      0.00000000      0.00000000      0.00000000</v>
  </separator>
  <dos>
   <i name="efermi">      2.53994628 </i>
   <total>
    <array>
     <dimension dim="1">gridpoints</dimension>
     <dimension dim="2">spin</dimension>
     <field>energy</field>
     <field>total</field>
     <field>integrated</field>
     <set>
      <set comment="spin 1">
       <r>   -10.9936     0.0000     0.0000 </r>
       <r>   -10.9282     0.0000     0.0000 </r>
       <r>   -10.8628     0.0000     0.0000 </r>
       <r>   -10.7975     0.0000     0.0000 </r>
       <r>   -10.7321     0.0000     0.0000 </r>
       <r>   -10.6667     0.0000     0.0000 </r>
       <r>   -10.6014     0.0000     0.0000 </r>
       <r>   -10.5360     0.0000     0.0000 </r>
       <r>   -10.4706     0.0000     0.0000 </r>
       <r>   -10.4053     0.0000     0.0000 </r>
       <r>   -10.3399     0.0000     0.0000 </r>
       <r>   -10.2745     0.0000     0.0000 </r>
       <r>   -10.2091     0.0000     0.0000 </r>
       <r>   -10.1438     0.0000     0.0000 </r>
       <r>   -10.0784     0.0000     0.0000 </r>
       <r>   -10.0130     0.0000     0.0000 </r>
       <r>    -9.9477     0.0520     0.0008 </r>
       <r>    -9.8823     0.3056     0.0113 </r>
       <r>    -9.8169     0.7081     0.0446 </r>
       <r>    -9.7516     0.9390     0.0996 </r>
       <r>    -9.6862     0.9873     0.1630 </r>
       <r>    -9.6208     1.0822     0.2302 </r>
       <r>    -9.5555     1.2543     0.3063 </r>
       <r>    -9.4901     1.4476     0.3945 </r>
       <r>    -9.4247     1.9867     0.5005 </r>
       <r>    -9.3593     2.7981     0.6584 </r>
       <r>    -9.2940     2.8098     0.8514 </r>
       <r>    -9.2286     2.3367     1.0189 </r>
       <r>    -9.1632     2.2567     1.1672 </r>
       <r>    -9.0979     2.2205     1.3137 </r>
       <r>    -9.0325     2.1493     1.4567 </r>
       <r>    -8.9671     2.9349     1.6099 </r>
       <r>    -8.9018     2.0414     1.7718 </r>
       <r>    -8.8364     1.1072     1.8581 </r>
       <r>    -8.7710     2.2497     1.9622 </r>
       <r>    -8.7057     3.4556     2.1569 </r>
       <r>    -8.6403     3.6716     2.3982 </r>
       <r>    -8.5749     4.0281     2.6425 </r>
       <r>    -8.5095     4.5050     2.9221 </r>
       <r>    -8.4442    14.0068     3.4152 </r>
       <r>    -8.3788     4.7132     3.9825 </r>
       <r>    -8.3134     4.3019     4.2527 </r>
       <r>    -8.2481     4.7050     4.5466 </r>
       <r>    -8.1827     6.5360     4.8873 </r>
       <r>    -8.1173     7.7460     5.3629 </r>
       <r>    -8.0520     8.7490     5.9010 </r>
       <r>    -7.9866     8.9412     6.5148 </r>
       <r>    -7.9212     6.4798     6.9971 </r>
       <r>    -7.8558     5.8323     7.3993 </r>
       <r>    -7.7905     4.9383     7.7601 </r>
       <r>    -7.7251     0.9790     8.0000 </r>
       <r>    -7.6597     0.0000     8.0000 </r>
       <r>    -7.5944     0.0000     8.0000 </r>
       <r>    -7.5290     0.0000     8.0000 </r>
       <r>    -7.4636     0.0000     8.0000 </r>
       <r>    -7.3983     0.0000     8.0000 </r>
       <r>    -7.3329     0.0000     8.0000 </r>
       <r>    -7.2675     0.0000     8.0000 </r>
       <r>    -7.2022     0.0000     8.0000 </r>
       <r>    -7.1368     0.0000     8.0000 </r>
       <r>    -7.0714     0.0000     8.0000 </r>
       <r>    -7.0060     0.0000     8.0000 </r>
       <r>    -6.9407     0.0000     8.0000 </r>
       <r>    -6.8753     0.0000     8.0000 </r>
       <r>    -6.8099     0.0000     8.0000 </r>
       <r>    -6.7446     0.0000     8.0000 </r>
       <r>    -6.6792     0.0000     8.0000 </r>
       <r>    -6.6138     0.0000     8.0000 </r>
       <r>    -6.5485     0.0000     8.0000 </r>
       <r>    -6.4831     0.0000     8.0000 </r>
       <r>    -6.4177     0.0000     8.0000 </r>
       <r>    -6.3523     0.0000     8.0000 </r>
       <r>    -6.2870     0.0000     8.0000 </r>
       <r>    -6.2216     0.0000     8.0000 </r>
       <r>    -6.1562     0.0000     8.0000 </r>
       <r>    -6.0909     0.0000     8.0000 </r>
       <r>    -6.0255     0.0000     8.0000 </r>
       <r>    -5.9601     0.0000     8.0000 </r>
       <r>    -5.8948     0.0000     8.0000 </r>
       <r>    -5.8294     0.0000     8.0000 </r>
       <r>    -5.7640     0.0000     8.0000 </r>
       <r>    -5.6987     0.0000     8.0000 </r>
       <r>    -5.6333     0.0000     8.0000 </r>
       <r>    -5.5679     0.0000     8.0000 </r>
       <r>    -5.5025     0.0000     8.0000 </r>
       <r>    -5.4372     0.0000     8.0000 </r>
       <r>    -5.3718     0.0000     8.0000 </r>
       <r>    -5.3064     0.0000     8.0000 </r>
       <r>    -5.2411     0.0000     8.0000 </r>
       <r>    -5.1757     0.0000     8.0000 </r>
       <r>    -5.1103     0.0000     8.0000 </r>
       <r>    -5.0450     0.0000     8.0000 </r>
       <r>    -4.9796     0.0000     8.0000 </r>
       <r>    -4.9142     0.0000     8.0000 </r>
       <r>    -4.8488     0.0000     8.0000 </r>
       <r>    -4.7835     0.0000     8.0000 </r>
       <r>    -4.7181     0.0000     8.0000 </r>
       <r>    -4.6527     0.0000     8.0000 </r>
       <r>    -4.5874     0.0000     8.0000 </r>
       <r>    -4.5220     0.0000     8.0000 </r>
       <r>    -4.4566     0.0000     8.0000 </r>
       <r>    -4.3913     0.0000     8.0000 </r>
       <r>    -4.3259     0.0000     8.0000 </r>
       <r>    -4.2605     0.0000     8.0000 </r>
       <r>    -4.1952     0.0000     8.0000 </r>
       <r>    -4.1298     0.2275     8.0020 </r>
       <r>    -4.0644     1.7922     8.0719 </r>
       <r>    -3.9990     2.5593     8.2060 </r>
       <r>    -3.9337     5.1030     8.4535 </r>
       <r>    -3.8683     7.0061     8.8590 </r>
       <r>    -3.8029    16.3508     9.6401 </r>
       <r>    -3.7376    13.5945    10.5646 </r>
       <r>    -3.6722     7.4840    11.1580 </r>
       <r>    -3.6068     6.1697    11.5931 </r>
       <r>    -3.5415     3.7003    11.8639 </r>
       <r>    -3.4761     3.8795    12.1171 </r>
       <r>    -3.4107     3.0531    12.3346 </r>
       <r>    -3.3454     2.9809    12.5318 </r>
       <r>    -3.2800     2.9147    12.7244 </r>
       <r>    -3.2146     2.8546    12.9130 </r>
       <r>    -3.1492     2.8006    13.0978 </r>
       <r>    -3.0839     2.1955    13.2701 </r>
       <r>    -3.0185     2.1479    13.4121 </r>
       <r>    -2.9531     2.0908    13.5507 </r>
       <r>    -2.8878     2.0196    13.6853 </r>
       <r>    -2.8224     1.9130    13.8139 </r>
       <r>    -2.7570     1.8199    13.9355 </r>
       <r>    -2.6917     1.6949    14.0504 </r>
       <r>    -2.6263     1.5566    14.1568 </r>
       <r>    -2.5609     1.4749    14.2551 </r>
       <r>    -2.4955     1.2665    14.3446 </r>
       <r>    -2.4302     1.0844    14.4213 </r>
       <r>    -2.3648     0.9286    14.4869 </r>
       <r>    -2.2994     0.8963    14.5449 </r>
       <r>    -2.2341     0.7653    14.6026 </r>
       <r>    -2.1687     0.7754    14.6530 </r>
       <r>    -2.1033     0.7837    14.7039 </r>
       <r>    -2.0380     0.7902    14.7554 </r>
       <r>    -1.9726     0.7949    14.8072 </r>
       <r>    -1.9072     0.7978    14.8593 </r>
       <r>    -1.8419     0.8083    14.9117 </r>
       <r>    -1.7765     0.8234    14.9650 </r>
       <r>    -1.7111     0.8421    15.0194 </r>
       <r>    -1.6457     0.8644    15.0752 </r>
       <r>    -1.5804     0.8903    15.1325 </r>
       <r>    -1.5150     0.9197    15.1917 </r>
       <r>    -1.4496     0.9528    15.2529 </r>
       <r>    -1.3843     0.9894    15.3163 </r>
       <r>    -1.3189     1.0487    15.3825 </r>
       <r>    -1.2535     1.0197    15.4500 </r>
       <r>    -1.1882     2.9447    15.5803 </r>
       <r>    -1.1228     3.1143    15.7782 </r>
       <r>    -1.0574     3.3064    15.9880 </r>
       <r>    -0.9920     3.5029    16.2109 </r>
       <r>    -0.9267     6.4852    16.4971 </r>
       <r>    -0.8613     7.3735    16.9782 </r>
       <r>    -0.7959     5.8937    17.4107 </r>
       <r>    -0.7306     5.2660    17.7728 </r>
       <r>    -0.6652     5.1521    18.1053 </r>
       <r>    -0.5998     4.9436    18.4347 </r>
       <r>    -0.5345     4.5799    18.7377 </r>
       <r>    -0.4691     4.5954    19.0375 </r>
       <r>    -0.4037     4.6400    19.3392 </r>
       <r>    -0.3384     5.2592    19.6743 </r>
       <r>    -0.2730     5.0971    20.0145 </r>
       <r>    -0.2076     4.6886    20.3183 </r>
       <r>    -0.1422     4.7786    20.6277 </r>
       <r>    -0.0769     5.5688    20.9738 </r>
       <r>    -0.0115     7.0564    21.3880 </r>
       <r>     0.0539     9.4943    21.9695 </r>
       <r>     0.1192     7.2387    22.5085 </r>
       <r>     0.1846     6.9077    22.9693 </r>
       <r>     0.2500     6.5843    23.4090 </r>
       <r>     0.3153     6.3574    23.8317 </r>
       <r>     0.3807     5.7805    24.2329 </r>
       <r>     0.4461     5.2777    24.5937 </r>
       <r>     0.5114     4.8907    24.9254 </r>
       <r>     0.5768     5.0663    25.2429 </r>
       <r>     0.6422     6.0691    25.6404 </r>
       <r>     0.7076     6.0907    26.0153 </r>
       <r>     0.7729     5.3923    26.3703 </r>
       <r>     0.8383     5.7375    26.7333 </r>
       <r>     0.9037     7.2274    27.1406 </r>
       <r>     0.9690     9.6452    27.6695 </r>
       <r>     1.0344     6.1446    28.1838 </r>
       <r>     1.0998     5.3349    28.5591 </r>
       <r>     1.1651     4.4995    28.8807 </r>
       <r>     1.2305     3.5158    29.1642 </r>
       <r>     1.2959     2.2571    29.3307 </r>
       <r>     1.3613     2.3627    29.4796 </r>
       <r>     1.4266     3.4479    29.6691 </r>
       <r>     1.4920     5.2703    29.9687 </r>
       <r>     1.5574     5.5627    30.3078 </r>
       <r>     1.6227     6.1778    30.6922 </r>
       <r>     1.6881     5.4957    31.0751 </r>
       <r>     1.7535     1.9740    31.3319 </r>
       <r>     1.8188     1.7331    31.4531 </r>
       <r>     1.8842     1.4958    31.5586 </r>
       <r>     1.9496     1.2620    31.6487 </r>
       <r>     2.0149     1.0342    31.7237 </r>
       <r>     2.0803     1.0485    31.7892 </r>
       <r>     2.1457     1.0800    31.8598 </r>
       <r>     2.2111     0.9088    31.9259 </r>
       <r>     2.2764     0.5350    31.9742 </r>
       <r>     2.3418     0.1393    31.9935 </r>
       <r>     2.4072     0.0391    31.9990 </r>
       <r>     2.4725     0.0005    32.0000 </r>
       <r>     2.5379     0.0000    32.0000 </r>
       <r>     2.6033     0.0000    32.0000 </r>
       <r>     2.6686     0.0000    32.0000 </r>
       <r>     2.7340     0.0000    32.0000 </r>
       <r>     2.7994     0.0000    32.0000 </r>
       <r>     2.8648     0.0003    32.0000 </r>
       <r>     2.9301     0.0013    32.0001 </r>
       <r>     2.9955     0.0032    32.0002 </r>
       <r>     3.0609     0.0058    32.0005 </r>
       <r>     3.1262     0.0093    32.0010 </r>
       <r>     3.1916     0.0135    32.0017 </r>
       <r>     3.2570     0.0186    32.0028 </r>
       <r>     3.3223     0.0244    32.0042 </r>
       <r>     3.3877     0.0311    32.0060 </r>
       <r>     3.4531     0.0385    32.0082 </r>
       <r>     3.5184     0.4046    32.0284 </r>
       <r>     3.5838     0.1919    32.0398 </r>
       <r>     3.6492     0.2275    32.0535 </r>
       <r>     3.7146     0.2667    32.0697 </r>
       <r>     3.7799     0.3094    32.0885 </r>
       <r>     3.8453     0.3557    32.1102 </r>
       <r>     3.9107     0.4055    32.1351 </r>
       <r>     3.9760     0.4802    32.1634 </r>
       <r>     4.0414     0.8011    32.2053 </r>
       <r>     4.1068     1.1057    32.2677 </r>
       <r>     4.1721     1.3940    32.3495 </r>
       <r>     4.2375     2.7779    32.4993 </r>
       <r>     4.3029     2.4722    32.6466 </r>
       <r>     4.3682     3.3381    32.8278 </r>
       <r>     4.4336     4.4629    33.0973 </r>
       <r>     4.4990     4.6246    33.3916 </r>
       <r>     4.5644     5.1426    33.7099 </r>
       <r>     4.6297     5.9905    34.0687 </r>
       <r>     4.6951     6.8437    34.4951 </r>
       <r>     4.7605     6.9324    34.9577 </r>
       <r>     4.8258     6.9092    35.3910 </r>
       <r>     4.8912    11.1289    35.9478 </r>
       <r>     4.9566     8.0547    36.5049 </r>
       <r>     5.0219     6.6263    36.9933 </r>
       <r>     5.0873     6.5879    37.4254 </r>
       <r>     5.1527     6.9195    37.8940 </r>
       <r>     5.2181     6.2903    38.3273 </r>
       <r>     5.2834     7.6922    38.7469 </r>
       <r>     5.3488     5.9773    39.2011 </r>
       <r>     5.4142     3.9867    39.5088 </r>
       <r>     5.4795     3.7680    39.7621 </r>
       <r>     5.5449     3.5782    40.0020 </r>
       <r>     5.6103     3.4173    40.2305 </r>
       <r>     5.6756     3.2853    40.4494 </r>
       <r>     5.7410     2.7048    40.6417 </r>
       <r>     5.8064     1.3397    40.7833 </r>
       <r>     5.8717     1.8380    40.8911 </r>
       <r>     5.9371     2.0034    41.0167 </r>
       <r>     6.0025     2.1667    41.1530 </r>
       <r>     6.0679     2.3279    41.2999 </r>
       <r>     6.1332     2.4870    41.4573 </r>
       <r>     6.1986     2.6441    41.6250 </r>
       <r>     6.2640     2.8907    41.8051 </r>
       <r>     6.3293     4.7338    42.0318 </r>
       <r>     6.3947     5.4065    42.3648 </r>
       <r>     6.4601     4.9893    42.7021 </r>
       <r>     6.5254     5.3425    43.0399 </r>
       <r>     6.5908     6.1986    43.4184 </r>
       <r>     6.6562     6.3519    43.8364 </r>
       <r>     6.7216     8.4757    44.2873 </r>
       <r>     6.7869     6.5415    44.7764 </r>
       <r>     6.8523     4.9223    45.1494 </r>
       <r>     6.9177     3.2709    45.4342 </r>
       <r>     6.9830     2.8751    45.6107 </r>
       <r>     7.0484     3.2868    45.8117 </r>
       <r>     7.1138     3.7719    46.0420 </r>
       <r>     7.1791     7.1312    46.3548 </r>
       <r>     7.2445     7.9625    47.0566 </r>
       <r>     7.3099     4.4251    47.3811 </r>
       <r>     7.3752     2.8571    47.6328 </r>
       <r>     7.4406     1.9574    47.7991 </r>
       <r>     7.5060     1.3498    47.9072 </r>
       <r>     7.5714     0.7436    47.9756 </r>
       <r>     7.6367     0.0000    48.0000 </r>
       <r>     7.7021     0.0000    48.0000 </r>
       <r>     7.7675     0.0000    48.0000 </r>
       <r>     7.8328     0.0000    48.0000 </r>
       <r>     7.8982     0.0000    48.0000 </r>
       <r>     7.9636     0.0000    48.0000 </r>
       <r>     8.0289     0.0000    48.0000 </r>
       <r>     8.0943     0.0000    48.0000 </r>
       <r>     8.1597     0.0000    48.0000 </r>
       <r>     8.2250     0.0000    48.0000 </r>
       <r>     8.2904     0.0000    48.0000 </r>
       <r>     8.3558     0.0000    48.0000 </r>
       <r>     8.4212     0.0000    48.0000 </r>
       <r>     8.4865     0.0000    48.0000 </r>
       <r>     8.5519     0.0000    48.0000 </r>
       <r>     8.6173     0.0000    48.0000 </r>
      </set>
     </set>
    </array>
   </total>
  </dos>
 </calculation>
 <structure name="finalpos" >
  <crystal>
   <varray name="basis" >
    <v>       5.71566280      -0.00000000      -0.00000000 </v>
    <v>      -0.00000000       5.71566280      -0.00000000 </v>
    <v>       0.00000000       0.00000000       5.71566280 </v>
   </varray>
   <i name="volume">    186.72385246 </i>
   <varray name="rec_basis" >
    <v>       0.17495784       0.00000000      -0.00000000 </v>
    <v>       0.00000000       0.17495784      -0.00000000 </v>
    <v>       0.00000000       0.00000000       0.17495784 </v>
   </varray>
  </crystal>
  <varray name="positions" >
   <v>       0.00000000       1.00000000       1.00000000 </v>
   <v>       0.50000000       0.50000000       0.00000000 </v>
   <v>       0.50000000       0.00000000       0.50000000 </v>
   <v>       1.00000000       0.50000000       0.50000000 </v>
   <v>       0.25000000       0.25000000       0.25000000 </v>
   <v>       0.75000000       0.25000000       0.75000000 </v>
   <v>       0.75000000       0.75000000       0.25000000 </v>
   <v>       0.25000000       0.75000000       0.75000000 </v>
  </varray>
 </structure>
</modeling>
