GaAs                                    
   4.50000000000000     
     1.198797    0.000000    0.000000
     0.000000    1.198797    0.000000
     0.000000    0.000000    1.198797
   As   Ga
     4     4
Direct
  0.000000  0.000000  0.000000
  0.500000  0.500000  0.000000
  0.500000  0.000000  0.500000
  0.000000  0.500000  0.500000
  0.250000  0.250000  0.250000
  0.750000  0.250000  0.750000
  0.750000  0.750000  0.250000
  0.250000  0.750000  0.750000
 
   60   60   60
 -61.748     -54.580     -34.590     -5.8925      25.928      55.282      77.867      91.397      95.644      91.989    
  82.789      70.779      58.582      47.855      38.739      31.149      24.961      20.009      16.093      13.014    
  10.596      8.7009      7.2240      6.0835      5.2130      4.5572      4.0717      3.7232      3.4892      3.3550    
  3.3114      3.3550      3.4892      3.7232      4.0717      4.5572      5.2130      6.0835      7.2240      8.7009    
  10.596      13.014      16.093      20.009      24.961      31.149      38.739      47.855      58.582      70.779    
  82.789      91.989      95.644      91.397      77.867      55.282      25.928     -5.8925     -34.590     -54.580    
 -54.580     -47.663     -28.381     -.73050      29.870      58.003      79.508      92.181      95.824      91.801    
  82.430      70.398      58.278      47.638      38.592      31.057      24.911      19.990      16.096      13.032    
  10.624      8.7351      7.2624      6.1246      5.2557      4.6007      4.1154      3.7669      3.5329      3.3987    
  3.3550      3.3987      3.5329      3.7669      4.1154      4.6007      5.2557      6.1246      7.2624      8.7351    
  10.624      13.032      16.096      19.990      24.911      31.057      38.592      47.638      58.278      70.398    
  82.430      91.801      95.824      92.181      79.508      58.003      29.870     -.73050     -28.381     -47.663    
 -34.590     -28.381     -11.101      13.593      40.753      65.451      83.920      94.198      96.159      91.126    
  81.306      69.248      57.375      46.992      38.153      30.781      24.762      19.934      16.107      13.087    
  10.708      8.8396      7.3799      6.2505      5.3864      4.7339      4.2496      3.9014      3.6673      3.5329    
  3.4892      3.5329      3.6673      3.9014      4.2496      4.7339      5.3864      6.2505      7.3799      8.8396    
  10.708      13.087      16.107      19.934      24.762      30.781      38.153      46.992      57.375      69.248    
  81.306      91.126      96.159      94.198      83.920      65.451      40.753      13.593     -11.101     -28.381    
 -5.8925     -.73050      13.593      33.928      56.031      75.695      89.739      96.546      96.106      89.676    
  79.300      67.319      55.896      45.933      37.432      30.330      24.519      19.845      16.127      13.183    
  10.855      9.0200      7.5830      6.4682      5.6130      4.9651      4.4829      4.1353      3.9014      3.7669    
  3.7232      3.7669      3.9014      4.1353      4.4829      4.9651      5.6130      6.4682      7.5830      9.0200    
  10.855      13.183      16.127      19.845      24.519      30.330      37.432      45.933      55.896      67.319    
  79.300      89.676      96.106      96.546      89.739      75.695      56.031      33.928      13.593     -.73050    
  25.928      29.870      40.753      56.031      72.287      86.163      95.155      98.052      94.976      87.111    
  76.304      64.641      53.885      44.489      36.449      29.715      24.189      19.729      16.164      13.325    
  11.070      9.2848      7.8815      6.7889      5.9474      5.3072      4.8287      4.4829      4.2496      4.1154    
  4.0717      4.1154      4.2496      4.4829      4.8287      5.3072      5.9474      6.7889      7.8815      9.2848    
  11.070      13.325      16.164      19.729      24.189      29.715      36.449      44.489      53.885      64.641    
  76.304      87.111      94.976      98.052      95.155      86.163      72.287      56.031      40.753      29.870    
  55.282      58.003      65.451      75.695      86.163      94.352      98.441      97.629      92.175      83.188    
  72.305      61.326      51.408      42.706      35.234      28.957      23.788      19.596      16.224      13.523    
  11.364      9.6458      8.2893      7.2283      6.4070      5.7788      5.3072      4.9651      4.7339      4.6007    
  4.5572      4.6007      4.7339      4.9651      5.3072      5.7788      6.4070      7.2283      8.2893      9.6458    
  11.364      13.523      16.224      19.596      23.788      28.957      35.234      42.706      51.408      61.326    
  72.305      83.188      92.175      97.629      98.441      94.352      86.163      75.695      65.451      58.003    
  77.867      79.508      83.920      89.739      95.155      98.441      98.393      94.588      87.409      77.892    
  67.461      57.515      48.548      40.643      33.830      28.086      23.336      19.460      16.321      13.787    
  11.749      10.119      8.8249      7.8078      7.0161      6.4070      5.9474      5.6130      5.3864      5.2557    
  5.2130      5.2557      5.3864      5.6130      5.9474      6.4070      7.0161      7.8078      8.8249      10.119    
  11.749      13.787      16.321      19.460      23.336      28.086      33.830      40.643      48.548      57.515    
  67.461      77.892      87.409      94.588      98.393      98.441      95.155      89.739      83.920      79.508    
  91.397      92.181      94.198      96.546      98.052      97.629      94.588      88.819      80.806      71.503    
  62.106      53.351      45.410      38.377      32.291      27.140      22.858      19.340      16.469      14.134    
  12.245      10.725      9.5140      8.5570      7.8078      7.2283      6.7889      6.4682      6.2505      6.1246    
  6.0835      6.1246      6.2505      6.4682      6.7889      7.2283      7.8078      8.5570      9.5140      10.725    
  12.245      14.134      16.469      19.340      22.858      27.140      32.291      38.377      45.410      53.351    
  62.106      71.503      80.806      88.819      94.588      97.629      98.052      96.546      94.198      92.181    
  95.644      95.824      96.159      96.106      94.976      92.175      87.409      80.806      72.909      64.576    
  56.522      48.985      42.109      35.991      30.679      26.162      22.384      19.258      16.688      14.585    
  12.875      11.494      10.390      9.5140      8.8249      8.2893      7.8815      7.5830      7.3799      7.2624    
  7.2240      7.2624      7.3799      7.5830      7.8815      8.2893      8.8249      9.5140      10.390      11.494    
  12.875      14.585      16.688      19.258      22.384      26.162      30.679      35.991      42.109      48.985    
  56.522      64.576      72.909      80.806      87.409      92.175      94.976      96.106      96.159      95.824    
  91.989      91.801      91.126      89.676      87.111      83.188      77.892      71.503      64.576      57.632    
  50.904      44.569      38.762      33.577      29.057      25.196      21.948      19.243      17.006      15.169    
  13.671      12.462      11.494      10.725      10.119      9.6458      9.2848      9.0200      8.8396      8.7351    
  8.7009      8.7351      8.8396      9.0200      9.2848      9.6458      10.119      10.725      11.494      12.462    
  13.671      15.169      17.006      19.243      21.948      25.196      29.057      33.577      38.762      44.569    
  50.904      57.632      64.576      71.503      77.892      83.188      87.111      89.676      91.126      91.801    
  82.789      82.430      81.306      79.300      76.304      72.305      67.461      62.106      56.522      50.904    
  45.429      40.248      35.484      31.218      27.488      24.289      21.585      19.324      17.453      15.917    
  14.672      13.671      12.875      12.245      11.749      11.364      11.070      10.855      10.708      10.624    
  10.596      10.624      10.708      10.855      11.070      11.364      11.749      12.245      12.875      13.671    
  14.672      15.917      17.453      19.324      21.585      24.289      27.488      31.218      35.484      40.248    
  45.429      50.904      56.522      62.106      67.461      72.305      76.304      79.300      81.306      82.430    
  70.779      70.398      69.248      67.319      64.641      61.326      57.515      53.351      48.985      44.569    
  40.248      36.151      32.376      28.992      26.028      23.482      21.330      19.537      18.063      16.870    
  15.917      15.169      14.585      14.134      13.787      13.523      13.325      13.183      13.087      13.032    
  13.014      13.032      13.087      13.183      13.325      13.523      13.787      14.134      14.585      15.169    
  15.917      16.870      18.063      19.537      21.330      23.482      26.028      28.992      32.376      36.151    
  40.248      44.569      48.985      53.351      57.515      61.326      64.641      67.319      69.248      70.398    
  58.582      58.278      57.375      55.896      53.885      51.408      48.548      45.410      42.109      38.762    
  35.484      32.376      29.517      26.957      24.722      22.814      21.219      19.914      18.872      18.063    
  17.453      17.006      16.688      16.469      16.321      16.224      16.164      16.127      16.107      16.096    
  16.093      16.096      16.107      16.127      16.164      16.224      16.321      16.469      16.688      17.006    
  17.453      18.063      18.872      19.914      21.219      22.814      24.722      26.957      29.517      32.376    
  35.484      38.762      42.109      45.410      48.548      51.408      53.885      55.896      57.375      58.278    
  47.855      47.638      46.992      45.933      44.489      42.706      40.643      38.377      35.991      33.577    
  31.218      28.992      26.957      25.154      23.604      22.315      21.280      20.486      19.914      19.537    
  19.324      19.243      19.258      19.340      19.460      19.596      19.729      19.845      19.934      19.990    
  20.009      19.990      19.934      19.845      19.729      19.596      19.460      19.340      19.258      19.243    
  19.324      19.537      19.914      20.486      21.280      22.315      23.604      25.154      26.957      28.992    
  31.218      33.577      35.991      38.377      40.643      42.706      44.489      45.933      46.992      47.638    
  38.739      38.592      38.153      37.432      36.449      35.234      33.830      32.291      30.679      29.057    
  27.488      26.028      24.722      23.604      22.696      22.006      21.537      21.280      21.219      21.330    
  21.585      21.948      22.384      22.858      23.336      23.788      24.189      24.519      24.762      24.911    
  24.961      24.911      24.762      24.519      24.189      23.788      23.336      22.858      22.384      21.948    
  21.585      21.330      21.219      21.280      21.537      22.006      22.696      23.604      24.722      26.028    
  27.488      29.057      30.679      32.291      33.830      35.234      36.449      37.432      38.153      38.592    
  31.149      31.057      30.781      30.330      29.715      28.957      28.086      27.140      26.162      25.196    
  24.289      23.482      22.814      22.315      22.006      21.902      22.006      22.315      22.814      23.482    
  24.289      25.196      26.162      27.140      28.086      28.957      29.715      30.330      30.781      31.057    
  31.149      31.057      30.781      30.330      29.715      28.957      28.086      27.140      26.162      25.196    
  24.289      23.482      22.814      22.315      22.006      21.902      22.006      22.315      22.814      23.482    
  24.289      25.196      26.162      27.140      28.086      28.957      29.715      30.330      30.781      31.057    
  24.961      24.911      24.762      24.519      24.189      23.788      23.336      22.858      22.384      21.948    
  21.585      21.330      21.219      21.280      21.537      22.006      22.696      23.604      24.722      26.028    
  27.488      29.057      30.679      32.291      33.830      35.234      36.449      37.432      38.153      38.592    
  38.739      38.592      38.153      37.432      36.449      35.234      33.830      32.291      30.679      29.057    
  27.488      26.028      24.722      23.604      22.696      22.006      21.537      21.280      21.219      21.330    
  21.585      21.948      22.384      22.858      23.336      23.788      24.189      24.519      24.762      24.911    
  20.009      19.990      19.934      19.845      19.729      19.596      19.460      19.340      19.258      19.243    
  19.324      19.537      19.914      20.486      21.280      22.315      23.604      25.154      26.957      28.992    
  31.218      33.577      35.991      38.377      40.643      42.706      44.489      45.933      46.992      47.638    
  47.855      47.638      46.992      45.933      44.489      42.706      40.643      38.377      35.991      33.577    
  31.218      28.992      26.957      25.154      23.604      22.315      21.280      20.486      19.914      19.537    
  19.324      19.243      19.258      19.340      19.460      19.596      19.729      19.845      19.934      19.990    
  16.093      16.096      16.107      16.127      16.164      16.224      16.321      16.469      16.688      17.006    
  17.453      18.063      18.872      19.914      21.219      22.814      24.722      26.957      29.517      32.376    
  35.484      38.762      42.109      45.410      48.548      51.408      53.885      55.896      57.375      58.278    
  58.582      58.278      57.375      55.896      53.885      51.408      48.548      45.410      42.109      38.762    
  35.484      32.376      29.517      26.957      24.722      22.814      21.219      19.914      18.872      18.063    
  17.453      17.006      16.688      16.469      16.321      16.224      16.164      16.127      16.107      16.096    
  13.014      13.032      13.087      13.183      13.325      13.523      13.787      14.134      14.585      15.169    
  15.917      16.870      18.063      19.537      21.330      23.482      26.028      28.992      32.376      36.151    
  40.248      44.569      48.985      53.351      57.515      61.326      64.641      67.319      69.248      70.398    
  70.779      70.398      69.248      67.319      64.641      61.326      57.515      53.351      48.985      44.569    
  40.248      36.151      32.376      28.992      26.028      23.482      21.330      19.537      18.063      16.870    
  15.917      15.169      14.585      14.134      13.787      13.523      13.325      13.183      13.087      13.032    
  10.596      10.624      10.708      10.855      11.070      11.364      11.749      12.245      12.875      13.671    
  14.672      15.917      17.453      19.324      21.585      24.289      27.488      31.218      35.484      40.248    
  45.429      50.904      56.522      62.106      67.461      72.305      76.304      79.300      81.306      82.430    
  82.789      82.430      81.306      79.300      76.304      72.305      67.461      62.106      56.522      50.904    
  45.429      40.248      35.484      31.218      27.488      24.289      21.585      19.324      17.453      15.917    
  14.672      13.671      12.875      12.245      11.749      11.364      11.070      10.855      10.708      10.624    
  8.7009      8.7351      8.8396      9.0200      9.2848      9.6458      10.119      10.725      11.494      12.462    
  13.671      15.169      17.006      19.243      21.948      25.196      29.057      33.577      38.762      44.569    
  50.904      57.632      64.576      71.503      77.892      83.188      87.111      89.676      91.126      91.801    
  91.989      91.801      91.126      89.676      87.111      83.188      77.892      71.503      64.576      57.632    
  50.904      44.569      38.762      33.577      29.057      25.196      21.948      19.243      17.006      15.169    
  13.671      12.462      11.494      10.725      10.119      9.6458      9.2848      9.0200      8.8396      8.7351    
  7.2240      7.2624      7.3799      7.5830      7.8815      8.2893      8.8249      9.5140      10.390      11.494    
  12.875      14.585      16.688      19.258      22.384      26.162      30.679      35.991      42.109      48.985    
  56.522      64.576      72.909      80.806      87.409      92.175      94.976      96.106      96.159      95.824    
  95.644      95.824      96.159      96.106      94.976      92.175      87.409      80.806      72.909      64.576    
  56.522      48.985      42.109      35.991      30.679      26.162      22.384      19.258      16.688      14.585    
  12.875      11.494      10.390      9.5140      8.8249      8.2893      7.8815      7.5830      7.3799      7.2624    
  6.0835      6.1246      6.2505      6.4682      6.7889      7.2283      7.8078      8.5570      9.5140      10.725    
  12.245      14.134      16.469      19.340      22.858      27.140      32.291      38.377      45.410      53.351    
  62.106      71.503      80.806      88.819      94.588      97.629      98.052      96.546      94.198      92.181    
  91.397      92.181      94.198      96.546      98.052      97.629      94.588      88.819      80.806      71.503    
  62.106      53.351      45.410      38.377      32.291      27.140      22.858      19.340      16.469      14.134    
  12.245      10.725      9.5140      8.5570      7.8078      7.2283      6.7889      6.4682      6.2505      6.1246    
  5.2130      5.2557      5.3864      5.6130      5.9474      6.4070      7.0161      7.8078      8.8249      10.119    
  11.749      13.787      16.321      19.460      23.336      28.086      33.830      40.643      48.548      57.515    
  67.461      77.892      87.409      94.588      98.393      98.441      95.155      89.739      83.920      79.508    
  77.867      79.508      83.920      89.739      95.155      98.441      98.393      94.588      87.409      77.892    
  67.461      57.515      48.548      40.643      33.830      28.086      23.336      19.460      16.321      13.787    
  11.749      10.119      8.8249      7.8078      7.0161      6.4070      5.9474      5.6130      5.3864      5.2557    
  4.5572      4.6007      4.7339      4.9651      5.3072      5.7788      6.4070      7.2283      8.2893      9.6458    
  11.364      13.523      16.224      19.596      23.788      28.957      35.234      42.706      51.408      61.326    
  72.305      83.188      92.175      97.629      98.441      94.352      86.163      75.695      65.451      58.003    
  55.282      58.003      65.451      75.695      86.163      94.352      98.441      97.629      92.175      83.188    
  72.305      61.326      51.408      42.706      35.234      28.957      23.788      19.596      16.224      13.523    
  11.364      9.6458      8.2893      7.2283      6.4070      5.7788      5.3072      4.9651      4.7339      4.6007    
  4.0717      4.1154      4.2496      4.4829      4.8287      5.3072      5.9474      6.7889      7.8815      9.2848    
  11.070      13.325      16.164      19.729      24.189      29.715      36.449      44.489      53.885      64.641    
  76.304      87.111      94.976      98.052      95.155      86.163      72.287      56.031      40.753      29.870    
  25.928      29.870      40.753      56.031      72.287      86.163      95.155      98.052      94.976      87.111    
  76.304      64.641      53.885      44.489      36.449      29.715      24.189      19.729      16.164      13.325    
  11.070      9.2848      7.8815      6.7889      5.9474      5.3072      4.8287      4.4829      4.2496      4.1154    
  3.7232      3.7669      3.9014      4.1353      4.4829      4.9651      5.6130      6.4682      7.5830      9.0200    
  10.855      13.183      16.127      19.845      24.519      30.330      37.432      45.933      55.896      67.319    
  79.300      89.676      96.106      96.546      89.739      75.695      56.031      33.928      13.593     -.73050    
 -5.8925     -.73050      13.593      33.928      56.031      75.695      89.739      96.546      96.106      89.676    
  79.300      67.319      55.896      45.933      37.432      30.330      24.519      19.845      16.127      13.183    
  10.855      9.0200      7.5830      6.4682      5.6130      4.9651      4.4829      4.1353      3.9014      3.7669    
  3.4892      3.5329      3.6673      3.9014      4.2496      4.7339      5.3864      6.2505      7.3799      8.8396    
  10.708      13.087      16.107      19.934      24.762      30.781      38.153      46.992      57.375      69.248    
  81.306      91.126      96.159      94.198      83.920      65.451      40.753      13.593     -11.101     -28.381    
 -34.590     -28.381     -11.101      13.593      40.753      65.451      83.920      94.198      96.159      91.126    
  81.306      69.248      57.375      46.992      38.153      30.781      24.762      19.934      16.107      13.087    
  10.708      8.8396      7.3799      6.2505      5.3864      4.7339      4.2496      3.9014      3.6673      3.5329    
  3.3550      3.3987      3.5329      3.7669      4.1154      4.6007      5.2557      6.1246      7.2624      8.7351    
  10.624      13.032      16.096      19.990      24.911      31.057      38.592      47.638      58.278      70.398    
  82.430      91.801      95.824      92.181      79.508      58.003      29.870     -.73050     -28.381     -47.663    
 -54.580     -47.663     -28.381     -.73050      29.870      58.003      79.508      92.181      95.824      91.801    
  82.430      70.398      58.278      47.638      38.592      31.057      24.911      19.990      16.096      13.032    
  10.624      8.7351      7.2624      6.1246      5.2557      4.6007      4.1154      3.7669      3.5329      3.3987    
  3.3114      3.3550      3.4892      3.7232      4.0717      4.5572      5.2130      6.0835      7.2240      8.7009    
  10.596      13.014      16.093      20.009      24.961      31.149      38.739      47.855      58.582      70.779    
  82.789      91.989      95.644      91.397      77.867      55.282      25.928     -5.8925     -34.590     -54.580    
 -61.748     -54.580     -34.590     -5.8925      25.928      55.282      77.867      91.397      95.644      91.989    
  82.789      70.779      58.582      47.855      38.739      31.149      24.961      20.009      16.093      13.014    
  10.596      8.7009      7.2240      6.0835      5.2130      4.5572      4.0717      3.7232      3.4892      3.3550    
  3.3550      3.3987      3.5329      3.7669      4.1154      4.6007      5.2557      6.1246      7.2624      8.7351    
  10.624      13.032      16.096      19.990      24.911      31.057      38.592      47.638      58.278      70.398    
  82.430      91.801      95.824      92.181      79.508      58.003      29.870     -.73050     -28.381     -47.663    
 -54.580     -47.663     -28.381     -.73050      29.870      58.003      79.508      92.181      95.824      91.801    
  82.430      70.398      58.278      47.638      38.592      31.057      24.911      19.990      16.096      13.032    
  10.624      8.7351      7.2624      6.1246      5.2557      4.6007      4.1154      3.7669      3.5329      3.3987    
  3.4892      3.5329      3.6673      3.9014      4.2496      4.7339      5.3864      6.2505      7.3799      8.8396    
  10.708      13.087      16.107      19.934      24.762      30.781      38.153      46.992      57.375      69.248    
  81.306      91.126      96.159      94.198      83.920      65.451      40.753      13.593     -11.101     -28.381    
 -34.590     -28.381     -11.101      13.593      40.753      65.451      83.920      94.198      96.159      91.126    
  81.306      69.248      57.375      46.992      38.153      30.781      24.762      19.934      16.107      13.087    
  10.708      8.8396      7.3799      6.2505      5.3864      4.7339      4.2496      3.9014      3.6673      3.5329    
  3.7232      3.7669      3.9014      4.1353      4.4829      4.9651      5.6130      6.4682      7.5830      9.0200    
  10.855      13.183      16.127      19.845      24.519      30.330      37.432      45.933      55.896      67.319    
  79.300      89.676      96.106      96.546      89.739      75.695      56.031      33.928      13.593     -.73050    
 -5.8925     -.73050      13.593      33.928      56.031      75.695      89.739      96.546      96.106      89.676    
  79.300      67.319      55.896      45.933      37.432      30.330      24.519      19.845      16.127      13.183    
  10.855      9.0200      7.5830      6.4682      5.6130      4.9651      4.4829      4.1353      3.9014      3.7669    
  4.0717      4.1154      4.2496      4.4829      4.8287      5.3072      5.9474      6.7889      7.8815      9.2848    
  11.070      13.325      16.164      19.729      24.189      29.715      36.449      44.489      53.885      64.641    
  76.304      87.111      94.976      98.052      95.155      86.163      72.287      56.031      40.753      29.870    
  25.928      29.870      40.753      56.031      72.287      86.163      95.155      98.052      94.976      87.111    
  76.304      64.641      53.885      44.489      36.449      29.715      24.189      19.729      16.164      13.325    
  11.070      9.2848      7.8815      6.7889      5.9474      5.3072      4.8287      4.4829      4.2496      4.1154    
  4.5572      4.6007      4.7339      4.9651      5.3072      5.7788      6.4070      7.2283      8.2893      9.6458    
  11.364      13.523      16.224      19.596      23.788      28.957      35.234      42.706      51.408      61.326    
  72.305      83.188      92.175      97.629      98.441      94.352      86.163      75.695      65.451      58.003    
  55.282      58.003      65.451      75.695      86.163      94.352      98.441      97.629      92.175      83.188    
  72.305      61.326      51.408      42.706      35.234      28.957      23.788      19.596      16.224      13.523    
  11.364      9.6458      8.2893      7.2283      6.4070      5.7788      5.3072      4.9651      4.7339      4.6007    
  5.2130      5.2557      5.3864      5.6130      5.9474      6.4070      7.0161      7.8078      8.8249      10.119    
  11.749      13.787      16.321      19.460      23.336      28.086      33.830      40.643      48.548      57.515    
  67.461      77.892      87.409      94.588      98.393      98.441      95.155      89.739      83.920      79.508    
  77.867      79.508      83.920      89.739      95.155      98.441      98.393      94.588      87.409      77.892    
  67.461      57.515      48.548      40.643      33.830      28.086      23.336      19.460      16.321      13.787    
  11.749      10.119      8.8249      7.8078      7.0161      6.4070      5.9474      5.6130      5.3864      5.2557    
  6.0835      6.1246      6.2505      6.4682      6.7889      7.2283      7.8078      8.5570      9.5140      10.725    
  12.245      14.134      16.469      19.340      22.858      27.140      32.291      38.377      45.410      53.351    
  62.106      71.503      80.806      88.819      94.588      97.629      98.052      96.546      94.198      92.181    
  91.397      92.181      94.198      96.546      98.052      97.629      94.588      88.819      80.806      71.503    
  62.106      53.351      45.410      38.377      32.291      27.140      22.858      19.340      16.469      14.134    
  12.245      10.725      9.5140      8.5570      7.8078      7.2283      6.7889      6.4682      6.2505      6.1246    
  7.2240      7.2624      7.3799      7.5830      7.8815      8.2893      8.8249      9.5140      10.390      11.494    
  12.875      14.585      16.688      19.258      22.384      26.162      30.679      35.991      42.109      48.985    
  56.522      64.576      72.909      80.806      87.409      92.175      94.976      96.106      96.159      95.824    
  95.644      95.824      96.159      96.106      94.976      92.175      87.409      80.806      72.909      64.576    
  56.522      48.985      42.109      35.991      30.679      26.162      22.384      19.258      16.688      14.585    
  12.875      11.494      10.390      9.5140      8.8249      8.2893      7.8815      7.5830      7.3799      7.2624    
  8.7009      8.7351      8.8396      9.0200      9.2848      9.6458      10.119      10.725      11.494      12.462    
  13.671      15.169      17.006      19.243      21.948      25.196      29.057      33.577      38.762      44.569    
  50.904      57.632      64.576      71.503      77.892      83.188      87.111      89.676      91.126      91.801    
  91.989      91.801      91.126      89.676      87.111      83.188      77.892      71.503      64.576      57.632    
  50.904      44.569      38.762      33.577      29.057      25.196      21.948      19.243      17.006      15.169    
  13.671      12.462      11.494      10.725      10.119      9.6458      9.2848      9.0200      8.8396      8.7351    
  10.596      10.624      10.708      10.855      11.070      11.364      11.749      12.245      12.875      13.671    
  14.672      15.917      17.453      19.324      21.585      24.289      27.488      31.218      35.484      40.248    
  45.429      50.904      56.522      62.106      67.461      72.305      76.304      79.300      81.306      82.430    