GaAs                                    
   4.50000000000000     
     1.198797    0.000000    0.000000
     0.000000    1.198797    0.000000
     0.000000    0.000000    1.198797
   As   Ga
     4     4
Direct
  0.000000  0.000000  0.000000
  0.500000  0.500000  0.000000
  0.500000  0.000000  0.500000
  0.000000  0.500000  0.500000
  0.250000  0.250000  0.250000
  0.750000  0.250000  0.750000
  0.750000  0.750000  0.250000
  0.250000  0.750000  0.750000
 
   60   60   60
 -.61747914817E+02 -.54580251955E+02 -.34590090611E+02 -.58924834030E+01 0.25928325045E+02
 0.55282042048E+02 0.77867195352E+02 0.91396944296E+02 0.95643597708E+02 0.91989044442E+02
 0.82789374884E+02 0.70778712672E+02 0.58581811835E+02 0.47855093297E+02 0.38739350123E+02
 0.31148930047E+02 0.24960931482E+02 0.20008614367E+02 0.16093283818E+02 0.13014058618E+02
 0.10595892758E+02 0.87008601475E+01 0.72239729996E+01 0.60834956002E+01 0.52129906176E+01
 0.45572367188E+01 0.40716677384E+01 0.37231683762E+01 0.34892256020E+01 0.33550366416E+01
 0.33114048479E+01 0.33550366416E+01 0.34892256020E+01 0.37231683762E+01 0.40716677384E+01
 0.45572367188E+01 0.52129906176E+01 0.60834956002E+01 0.72239729996E+01 0.87008601475E+01
 0.10595892758E+02 0.13014058618E+02 0.16093283818E+02 0.20008614367E+02 0.24960931482E+02
 0.31148930047E+02 0.38739350123E+02 0.47855093297E+02 0.58581811835E+02 0.70778712672E+02
 0.82789374884E+02 0.91989044442E+02 0.95643597708E+02 0.91396944296E+02 0.77867195352E+02
 0.55282042048E+02 0.25928325045E+02 -.58924834030E+01 -.34590090611E+02 -.54580251955E+02
 -.54580251955E+02 -.47662960106E+02 -.28380944843E+02 -.73049717123E+00 0.29870049619E+02
 0.58003099881E+02 0.79507618680E+02 0.92181371711E+02 0.95823763150E+02 0.91801080810E+02
 0.82430466422E+02 0.70398225868E+02 0.58278076365E+02 0.47638130469E+02 0.38591952237E+02
 0.31056539900E+02 0.24910884549E+02 0.19989803303E+02 0.16096423297E+02 0.13032017310E+02
 0.10623645570E+02 0.87350593388E+01 0.72623987335E+01 0.61246088204E+01 0.52556725574E+01
 0.46006918493E+01 0.41153988031E+01 0.37669294797E+01 0.35329339939E+01 0.33986902631E+01
 0.33550366416E+01 0.33986902631E+01 0.35329339939E+01 0.37669294797E+01 0.41153988031E+01
 0.46006918493E+01 0.52556725574E+01 0.61246088204E+01 0.72623987335E+01 0.87350593388E+01
 0.10623645570E+02 0.13032017310E+02 0.16096423297E+02 0.19989803303E+02 0.24910884549E+02
 0.31056539900E+02 0.38591952237E+02 0.47638130469E+02 0.58278076365E+02 0.70398225868E+02
 0.82430466422E+02 0.91801080810E+02 0.95823763150E+02 0.92181371711E+02 0.79507618680E+02
 0.58003099881E+02 0.29870049619E+02 -.73049717123E+00 -.28380944843E+02 -.47662960106E+02
 -.34590090611E+02 -.28380944843E+02 -.11100650185E+02 0.13593053380E+02 0.40753133182E+02
 0.65450590670E+02 0.83920256361E+02 0.94197818654E+02 0.96158895556E+02 0.91125933313E+02
 0.81305830967E+02 0.69248248214E+02 0.57374619458E+02 0.46992158673E+02 0.38152818664E+02
 0.30781286405E+02 0.24761989226E+02 0.19934310672E+02 0.16106795171E+02 0.13087093869E+02
 0.10708464190E+02 0.88395839389E+01 0.73799217411E+01 0.62504524969E+01 0.53864297637E+01
 0.47339424129E+01 0.42496282731E+01 0.39013724197E+01 0.36673015601E+01 0.35329339939E+01
 0.34892256020E+01 0.35329339939E+01 0.36673015601E+01 0.39013724197E+01 0.42496282731E+01
 0.47339424129E+01 0.53864297637E+01 0.62504524969E+01 0.73799217411E+01 0.88395839389E+01
 0.10708464190E+02 0.13087093869E+02 0.16106795171E+02 0.19934310672E+02 0.24761989226E+02
 0.30781286405E+02 0.38152818664E+02 0.46992158673E+02 0.57374619458E+02 0.69248248214E+02
 0.81305830967E+02 0.91125933313E+02 0.96158895556E+02 0.94197818654E+02 0.83920256361E+02
 0.65450590670E+02 0.40753133182E+02 0.13593053380E+02 -.11100650185E+02 -.28380944843E+02
 -.58924834030E+01 -.73049717123E+00 0.13593053380E+02 0.33928251658E+02 0.56030747001E+02
 0.75695007123E+02 0.89738555870E+02 0.96546244006E+02 0.96106033833E+02 0.89676378124E+02
 0.79300038056E+02 0.67319187829E+02 0.55895822689E+02 0.45932919184E+02 0.37432027737E+02
 0.30329671643E+02 0.24518549689E+02 0.19845329911E+02 0.16127432220E+02 0.13182875653E+02
 0.10854866623E+02 0.90199530518E+01 0.75829521266E+01 0.64681558072E+01 0.56129521597E+01
 0.49651284131E+01 0.44828746227E+01 0.41353243631E+01 0.39013724197E+01 0.37669294797E+01
 0.37231683762E+01 0.37669294797E+01 0.39013724197E+01 0.41353243631E+01 0.44828746227E+01
 0.49651284131E+01 0.56129521597E+01 0.64681558072E+01 0.75829521266E+01 0.90199530518E+01
 0.10854866623E+02 0.13182875653E+02 0.16127432220E+02 0.19845329911E+02 0.24518549689E+02
 0.30329671643E+02 0.37432027737E+02 0.45932919184E+02 0.55895822689E+02 0.67319187829E+02
 0.79300038056E+02 0.89676378124E+02 0.96106033833E+02 0.96546244006E+02 0.89738555870E+02
 0.75695007123E+02 0.56030747001E+02 0.33928251658E+02 0.13593053380E+02 -.73049717123E+00
 0.25928325045E+02 0.29870049619E+02 0.40753133182E+02 0.56030747001E+02 0.72287157266E+02
 0.86163398983E+02 0.95154894908E+02 0.98052431884E+02 0.94976278819E+02 0.87111202885E+02
 0.76303914932E+02 0.64641230811E+02 0.53885236171E+02 0.44489351776E+02 0.36448848505E+02
 0.29714567682E+02 0.24189242120E+02 0.19729147796E+02 0.16163836930E+02 0.13325327601E+02
 0.11070018348E+02 0.92847901339E+01 0.78815036398E+01 0.67889080016E+01 0.59473783578E+01
 0.53071639047E+01 0.48286992848E+01 0.44828746227E+01 0.42496282731E+01 0.41153988031E+01
 0.40716677384E+01 0.41153988031E+01 0.42496282731E+01 0.44828746227E+01 0.48286992848E+01
 0.53071639047E+01 0.59473783578E+01 0.67889080016E+01 0.78815036398E+01 0.92847901339E+01
 0.11070018348E+02 0.13325327601E+02 0.16163836930E+02 0.19729147796E+02 0.24189242120E+02
 0.29714567682E+02 0.36448848505E+02 0.44489351776E+02 0.53885236171E+02 0.64641230811E+02
 0.76303914932E+02 0.87111202885E+02 0.94976278819E+02 0.98052431884E+02 0.95154894908E+02
 0.86163398983E+02 0.72287157266E+02 0.56030747001E+02 0.40753133182E+02 0.29870049619E+02
 0.55282042048E+02 0.58003099881E+02 0.65450590670E+02 0.75695007123E+02 0.86163398983E+02
 0.94352426977E+02 0.98440538116E+02 0.97629120553E+02 0.92174918676E+02 0.83187693390E+02
 0.72305142298E+02 0.61325555681E+02 0.51407551015E+02 0.42705901917E+02 0.35233916153E+02
 0.28956932232E+02 0.23788309761E+02 0.19595895329E+02 0.16224383580E+02 0.13522938179E+02
 0.11363731088E+02 0.96458014814E+01 0.82892846621E+01 0.72282908939E+01 0.64069764613E+01
 0.57788177442E+01 0.53071639047E+01 0.49651284131E+01 0.47339424129E+01 0.46006918493E+01
 0.45572367188E+01 0.46006918493E+01 0.47339424129E+01 0.49651284131E+01 0.53071639047E+01
 0.57788177442E+01 0.64069764613E+01 0.72282908939E+01 0.82892846621E+01 0.96458014814E+01
 0.11363731088E+02 0.13522938179E+02 0.16224383580E+02 0.19595895329E+02 0.23788309761E+02
 0.28956932232E+02 0.35233916153E+02 0.42705901917E+02 0.51407551015E+02 0.61325555681E+02
 0.72305142298E+02 0.83187693390E+02 0.92174918676E+02 0.97629120553E+02 0.98440538116E+02
 0.94352426977E+02 0.86163398983E+02 0.75695007123E+02 0.65450590670E+02 0.58003099881E+02
 0.77867195352E+02 0.79507618680E+02 0.83920256361E+02 0.89738555870E+02 0.95154894908E+02
 0.98440538116E+02 0.98392914005E+02 0.94588339612E+02 0.87409447937E+02 0.77891602933E+02
 0.67460973681E+02 0.57515046979E+02 0.48548255934E+02 0.40643250217E+02 0.33830074144E+02
 0.28086404129E+02 0.23335949688E+02 0.19459886133E+02 0.16320740096E+02 0.13787296782E+02
 0.11749228908E+02 0.10118759008E+02 0.88249438374E+01 0.78078440091E+01 0.70160637811E+01
 0.64069764613E+01 0.59473783578E+01 0.56129521597E+01 0.53864297637E+01 0.52556725574E+01
 0.52129906176E+01 0.52556725574E+01 0.53864297637E+01 0.56129521597E+01 0.59473783578E+01
 0.64069764613E+01 0.70160637811E+01 0.78078440091E+01 0.88249438374E+01 0.10118759008E+02
 0.11749228908E+02 0.13787296782E+02 0.16320740096E+02 0.19459886133E+02 0.23335949688E+02
 0.28086404129E+02 0.33830074144E+02 0.40643250217E+02 0.48548255934E+02 0.57515046979E+02
 0.67460973681E+02 0.77891602933E+02 0.87409447937E+02 0.94588339612E+02 0.98392914005E+02
 0.98440538116E+02 0.95154894908E+02 0.89738555870E+02 0.83920256361E+02 0.79507618680E+02
 0.91396944296E+02 0.92181371711E+02 0.94197818654E+02 0.96546244006E+02 0.98052431884E+02
 0.97629120553E+02 0.94588339612E+02 0.88819407948E+02 0.80805751872E+02 0.71503122602E+02
 0.62105522510E+02 0.53350937619E+02 0.45410359695E+02 0.38376568943E+02 0.32291120747E+02
 0.27140352688E+02 0.22857804438E+02 0.19339681015E+02 0.16468523792E+02 0.14134258544E+02
 0.12244685554E+02 0.10725272997E+02 0.95139686245E+01 0.85569889214E+01 0.78078440091E+01
 0.72282908939E+01 0.67889080016E+01 0.64681558072E+01 0.62504524969E+01 0.61246088204E+01
 0.60834956002E+01 0.61246088204E+01 0.62504524969E+01 0.64681558072E+01 0.67889080016E+01
 0.72282908939E+01 0.78078440091E+01 0.85569889214E+01 0.95139686245E+01 0.10725272997E+02
 0.12244685554E+02 0.14134258544E+02 0.16468523792E+02 0.19339681015E+02 0.22857804438E+02
 0.27140352688E+02 0.32291120747E+02 0.38376568943E+02 0.45410359695E+02 0.53350937619E+02
 0.62105522510E+02 0.71503122602E+02 0.80805751872E+02 0.88819407948E+02 0.94588339612E+02
 0.97629120553E+02 0.98052431884E+02 0.96546244006E+02 0.94197818654E+02 0.92181371711E+02
 0.95643597708E+02 0.95823763150E+02 0.96158895556E+02 0.96106033833E+02 0.94976278819E+02
 0.92174918676E+02 0.87409447937E+02 0.80805751872E+02 0.72909143371E+02 0.64576054762E+02
 0.56522055909E+02 0.48984679186E+02 0.42108594898E+02 0.35991232469E+02 0.30678511743E+02
 0.26161669948E+02 0.22383950864E+02 0.19258176102E+02 0.16688219396E+02 0.14585351693E+02
 0.12874799376E+02 0.11494291594E+02 0.10389954975E+02 0.95139686245E+01 0.88249438374E+01
 0.82892846621E+01 0.78815036398E+01 0.75829521266E+01 0.73799217411E+01 0.72623987335E+01
 0.72239729996E+01 0.72623987335E+01 0.73799217411E+01 0.75829521266E+01 0.78815036398E+01
 0.82892846621E+01 0.88249438374E+01 0.95139686245E+01 0.10389954975E+02 0.11494291594E+02
 0.12874799376E+02 0.14585351693E+02 0.16688219396E+02 0.19258176102E+02 0.22383950864E+02
 0.26161669948E+02 0.30678511743E+02 0.35991232469E+02 0.42108594898E+02 0.48984679186E+02
 0.56522055909E+02 0.64576054762E+02 0.72909143371E+02 0.80805751872E+02 0.87409447937E+02
 0.92174918676E+02 0.94976278819E+02 0.96106033833E+02 0.96158895556E+02 0.95823763150E+02
 0.91989044442E+02 0.91801080810E+02 0.91125933313E+02 0.89676378124E+02 0.87111202885E+02
 0.83187693390E+02 0.77891602933E+02 0.71503122602E+02 0.64576054762E+02 0.57631714750E+02
 0.50904467806E+02 0.44568926387E+02 0.38761831874E+02 0.33576542757E+02 0.29056696834E+02
 0.25195949437E+02 0.21947763049E+02 0.19242671213E+02 0.17005858011E+02 0.15168538442E+02
 0.13671283903E+02 0.12462175551E+02 0.11494291594E+02 0.10725272997E+02 0.10118759008E+02
 0.96458014814E+01 0.92847901339E+01 0.90199530518E+01 0.88395839389E+01 0.87350593388E+01
 0.87008601475E+01 0.87350593388E+01 0.88395839389E+01 0.90199530518E+01 0.92847901339E+01
 0.96458014814E+01 0.10118759008E+02 0.10725272997E+02 0.11494291594E+02 0.12462175551E+02
 0.13671283903E+02 0.15168538442E+02 0.17005858011E+02 0.19242671213E+02 0.21947763049E+02
 0.25195949437E+02 0.29056696834E+02 0.33576542757E+02 0.38761831874E+02 0.44568926387E+02
 0.50904467806E+02 0.57631714750E+02 0.64576054762E+02 0.71503122602E+02 0.77891602933E+02
 0.83187693390E+02 0.87111202885E+02 0.89676378124E+02 0.91125933313E+02 0.91801080810E+02
 0.82789374884E+02 0.82430466422E+02 0.81305830967E+02 0.79300038056E+02 0.76303914932E+02
 0.72305142298E+02 0.67460973681E+02 0.62105522510E+02 0.56522055909E+02 0.50904467806E+02
 0.45428999224E+02 0.40248447507E+02 0.35484312619E+02 0.31218416091E+02 0.27488022924E+02
 0.24288603584E+02 0.21584647766E+02 0.19324407184E+02 0.17452640502E+02 0.15917496441E+02
 0.14671714977E+02 0.13671283903E+02 0.12874799376E+02 0.12244685554E+02 0.11749228908E+02
 0.11363731088E+02 0.11070018348E+02 0.10854866623E+02 0.10708464190E+02 0.10623645570E+02
 0.10595892758E+02 0.10623645570E+02 0.10708464190E+02 0.10854866623E+02 0.11070018348E+02
 0.11363731088E+02 0.11749228908E+02 0.12244685554E+02 0.12874799376E+02 0.13671283903E+02
 0.14671714977E+02 0.15917496441E+02 0.17452640502E+02 0.19324407184E+02 0.21584647766E+02
 0.24288603584E+02 0.27488022924E+02 0.31218416091E+02 0.35484312619E+02 0.40248447507E+02
 0.45428999224E+02 0.50904467806E+02 0.56522055909E+02 0.62105522510E+02 0.67460973681E+02
 0.72305142298E+02 0.76303914932E+02 0.79300038056E+02 0.81305830967E+02 0.82430466422E+02
 0.70778712672E+02 0.70398225868E+02 0.69248248214E+02 0.67319187829E+02 0.64641230811E+02
 0.61325555681E+02 0.57515046979E+02 0.53350937619E+02 0.48984679186E+02 0.44568926387E+02
 0.40248447507E+02 0.36150729153E+02 0.32376486063E+02 0.28992248069E+02 0.26028106233E+02
 0.23482197778E+02 0.21330377111E+02 0.19537042961E+02 0.18063107994E+02 0.16869500333E+02
 0.15917496441E+02 0.15168538442E+02 0.14585351693E+02 0.14134258544E+02 0.13787296782E+02
 0.13522938179E+02 0.13325327601E+02 0.13182875653E+02 0.13087093869E+02 0.13032017310E+02
 0.13014058618E+02 0.13032017310E+02 0.13087093869E+02 0.13182875653E+02 0.13325327601E+02
 0.13522938179E+02 0.13787296782E+02 0.14134258544E+02 0.14585351693E+02 0.15168538442E+02
 0.15917496441E+02 0.16869500333E+02 0.18063107994E+02 0.19537042961E+02 0.21330377111E+02
 0.23482197778E+02 0.26028106233E+02 0.28992248069E+02 0.32376486063E+02 0.36150729153E+02
 0.40248447507E+02 0.44568926387E+02 0.48984679186E+02 0.53350937619E+02 0.57515046979E+02
 0.61325555681E+02 0.64641230811E+02 0.67319187829E+02 0.69248248214E+02 0.70398225868E+02
 0.58581811835E+02 0.58278076365E+02 0.57374619458E+02 0.55895822689E+02 0.53885236171E+02
 0.51407551015E+02 0.48548255934E+02 0.45410359695E+02 0.42108594898E+02 0.38761831874E+02
 0.35484312619E+02 0.32376486063E+02 0.29516919481E+02 0.26957339158E+02 0.24722402159E+02
 0.22814123623E+02 0.21218897808E+02 0.19914140715E+02 0.18872441639E+02 0.18063107994E+02
 0.17452640502E+02 0.17005858011E+02 0.16688219396E+02 0.16468523792E+02 0.16320740096E+02
 0.16224383580E+02 0.16163836930E+02 0.16127432220E+02 0.16106795171E+02 0.16096423297E+02
 0.16093283818E+02 0.16096423297E+02 0.16106795171E+02 0.16127432220E+02 0.16163836930E+02
 0.16224383580E+02 0.16320740096E+02 0.16468523792E+02 0.16688219396E+02 0.17005858011E+02
 0.17452640502E+02 0.18063107994E+02 0.18872441639E+02 0.19914140715E+02 0.21218897808E+02
 0.22814123623E+02 0.24722402159E+02 0.26957339158E+02 0.29516919481E+02 0.32376486063E+02
 0.35484312619E+02 0.38761831874E+02 0.42108594898E+02 0.45410359695E+02 0.48548255934E+02
 0.51407551015E+02 0.53885236171E+02 0.55895822689E+02 0.57374619458E+02 0.58278076365E+02
 0.47855093297E+02 0.47638130469E+02 0.46992158673E+02 0.45932919184E+02 0.44489351776E+02
 0.42705901917E+02 0.40643250217E+02 0.38376568943E+02 0.35991232469E+02 0.33576542757E+02
 0.31218416091E+02 0.28992248069E+02 0.26957339158E+02 0.25154087998E+02 0.23604417518E+02
 0.22314752606E+02 0.21279940255E+02 0.20486452915E+02 0.19914140715E+02 0.19537042961E+02
 0.19324407184E+02 0.19242671213E+02 0.19258176102E+02 0.19339681015E+02 0.19459886133E+02
 0.19595895329E+02 0.19729147796E+02 0.19845329911E+02 0.19934310672E+02 0.19989803303E+02
 0.20008614367E+02 0.19989803303E+02 0.19934310672E+02 0.19845329911E+02 0.19729147796E+02
 0.19595895329E+02 0.19459886133E+02 0.19339681015E+02 0.19258176102E+02 0.19242671213E+02
 0.19324407184E+02 0.19537042961E+02 0.19914140715E+02 0.20486452915E+02 0.21279940255E+02
 0.22314752606E+02 0.23604417518E+02 0.25154087998E+02 0.26957339158E+02 0.28992248069E+02
 0.31218416091E+02 0.33576542757E+02 0.35991232469E+02 0.38376568943E+02 0.40643250217E+02
 0.42705901917E+02 0.44489351776E+02 0.45932919184E+02 0.46992158673E+02 0.47638130469E+02
 0.38739350123E+02 0.38591952237E+02 0.38152818664E+02 0.37432027737E+02 0.36448848505E+02
 0.35233916153E+02 0.33830074144E+02 0.32291120747E+02 0.30678511743E+02 0.29056696834E+02
 0.27488022924E+02 0.26028106233E+02 0.24722402159E+02 0.23604417518E+02 0.22695574336E+02
 0.22006226890E+02 0.21537022450E+02 0.21279940255E+02 0.21218897808E+02 0.21330377111E+02
 0.21584647766E+02 0.21947763049E+02 0.22383950864E+02 0.22857804438E+02 0.23335949688E+02
 0.23788309761E+02 0.24189242120E+02 0.24518549689E+02 0.24761989226E+02 0.24910884549E+02
 0.24960931482E+02 0.24910884549E+02 0.24761989226E+02 0.24518549689E+02 0.24189242120E+02
 0.23788309761E+02 0.23335949688E+02 0.22857804438E+02 0.22383950864E+02 0.21947763049E+02
 0.21584647766E+02 0.21330377111E+02 0.21218897808E+02 0.21279940255E+02 0.21537022450E+02
 0.22006226890E+02 0.22695574336E+02 0.23604417518E+02 0.24722402159E+02 0.26028106233E+02
 0.27488022924E+02 0.29056696834E+02 0.30678511743E+02 0.32291120747E+02 0.33830074144E+02
 0.35233916153E+02 0.36448848505E+02 0.37432027737E+02 0.38152818664E+02 0.38591952237E+02
 0.31148930047E+02 0.31056539900E+02 0.30781286405E+02 0.30329671643E+02 0.29714567682E+02
 0.28956932232E+02 0.28086404129E+02 0.27140352688E+02 0.26161669948E+02 0.25195949437E+02
 0.24288603584E+02 0.23482197778E+02 0.22814123623E+02 0.22314752606E+02 0.22006226890E+02
 0.21901902000E+02 0.22006226890E+02 0.22314752606E+02 0.22814123623E+02 0.23482197778E+02
 0.24288603584E+02 0.25195949437E+02 0.26161669948E+02 0.27140352688E+02 0.28086404129E+02
 0.28956932232E+02 0.29714567682E+02 0.30329671643E+02 0.30781286405E+02 0.31056539900E+02
 0.31148930047E+02 0.31056539900E+02 0.30781286405E+02 0.30329671643E+02 0.29714567682E+02
 0.28956932232E+02 0.28086404129E+02 0.27140352688E+02 0.26161669948E+02 0.25195949437E+02
 0.24288603584E+02 0.23482197778E+02 0.22814123623E+02 0.22314752606E+02 0.22006226890E+02
 0.21901902000E+02 0.22006226890E+02 0.22314752606E+02 0.22814123623E+02 0.23482197778E+02
 0.24288603584E+02 0.25195949437E+02 0.26161669948E+02 0.27140352688E+02 0.28086404129E+02
 0.28956932232E+02 0.29714567682E+02 0.30329671643E+02 0.30781286405E+02 0.31056539900E+02
 0.24960931482E+02 0.24910884549E+02 0.24761989226E+02 0.24518549689E+02 0.24189242120E+02
 0.23788309761E+02 0.23335949688E+02 0.22857804438E+02 0.22383950864E+02 0.21947763049E+02
 0.21584647766E+02 0.21330377111E+02 0.21218897808E+02 0.21279940255E+02 0.21537022450E+02
 0.22006226890E+02 0.22695574336E+02 0.23604417518E+02 0.24722402159E+02 0.26028106233E+02
 0.27488022924E+02 0.29056696834E+02 0.30678511743E+02 0.32291120747E+02 0.33830074144E+02
 0.35233916153E+02 0.36448848505E+02 0.37432027737E+02 0.38152818664E+02 0.38591952237E+02
 0.38739350123E+02 0.38591952237E+02 0.38152818664E+02 0.37432027737E+02 0.36448848505E+02
 0.35233916153E+02 0.33830074144E+02 0.32291120747E+02 0.30678511743E+02 0.29056696834E+02
 0.27488022924E+02 0.26028106233E+02 0.24722402159E+02 0.23604417518E+02 0.22695574336E+02
 0.22006226890E+02 0.21537022450E+02 0.21279940255E+02 0.21218897808E+02 0.21330377111E+02
 0.21584647766E+02 0.21947763049E+02 0.22383950864E+02 0.22857804438E+02 0.23335949688E+02
 0.23788309761E+02 0.24189242120E+02 0.24518549689E+02 0.24761989226E+02 0.24910884549E+02
 0.20008614367E+02 0.19989803303E+02 0.19934310672E+02 0.19845329911E+02 0.19729147796E+02
 0.19595895329E+02 0.19459886133E+02 0.19339681015E+02 0.19258176102E+02 0.19242671213E+02
 0.19324407184E+02 0.19537042961E+02 0.19914140715E+02 0.20486452915E+02 0.21279940255E+02
 0.22314752606E+02 0.23604417518E+02 0.25154087998E+02 0.26957339158E+02 0.28992248069E+02
 0.31218416091E+02 0.33576542757E+02 0.35991232469E+02 0.38376568943E+02 0.40643250217E+02
 0.42705901917E+02 0.44489351776E+02 0.45932919184E+02 0.46992158673E+02 0.47638130469E+02
 0.47855093297E+02 0.47638130469E+02 0.46992158673E+02 0.45932919184E+02 0.44489351776E+02
 0.42705901917E+02 0.40643250217E+02 0.38376568943E+02 0.35991232469E+02 0.33576542757E+02
 0.31218416091E+02 0.28992248069E+02 0.26957339158E+02 0.25154087998E+02 0.23604417518E+02
 0.22314752606E+02 0.21279940255E+02 0.20486452915E+02 0.19914140715E+02 0.19537042961E+02
 0.19324407184E+02 0.19242671213E+02 0.19258176102E+02 0.19339681015E+02 0.19459886133E+02
 0.19595895329E+02 0.19729147796E+02 0.19845329911E+02 0.19934310672E+02 0.19989803303E+02
 0.16093283818E+02 0.16096423297E+02 0.16106795171E+02 0.16127432220E+02 0.16163836930E+02
 0.16224383580E+02 0.16320740096E+02 0.16468523792E+02 0.16688219396E+02 0.17005858011E+02
 0.17452640502E+02 0.18063107994E+02 0.18872441639E+02 0.19914140715E+02 0.21218897808E+02
 0.22814123623E+02 0.24722402159E+02 0.26957339158E+02 0.29516919481E+02 0.32376486063E+02
 0.35484312619E+02 0.38761831874E+02 0.42108594898E+02 0.45410359695E+02 0.48548255934E+02
 0.51407551015E+02 0.53885236171E+02 0.55895822689E+02 0.57374619458E+02 0.58278076365E+02
 0.58581811835E+02 0.58278076365E+02 0.57374619458E+02 0.55895822689E+02 0.53885236171E+02
 0.51407551015E+02 0.48548255934E+02 0.45410359695E+02 0.42108594898E+02 0.38761831874E+02
 0.35484312619E+02 0.32376486063E+02 0.29516919481E+02 0.26957339158E+02 0.24722402159E+02
 0.22814123623E+02 0.21218897808E+02 0.19914140715E+02 0.18872441639E+02 0.18063107994E+02
 0.17452640502E+02 0.17005858011E+02 0.16688219396E+02 0.16468523792E+02 0.16320740096E+02
 0.16224383580E+02 0.16163836930E+02 0.16127432220E+02 0.16106795171E+02 0.16096423297E+02
 0.13014058618E+02 0.13032017310E+02 0.13087093869E+02 0.13182875653E+02 0.13325327601E+02
 0.13522938179E+02 0.13787296782E+02 0.14134258544E+02 0.14585351693E+02 0.15168538442E+02
 0.15917496441E+02 0.16869500333E+02 0.18063107994E+02 0.19537042961E+02 0.21330377111E+02
 0.23482197778E+02 0.26028106233E+02 0.28992248069E+02 0.32376486063E+02 0.36150729153E+02
 0.40248447507E+02 0.44568926387E+02 0.48984679186E+02 0.53350937619E+02 0.57515046979E+02
 0.61325555681E+02 0.64641230811E+02 0.67319187829E+02 0.69248248214E+02 0.70398225868E+02
 0.70778712672E+02 0.70398225868E+02 0.69248248214E+02 0.67319187829E+02 0.64641230811E+02
 0.61325555681E+02 0.57515046979E+02 0.53350937619E+02 0.48984679186E+02 0.44568926387E+02
 0.40248447507E+02 0.36150729153E+02 0.32376486063E+02 0.28992248069E+02 0.26028106233E+02
 0.23482197778E+02 0.21330377111E+02 0.19537042961E+02 0.18063107994E+02 0.16869500333E+02
 0.15917496441E+02 0.15168538442E+02 0.14585351693E+02 0.14134258544E+02 0.13787296782E+02
 0.13522938179E+02 0.13325327601E+02 0.13182875653E+02 0.13087093869E+02 0.13032017310E+02
 0.10595892758E+02 0.10623645570E+02 0.10708464190E+02 0.10854866623E+02 0.11070018348E+02
 0.11363731088E+02 0.11749228908E+02 0.12244685554E+02 0.12874799376E+02 0.13671283903E+02
 0.14671714977E+02 0.15917496441E+02 0.17452640502E+02 0.19324407184E+02 0.21584647766E+02
 0.24288603584E+02 0.27488022924E+02 0.31218416091E+02 0.35484312619E+02 0.40248447507E+02
 0.45428999224E+02 0.50904467806E+02 0.56522055909E+02 0.62105522510E+02 0.67460973681E+02
 0.72305142298E+02 0.76303914932E+02 0.79300038056E+02 0.81305830967E+02 0.82430466422E+02
 0.82789374884E+02 0.82430466422E+02 0.81305830967E+02 0.79300038056E+02 0.76303914932E+02
 0.72305142298E+02 0.67460973681E+02 0.62105522510E+02 0.56522055909E+02 0.50904467806E+02
 0.45428999224E+02 0.40248447507E+02 0.35484312619E+02 0.31218416091E+02 0.27488022924E+02
 0.24288603584E+02 0.21584647766E+02 0.19324407184E+02 0.17452640502E+02 0.15917496441E+02
 0.14671714977E+02 0.13671283903E+02 0.12874799376E+02 0.12244685554E+02 0.11749228908E+02
 0.11363731088E+02 0.11070018348E+02 0.10854866623E+02 0.10708464190E+02 0.10623645570E+02
 0.87008601475E+01 0.87350593388E+01 0.88395839389E+01 0.90199530518E+01 0.92847901339E+01
 0.96458014814E+01 0.10118759008E+02 0.10725272997E+02 0.11494291594E+02 0.12462175551E+02
 0.13671283903E+02 0.15168538442E+02 0.17005858011E+02 0.19242671213E+02 0.21947763049E+02
 0.25195949437E+02 0.29056696834E+02 0.33576542757E+02 0.38761831874E+02 0.44568926387E+02
 0.50904467806E+02 0.57631714750E+02 0.64576054762E+02 0.71503122602E+02 0.77891602933E+02
 0.83187693390E+02 0.87111202885E+02 0.89676378124E+02 0.91125933313E+02 0.91801080810E+02
 0.91989044442E+02 0.91801080810E+02 0.91125933313E+02 0.89676378124E+02 0.87111202885E+02
 0.83187693390E+02 0.77891602933E+02 0.71503122602E+02 0.64576054762E+02 0.57631714750E+02
 0.50904467806E+02 0.44568926387E+02 0.38761831874E+02 0.33576542757E+02 0.29056696834E+02
 0.25195949437E+02 0.21947763049E+02 0.19242671213E+02 0.17005858011E+02 0.15168538442E+02
 0.13671283903E+02 0.12462175551E+02 0.11494291594E+02 0.10725272997E+02 0.10118759008E+02
 0.96458014814E+01 0.92847901339E+01 0.90199530518E+01 0.88395839389E+01 0.87350593388E+01
 0.72239729996E+01 0.72623987335E+01 0.73799217411E+01 0.75829521266E+01 0.78815036398E+01
 0.82892846621E+01 0.88249438374E+01 0.95139686245E+01 0.10389954975E+02 0.11494291594E+02
 0.12874799376E+02 0.14585351693E+02 0.16688219396E+02 0.19258176102E+02 0.22383950864E+02
 0.26161669948E+02 0.30678511743E+02 0.35991232469E+02 0.42108594898E+02 0.48984679186E+02
 0.56522055909E+02 0.64576054762E+02 0.72909143371E+02 0.80805751872E+02 0.87409447937E+02
 0.92174918676E+02 0.94976278819E+02 0.96106033833E+02 0.96158895556E+02 0.95823763150E+02
 0.95643597708E+02 0.95823763150E+02 0.96158895556E+02 0.96106033833E+02 0.94976278819E+02
 0.92174918676E+02 0.87409447937E+02 0.80805751872E+02 0.72909143371E+02 0.64576054762E+02
 0.56522055909E+02 0.48984679186E+02 0.42108594898E+02 0.35991232469E+02 0.30678511743E+02
 0.26161669948E+02 0.22383950864E+02 0.19258176102E+02 0.16688219396E+02 0.14585351693E+02
 0.12874799376E+02 0.11494291594E+02 0.10389954975E+02 0.95139686245E+01 0.88249438374E+01
 0.82892846621E+01 0.78815036398E+01 0.75829521266E+01 0.73799217411E+01 0.72623987335E+01
 0.60834956002E+01 0.61246088204E+01 0.62504524969E+01 0.64681558072E+01 0.67889080016E+01
 0.72282908939E+01 0.78078440091E+01 0.85569889214E+01 0.95139686245E+01 0.10725272997E+02
 0.12244685554E+02 0.14134258544E+02 0.16468523792E+02 0.19339681015E+02 0.22857804438E+02
 0.27140352688E+02 0.32291120747E+02 0.38376568943E+02 0.45410359695E+02 0.53350937619E+02
 0.62105522510E+02 0.71503122602E+02 0.80805751872E+02 0.88819407948E+02 0.94588339612E+02
 0.97629120553E+02 0.98052431884E+02 0.96546244006E+02 0.94197818654E+02 0.92181371711E+02
 0.91396944296E+02 0.92181371711E+02 0.94197818654E+02 0.96546244006E+02 0.98052431884E+02
 0.97629120553E+02 0.94588339612E+02 0.88819407948E+02 0.80805751872E+02 0.71503122602E+02
 0.62105522510E+02 0.53350937619E+02 0.45410359695E+02 0.38376568943E+02 0.32291120747E+02
 0.27140352688E+02 0.22857804438E+02 0.19339681015E+02 0.16468523792E+02 0.14134258544E+02
 0.12244685554E+02 0.10725272997E+02 0.95139686245E+01 0.85569889214E+01 0.78078440091E+01
 0.72282908939E+01 0.67889080016E+01 0.64681558072E+01 0.62504524969E+01 0.61246088204E+01
 0.52129906176E+01 0.52556725574E+01 0.53864297637E+01 0.56129521597E+01 0.59473783578E+01
 0.64069764613E+01 0.70160637811E+01 0.78078440091E+01 0.88249438374E+01 0.10118759008E+02
 0.11749228908E+02 0.13787296782E+02 0.16320740096E+02 0.19459886133E+02 0.23335949688E+02
 0.28086404129E+02 0.33830074144E+02 0.40643250217E+02 0.48548255934E+02 0.57515046979E+02
 0.67460973681E+02 0.77891602933E+02 0.87409447937E+02 0.94588339612E+02 0.98392914005E+02
 0.98440538116E+02 0.95154894908E+02 0.89738555870E+02 0.83920256361E+02 0.79507618680E+02
 0.77867195352E+02 0.79507618680E+02 0.83920256361E+02 0.89738555870E+02 0.95154894908E+02
 0.98440538116E+02 0.98392914005E+02 0.94588339612E+02 0.87409447937E+02 0.77891602933E+02
 0.67460973681E+02 0.57515046979E+02 0.48548255934E+02 0.40643250217E+02 0.33830074144E+02
 0.28086404129E+02 0.23335949688E+02 0.19459886133E+02 0.16320740096E+02 0.13787296782E+02
 0.11749228908E+02 0.10118759008E+02 0.88249438374E+01 0.78078440091E+01 0.70160637811E+01
 0.64069764613E+01 0.59473783578E+01 0.56129521597E+01 0.53864297637E+01 0.52556725574E+01
 0.45572367188E+01 0.46006918493E+01 0.47339424129E+01 0.49651284131E+01 0.53071639047E+01
 0.57788177442E+01 0.64069764613E+01 0.72282908939E+01 0.82892846621E+01 0.96458014814E+01
 0.11363731088E+02 0.13522938179E+02 0.16224383580E+02 0.19595895329E+02 0.23788309761E+02
 0.28956932232E+02 0.35233916153E+02 0.42705901917E+02 0.51407551015E+02 0.61325555681E+02
 0.72305142298E+02 0.83187693390E+02 0.92174918676E+02 0.97629120553E+02 0.98440538116E+02
 0.94352426977E+02 0.86163398983E+02 0.75695007123E+02 0.65450590670E+02 0.58003099881E+02
 0.55282042048E+02 0.58003099881E+02 0.65450590670E+02 0.75695007123E+02 0.86163398983E+02
 0.94352426977E+02 0.98440538116E+02 0.97629120553E+02 0.92174918676E+02 0.83187693390E+02
 0.72305142298E+02 0.61325555681E+02 0.51407551015E+02 0.42705901917E+02 0.35233916153E+02
 0.28956932232E+02 0.23788309761E+02 0.19595895329E+02 0.16224383580E+02 0.13522938179E+02
 0.11363731088E+02 0.96458014814E+01 0.82892846621E+01 0.72282908939E+01 0.64069764613E+01
 0.57788177442E+01 0.53071639047E+01 0.49651284131E+01 0.47339424129E+01 0.46006918493E+01
 0.40716677384E+01 0.41153988031E+01 0.42496282731E+01 0.44828746227E+01 0.48286992848E+01
 0.53071639047E+01 0.59473783578E+01 0.67889080016E+01 0.78815036398E+01 0.92847901339E+01
 0.11070018348E+02 0.13325327601E+02 0.16163836930E+02 0.19729147796E+02 0.24189242120E+02
 0.29714567682E+02 0.36448848505E+02 0.44489351776E+02 0.53885236171E+02 0.64641230811E+02
 0.76303914932E+02 0.87111202885E+02 0.94976278819E+02 0.98052431884E+02 0.95154894908E+02
 0.86163398983E+02 0.72287157266E+02 0.56030747001E+02 0.40753133182E+02 0.29870049619E+02
 0.25928325045E+02 0.29870049619E+02 0.40753133182E+02 0.56030747001E+02 0.72287157266E+02
 0.86163398983E+02 0.95154894908E+02 0.98052431884E+02 0.94976278819E+02 0.87111202885E+02
 0.76303914932E+02 0.64641230811E+02 0.53885236171E+02 0.44489351776E+02 0.36448848505E+02
 0.29714567682E+02 0.24189242120E+02 0.19729147796E+02 0.16163836930E+02 0.13325327601E+02
 0.11070018348E+02 0.92847901339E+01 0.78815036398E+01 0.67889080016E+01 0.59473783578E+01
 0.53071639047E+01 0.48286992848E+01 0.44828746227E+01 0.42496282731E+01 0.41153988031E+01