   8   8   0   0
  0.1962386E+02  0.5394586E-09  0.5394586E-09  0.5394586E-09  0.5000000E-15
  1.000000000000000E-004
  CAR 
 GaAs                                    
     10.32314722    -10.80284737  301      4.05796945      1.00000000
    -10.803  0.0000E+00  0.0000E+00
    -10.732  0.0000E+00  0.0000E+00
    -10.662  0.0000E+00  0.0000E+00
    -10.592  0.0000E+00  0.0000E+00
    -10.521  0.0000E+00  0.0000E+00
    -10.451  0.0000E+00  0.0000E+00
    -10.380  0.0000E+00  0.0000E+00
    -10.310  0.0000E+00  0.0000E+00
    -10.239  0.0000E+00  0.0000E+00
    -10.169  0.0000E+00  0.0000E+00
    -10.099  0.0000E+00  0.0000E+00
    -10.028  0.0000E+00  0.0000E+00
     -9.958  0.0000E+00  0.0000E+00
     -9.887  0.0000E+00  0.0000E+00
     -9.817  0.0000E+00  0.0000E+00
     -9.747  0.4152E-01  0.7792E-03
     -9.676  0.2104E+00  0.8885E-02
     -9.606  0.4941E+00  0.3334E-01
     -9.535  0.7023E+00  0.7624E-01
     -9.465  0.7782E+00  0.1291E+00
     -9.394  0.8058E+00  0.1846E+00
     -9.324  0.8847E+00  0.2438E+00
     -9.254  0.1004E+01  0.3103E+00
     -9.183  0.1133E+01  0.3855E+00
     -9.113  0.1408E+01  0.4713E+00
     -9.042  0.1994E+01  0.5920E+00
     -8.972  0.2417E+01  0.7485E+00
     -8.902  0.2054E+01  0.9055E+00
     -8.831  0.1756E+01  0.1039E+01
     -8.761  0.1735E+01  0.1162E+01
     -8.690  0.1710E+01  0.1283E+01
     -8.620  0.1666E+01  0.1402E+01
     -8.549  0.1605E+01  0.1518E+01
     -8.479  0.1987E+01  0.1658E+01
     -8.409  0.1463E+01  0.1779E+01
     -8.338  0.8541E+00  0.1845E+01
     -8.268  0.1589E+01  0.1931E+01
     -8.197  0.2452E+01  0.2073E+01
     -8.127  0.2636E+01  0.2253E+01
     -8.056  0.2787E+01  0.2451E+01
     -7.986  0.2865E+01  0.2643E+01
     -7.916  0.3118E+01  0.2853E+01
     -7.845  0.6784E+01  0.3107E+01
     -7.775  0.6158E+01  0.3567E+01
     -7.704  0.4508E+01  0.3943E+01
     -7.634  0.3703E+01  0.4197E+01
     -7.564  0.3242E+01  0.4418E+01
     -7.493  0.3503E+01  0.4655E+01
     -7.423  0.4990E+01  0.4934E+01
     -7.352  0.5839E+01  0.5338E+01
     -7.282  0.5843E+01  0.5746E+01
     -7.211  0.6640E+01  0.6190E+01
     -7.141  0.5942E+01  0.6639E+01
     -7.071  0.4435E+01  0.6974E+01
     -7.000  0.4112E+01  0.7275E+01
     -6.930  0.3927E+01  0.7555E+01
     -6.859  0.3321E+01  0.7809E+01
     -6.789  0.1112E+01  0.7999E+01
     -6.718  0.0000E+00  0.8000E+01
     -6.648  0.0000E+00  0.8000E+01
     -6.578  0.0000E+00  0.8000E+01
     -6.507  0.0000E+00  0.8000E+01
     -6.437  0.0000E+00  0.8000E+01
     -6.366  0.0000E+00  0.8000E+01
     -6.296  0.0000E+00  0.8000E+01
     -6.226  0.0000E+00  0.8000E+01
     -6.155  0.0000E+00  0.8000E+01
     -6.085  0.0000E+00  0.8000E+01
     -6.014  0.0000E+00  0.8000E+01
     -5.944  0.0000E+00  0.8000E+01
     -5.873  0.0000E+00  0.8000E+01
     -5.803  0.0000E+00  0.8000E+01
     -5.733  0.0000E+00  0.8000E+01
     -5.662  0.0000E+00  0.8000E+01
     -5.592  0.0000E+00  0.8000E+01
     -5.521  0.0000E+00  0.8000E+01
     -5.451  0.0000E+00  0.8000E+01
     -5.381  0.0000E+00  0.8000E+01
     -5.310  0.0000E+00  0.8000E+01
     -5.240  0.0000E+00  0.8000E+01
     -5.169  0.0000E+00  0.8000E+01
     -5.099  0.0000E+00  0.8000E+01
     -5.028  0.0000E+00  0.8000E+01
     -4.958  0.0000E+00  0.8000E+01
     -4.888  0.0000E+00  0.8000E+01
     -4.817  0.0000E+00  0.8000E+01
     -4.747  0.0000E+00  0.8000E+01
     -4.676  0.0000E+00  0.8000E+01
     -4.606  0.0000E+00  0.8000E+01
     -4.535  0.0000E+00  0.8000E+01
     -4.465  0.0000E+00  0.8000E+01
     -4.395  0.0000E+00  0.8000E+01
     -4.324  0.0000E+00  0.8000E+01
     -4.254  0.0000E+00  0.8000E+01
     -4.183  0.0000E+00  0.8000E+01
     -4.113  0.0000E+00  0.8000E+01
     -4.043  0.0000E+00  0.8000E+01
     -3.972  0.0000E+00  0.8000E+01
     -3.902  0.0000E+00  0.8000E+01
     -3.831  0.0000E+00  0.8000E+01
     -3.761  0.0000E+00  0.8000E+01
     -3.690  0.0000E+00  0.8000E+01
     -3.620  0.0000E+00  0.8000E+01
     -3.550  0.0000E+00  0.8000E+01
     -3.479  0.7346E-02  0.8000E+01
     -3.409  0.6927E+00  0.8018E+01
     -3.338  0.1388E+01  0.8099E+01
     -3.268  0.3887E+01  0.8294E+01
     -3.197  0.6060E+01  0.8607E+01
     -3.127  0.1108E+02  0.9153E+01
     -3.057  0.8389E+01  0.9935E+01
     -2.986  0.7354E+01  0.1045E+02
     -2.916  0.7563E+01  0.1097E+02
     -2.845  0.5397E+01  0.1141E+02
     -2.775  0.4512E+01  0.1177E+02
     -2.705  0.3336E+01  0.1205E+02
     -2.634  0.2378E+01  0.1222E+02
     -2.564  0.2317E+01  0.1239E+02
     -2.493  0.2260E+01  0.1255E+02
     -2.423  0.2206E+01  0.1271E+02
     -2.352  0.2155E+01  0.1286E+02
     -2.282  0.2108E+01  0.1301E+02
     -2.212  0.2065E+01  0.1316E+02
     -2.141  0.2024E+01  0.1330E+02
     -2.071  0.1657E+01  0.1342E+02
     -2.000  0.1631E+01  0.1354E+02
     -1.930  0.1600E+01  0.1365E+02
     -1.860  0.1558E+01  0.1376E+02
     -1.789  0.1510E+01  0.1387E+02
     -1.719  0.1457E+01  0.1398E+02
     -1.648  0.1402E+01  0.1408E+02
     -1.578  0.1343E+01  0.1417E+02
     -1.507  0.1280E+01  0.1427E+02
     -1.437  0.1296E+01  0.1435E+02
     -1.367  0.1199E+01  0.1444E+02
     -1.296  0.1116E+01  0.1452E+02
     -1.226  0.1046E+01  0.1460E+02
     -1.155  0.9901E+00  0.1467E+02
     -1.085  0.8436E+00  0.1473E+02
     -1.014  0.9219E+00  0.1480E+02
     -0.944  0.1011E+01  0.1486E+02
     -0.874  0.1111E+01  0.1494E+02
     -0.803  0.1221E+01  0.1502E+02
     -0.733  0.1763E+01  0.1512E+02
     -0.662  0.1479E+01  0.1525E+02
     -0.592  0.1516E+01  0.1535E+02
     -0.522  0.1661E+01  0.1546E+02
     -0.451  0.1880E+01  0.1559E+02
     -0.381  0.2150E+01  0.1573E+02
     -0.310  0.2391E+01  0.1589E+02
     -0.240  0.4103E+01  0.1616E+02
     -0.169  0.3598E+01  0.1646E+02
     -0.099  0.4757E+01  0.1674E+02
     -0.029  0.6650E+01  0.1714E+02
      0.042  0.5840E+01  0.1766E+02
      0.112  0.4812E+01  0.1802E+02
      0.183  0.4468E+01  0.1834E+02
      0.253  0.3910E+01  0.1864E+02
      0.324  0.3712E+01  0.1891E+02
      0.394  0.3565E+01  0.1917E+02
      0.464  0.3837E+01  0.1945E+02
      0.535  0.3764E+01  0.1972E+02
      0.605  0.3477E+01  0.1996E+02
      0.676  0.3606E+01  0.2021E+02
      0.746  0.3698E+01  0.2046E+02
      0.816  0.4778E+01  0.2075E+02
      0.887  0.6785E+01  0.2116E+02
      0.957  0.7361E+01  0.2167E+02
      1.028  0.6187E+01  0.2214E+02
      1.098  0.7346E+01  0.2262E+02
      1.169  0.6256E+01  0.2310E+02
      1.239  0.5438E+01  0.2351E+02
      1.309  0.4478E+01  0.2386E+02
      1.380  0.3747E+01  0.2414E+02
      1.450  0.3588E+01  0.2440E+02
      1.521  0.3727E+01  0.2466E+02
      1.591  0.4181E+01  0.2493E+02
      1.661  0.4820E+01  0.2525E+02
      1.732  0.5300E+01  0.2560E+02
      1.802  0.5117E+01  0.2603E+02
      1.873  0.4802E+01  0.2635E+02
      1.943  0.5013E+01  0.2670E+02
      2.014  0.6006E+01  0.2708E+02
      2.084  0.7775E+01  0.2754E+02
      2.154  0.4994E+01  0.2801E+02
      2.225  0.4456E+01  0.2835E+02
      2.295  0.3927E+01  0.2864E+02
      2.366  0.3408E+01  0.2890E+02
      2.436  0.2937E+01  0.2914E+02
      2.507  0.2122E+01  0.2929E+02
      2.577  0.1969E+01  0.2943E+02
      2.647  0.2480E+01  0.2959E+02
      2.718  0.3156E+01  0.2978E+02
      2.788  0.4424E+01  0.3007E+02
      2.859  0.4445E+01  0.3037E+02
      2.929  0.4828E+01  0.3070E+02
      2.999  0.4839E+01  0.3103E+02
      3.070  0.2857E+01  0.3130E+02
      3.140  0.1449E+01  0.3142E+02
      3.211  0.1276E+01  0.3151E+02
      3.281  0.1107E+01  0.3160E+02
      3.352  0.9447E+00  0.3167E+02
      3.422  0.7994E+00  0.3173E+02
      3.492  0.8452E+00  0.3179E+02
      3.563  0.8412E+00  0.3185E+02
      3.633  0.7513E+00  0.3190E+02
      3.704  0.5755E+00  0.3195E+02
      3.774  0.3138E+00  0.3198E+02
      3.845  0.9417E-01  0.3199E+02
      3.915  0.3231E-01  0.3200E+02
      3.985  0.2772E-02  0.3200E+02
      4.056  0.0000E+00  0.3200E+02
      4.126  0.0000E+00  0.3200E+02
      4.197  0.0000E+00  0.3200E+02
      4.267  0.0000E+00  0.3200E+02
      4.337  0.0000E+00  0.3200E+02
      4.408  0.0000E+00  0.3200E+02
      4.478  0.0000E+00  0.3200E+02
      4.549  0.0000E+00  0.3200E+02
      4.619  0.0000E+00  0.3200E+02
      4.690  0.0000E+00  0.3200E+02
      4.760  0.0000E+00  0.3200E+02
      4.830  0.0000E+00  0.3200E+02
      4.901  0.0000E+00  0.3200E+02
      4.971  0.0000E+00  0.3200E+02
      5.042  0.0000E+00  0.3200E+02
      5.112  0.0000E+00  0.3200E+02
      5.182  0.9024E-02  0.3200E+02
      5.253  0.2314E+00  0.3201E+02
      5.323  0.2918E+00  0.3203E+02
      5.394  0.3661E+00  0.3205E+02
      5.464  0.4545E+00  0.3208E+02
      5.535  0.5568E+00  0.3212E+02
      5.605  0.1018E+01  0.3218E+02
      5.675  0.9169E+00  0.3224E+02
      5.746  0.1018E+01  0.3231E+02
      5.816  0.1169E+01  0.3239E+02
      5.887  0.1372E+01  0.3247E+02
      5.957  0.1799E+01  0.3258E+02
      6.028  0.2754E+01  0.3274E+02
      6.098  0.3756E+01  0.3299E+02
      6.168  0.2997E+01  0.3321E+02
      6.239  0.3283E+01  0.3343E+02
      6.309  0.4810E+01  0.3372E+02
      6.380  0.4733E+01  0.3404E+02
      6.450  0.5333E+01  0.3439E+02
      6.520  0.1941E+02  0.3518E+02
      6.591  0.4569E+01  0.3576E+02
      6.661  0.6719E+01  0.3610E+02
      6.732  0.5694E+01  0.3655E+02
      6.802  0.5240E+01  0.3694E+02
      6.873  0.4203E+01  0.3728E+02
      6.943  0.4153E+01  0.3757E+02
      7.013  0.4134E+01  0.3786E+02
      7.084  0.7089E+01  0.3827E+02
      7.154  0.7789E+01  0.3880E+02
      7.225  0.4126E+01  0.3922E+02
      7.295  0.3837E+01  0.3950E+02
      7.366  0.3588E+01  0.3975E+02
      7.436  0.3507E+01  0.4000E+02
      7.506  0.3428E+01  0.4025E+02
      7.577  0.3349E+01  0.4048E+02
      7.647  0.3376E+01  0.4072E+02
      7.718  0.2676E+01  0.4093E+02
      7.788  0.1979E+01  0.4109E+02
      7.858  0.2822E+01  0.4125E+02
      7.929  0.2882E+01  0.4146E+02
      7.999  0.3204E+01  0.4167E+02
      8.070  0.4241E+01  0.4193E+02
      8.140  0.4027E+01  0.4221E+02
      8.211  0.6786E+01  0.4255E+02
      8.281  0.8561E+01  0.4314E+02
      8.351  0.7343E+01  0.4370E+02
      8.422  0.5942E+01  0.4420E+02
      8.492  0.4773E+01  0.4455E+02
      8.563  0.4237E+01  0.4487E+02
      8.633  0.3572E+01  0.4514E+02
      8.703  0.2746E+01  0.4535E+02
      8.774  0.4238E+01  0.4559E+02
      8.844  0.5110E+01  0.4591E+02
      8.915  0.5235E+01  0.4630E+02
      8.985  0.5169E+01  0.4667E+02
      9.056  0.4909E+01  0.4702E+02
      9.126  0.4455E+01  0.4735E+02
      9.196  0.2836E+01  0.4763E+02
      9.267  0.3158E+01  0.4784E+02
      9.337  0.0000E+00  0.4800E+02
      9.408  0.0000E+00  0.4800E+02
      9.478  0.0000E+00  0.4800E+02
      9.549  0.0000E+00  0.4800E+02
      9.619  0.0000E+00  0.4800E+02
      9.689  0.0000E+00  0.4800E+02
      9.760  0.0000E+00  0.4800E+02
      9.830  0.0000E+00  0.4800E+02
      9.901  0.0000E+00  0.4800E+02
      9.971  0.0000E+00  0.4800E+02
     10.041  0.0000E+00  0.4800E+02
     10.112  0.0000E+00  0.4800E+02
     10.182  0.0000E+00  0.4800E+02
     10.253  0.0000E+00  0.4800E+02
     10.323  0.0000E+00  0.4800E+02
