       N       E                     dE             d eps       ncg     rms          rms(c)
DAV:   1    -0.315659934905E+02   -0.31566E+02   -0.52467E+00   544   0.102E+01    0.334E+00
DAV:   2    -0.314457709906E+02    0.12022E+00   -0.29980E-01   512   0.242E+00    0.199E+00
DAV:   3    -0.314054985390E+02    0.40272E-01   -0.18909E-01   504   0.160E+00    0.272E-01
DAV:   4    -0.314033402269E+02    0.21583E-02   -0.93954E-03   480   0.458E-01    0.165E-01
DAV:   5    -0.314028465090E+02    0.49372E-03   -0.17474E-03   584   0.161E-01    0.698E-02
DAV:   6    -0.314028555783E+02   -0.90693E-05   -0.62868E-05   304   0.382E-02
   1 F= -.31402856E+02 E0= -.31402856E+02  d E =0.000000E+00
 imaginary and real dielectric function
