 vasp.6.4.3 19Mar24 (build Aug 29 2024 15:27:20) complex                        
  
 executed on             LinuxIFC date 2025.03.19  10:34:22
 running    8 mpi-ranks, on    1 nodes
 distrk:  each k-point on    8 cores,    1 groups
 distr:  one band on NCORE=   1 cores,    8 groups


--------------------------------------------------------------------------------------------------------


 INCAR:
   SYSTEM = GaAs
   PREC = Normal
   ENCUT = 500
   ISMEAR = -5
   SIGMA = 0.1
   IBRION = 2
   LOPTICS = .TRUE.

 POTCAR:    PAW_PBE As 22Sep2009                  
 POTCAR:    PAW_PBE Ga 08Apr2002                  
 -----------------------------------------------------------------------------
|                                                                             |
|           W    W    AA    RRRRR   N    N  II  N    N   GGGG   !!!           |
|           W    W   A  A   R    R  NN   N  II  NN   N  G    G  !!!           |
|           W    W  A    A  R    R  N N  N  II  N N  N  G       !!!           |
|           W WW W  AAAAAA  RRRRR   N  N N  II  N  N N  G  GGG   !            |
|           WW  WW  A    A  R   R   N   NN  II  N   NN  G    G                |
|           W    W  A    A  R    R  N    N  II  N    N   GGGG   !!!           |
|                                                                             |
|     For optimal performance we recommend to set                             |
|       NCORE = 2 up to number-of-cores-per-socket                            |
|     NCORE specifies how many cores store one orbital (NPAR=cpu/NCORE).      |
|     This setting can greatly improve the performance of VASP for DFT.       |
|     The default, NCORE=1 might be grossly inefficient on modern             |
|     multi-core architectures or massively parallel machines. Do your        |
|     own testing! More info at https://www.vasp.at/wiki/index.php/NCORE      |
|     Unfortunately you need to use the default for GW and RPA                |
|     calculations (for HF NCORE is supported but not extensively tested      |
|     yet).                                                                   |
|                                                                             |
 -----------------------------------------------------------------------------

 POTCAR:    PAW_PBE As 22Sep2009                  
   VRHFIN =As: s2p3                                                                                 
   LEXCH  = PE                                                                                      
   EATOM  =   170.1867 eV,   12.5084 Ry                                                             
                                                                                                    
   TITEL  = PAW_PBE As 22Sep2009                                                                    
   LULTRA =        F    use ultrasoft PP ?                                                          
   IUNSCR =        1    unscreen: 0-lin 1-nonlin 2-no                                               
   RPACOR =    1.900    partial core radius                                                         
   POMASS =   74.922; ZVAL   =    5.000    mass and valenz                                          
   RCORE  =    2.100    outmost cutoff radius                                                       
   RWIGS  =    2.300; RWIGS  =    1.217    wigner-seitz radius (au A)                               
   ENMAX  =  208.702; ENMIN  =  156.526 eV                                                          
   ICORE  =        3    local potential                                                             
   LCOR   =        T    correct aug charges                                                         
   LPAW   =        T    paw PP                                                                      
   EAUG   =  462.758                                                                                
   DEXC   =    0.000                                                                                
   RMAX   =    2.144    core radius for proj-oper                                                   
   RAUG   =    1.300    factor for augmentation sphere                                              
   RDEP   =    2.140    radius for radial grids                                                     
   RDEPT  =    1.956    core radius for aug-charge                                                  
                                                                                                    
   Atomic configuration                                                                             
   10 entries                                                                                       
     n  l   j            E        occ.                                                              
     1  0  0.50    -11718.0418   2.0000                                                             
     2  0  0.50     -1486.5454   2.0000                                                             
     2  1  1.50     -1303.3889   6.0000                                                             
     3  0  0.50      -190.2849   2.0000                                                             
     3  1  1.50      -133.6555   6.0000                                                             
     3  2  2.50       -40.6443  10.0000                                                             
     4  0  0.50       -14.4936   2.0000                                                             
     4  1  0.50        -5.1947   3.0000                                                             
     4  2  1.50        -5.4423   0.0000                                                             
     4  3  2.50        -5.4423   0.0000                                                             
   Description                                                                                      
     l       E           TYP  RCUT    TYP  RCUT                                                     
     0    -14.4935570     23  2.100                                                                 
     0    -11.9212055     23  2.100                                                                 
     1     -5.1947127     23  2.100                                                                 
     1     27.2116520     23  2.100                                                                 
     2     -5.4423304     23  2.100                                                                 
     3     -1.3605826      7  2.100                                                                 
  local pseudopotential read in
  partial core-charges read in
  partial kinetic energy density read in
  atomic valenz-charges read in
  non local Contribution for L=           0  read in
    real space projection operators read in
  non local Contribution for L=           0  read in
    real space projection operators read in
  non local Contribution for L=           1  read in
    real space projection operators read in
  non local Contribution for L=           1  read in
    real space projection operators read in
  non local Contribution for L=           2  read in
    real space projection operators read in
    PAW grid and wavefunctions read in
 
   number of l-projection  operators is LMAX  =           5
   number of lm-projection operators is LMMAX =          13
 
 POTCAR:    PAW_PBE Ga 08Apr2002                  
   VRHFIN =Ga: s2p1                                                                                 
   LEXCH  = PE                                                                                      
   EATOM  =    58.8688 eV,    4.3267 Ry                                                             
                                                                                                    
   TITEL  = PAW_PBE Ga 08Apr2002                                                                    
   LULTRA =        F    use ultrasoft PP ?                                                          
   IUNSCR =        1    unscreen: 0-lin 1-nonlin 2-no                                               
   RPACOR =    2.170    partial core radius                                                         
   POMASS =   69.723; ZVAL   =    3.000    mass and valenz                                          
   RCORE  =    2.600    outmost cutoff radius                                                       
   RWIGS  =    2.650; RWIGS  =    1.402    wigner-seitz radius (au A)                               
   ENMAX  =  134.678; ENMIN  =  101.009 eV                                                          
   ICORE  =        3    local potential                                                             
   LCOR   =        T    correct aug charges                                                         
   LPAW   =        T    paw PP                                                                      
   EAUG   =  320.264                                                                                
   DEXC   =    0.000                                                                                
   RMAX   =    2.658    core radius for proj-oper                                                   
   RAUG   =    1.300    factor for augmentation sphere                                              
   RDEP   =    2.684    radius for radial grids                                                     
   RDEPT  =    2.308    core radius for aug-charge                                                  
                                                                                                    
   Atomic configuration                                                                             
   10 entries                                                                                       
     n  l   j            E        occ.                                                              
     1  0  0.50    -10228.7830   2.0000                                                             
     2  0  0.50     -1262.1604   2.0000                                                             
     2  1  1.50     -1098.6333   6.0000                                                             
     3  0  0.50      -148.1110   2.0000                                                             
     3  1  1.50       -98.8436   6.0000                                                             
     3  2  2.50       -19.1549  10.0000                                                             
     4  0  0.50        -8.9483   2.0000                                                             
     4  1  0.50        -2.5791   1.0000                                                             
     4  2  1.50         5.4423   0.0000                                                             
     4  3  2.50        -2.7416   0.0000                                                             
   Description                                                                                      
     l       E           TYP  RCUT    TYP  RCUT                                                     
     0     -8.9483097     23  2.600                                                                 
     0     -5.8232215     23  2.600                                                                 
     1     -2.5790793     23  2.600                                                                 
     1      5.2230115     23  2.600                                                                 
     2      1.3605826     23  2.600                                                                 
     3     -1.3605826      7  2.600                                                                 
  local pseudopotential read in
  partial core-charges read in
  partial kinetic energy density read in
  atomic valenz-charges read in
  non local Contribution for L=           0  read in
    real space projection operators read in
  non local Contribution for L=           0  read in
    real space projection operators read in
  non local Contribution for L=           1  read in
    real space projection operators read in
  non local Contribution for L=           1  read in
    real space projection operators read in
  non local Contribution for L=           2  read in
    real space projection operators read in
    PAW grid and wavefunctions read in
 
   number of l-projection  operators is LMAX  =           5
   number of lm-projection operators is LMMAX =          13
 
  PAW_PBE As 22Sep2009                  :
 energy of atom  1       EATOM= -170.1867
 kinetic energy error for atom=    0.0005 (will be added to EATOM!!)
  PAW_PBE Ga 08Apr2002                  :
 energy of atom  2       EATOM=  -58.8688
 kinetic energy error for atom=    0.0000 (will be added to EATOM!!)
 
 
 POSCAR: cubic gallium arsenide
  positions in direct lattice
  velocities in cartesian coordinates


 exchange-correlation table for PE
   RHO(1)=    0.500       N(1)  =     2000
   RHO(2)=  100.500       N(2)  =     4000
 


--------------------------------------------------------------------------------------------------------


 ion  position               nearest neighbor table
   1  0.000  0.000  0.000-   5 2.34   6 2.34   7 2.34   8 2.34
   2  0.500  0.500  0.000-   5 2.34   6 2.34   7 2.34   8 2.34
   3  0.500  0.000  0.500-   5 2.34   6 2.34   7 2.34   8 2.34
   4  0.000  0.500  0.500-   5 2.34   6 2.34   7 2.34   8 2.34
   5  0.250  0.250  0.250-   1 2.34   2 2.34   3 2.34   4 2.34
   6  0.750  0.250  0.750-   1 2.34   2 2.34   3 2.34   4 2.34
   7  0.750  0.750  0.250-   1 2.34   2 2.34   3 2.34   4 2.34
   8  0.250  0.750  0.750-   1 2.34   2 2.34   3 2.34   4 2.34
 
  LATTYP: Found a simple cubic cell.
 ALAT       =     5.3945862763
  
  Lattice vectors:
  
 A1 = (   5.3945862763,   0.0000000000,   0.0000000000)
 A2 = (   0.0000000000,   5.3945862763,   0.0000000000)
 A3 = (   0.0000000000,   0.0000000000,   5.3945862763)


Analysis of symmetry for initial positions (statically):
=====================================================================
 Subroutine PRICEL returns following result:
 
  LATTYP: Found a face centered cubic cell.
 ALAT       =     5.3945862763
  
  Lattice vectors:
  
 A1 = (   2.6972931382,  -2.6972931382,   0.0000000000)
 A2 = (   2.6972931382,   0.0000000000,   2.6972931382)
 A3 = (   0.0000000000,  -2.6972931382,   2.6972931382)
 
   4 primitive cells build up your supercell.
 

 Routine SETGRP: Setting up the symmetry group for a 
 simple cubic supercell.


 Subroutine GETGRP returns: Found 24 space group operations
 (whereof 24 operations were pure point group operations)
 out of a pool of 48 trial point group operations.


The static configuration has the point symmetry T_d .


Analysis of symmetry for dynamics (positions and initial velocities):
=====================================================================
 Subroutine PRICEL returns following result:
 
  LATTYP: Found a face centered cubic cell.
 ALAT       =     5.3945862763
  
  Lattice vectors:
  
 A1 = (   2.6972931382,  -2.6972931382,   0.0000000000)
 A2 = (   2.6972931382,   0.0000000000,   2.6972931382)
 A3 = (   0.0000000000,  -2.6972931382,   2.6972931382)
 
   4 primitive cells build up your supercell.
 

 Routine SETGRP: Setting up the symmetry group for a 
 simple cubic supercell.


 Subroutine GETGRP returns: Found 24 space group operations
 (whereof 24 operations were pure point group operations)
 out of a pool of 48 trial point group operations.


The dynamic configuration has the point symmetry T_d .


 Subroutine INISYM returns: Found 24 space group operations
 (whereof 24 operations are pure point group operations),
 and found     4 'primitive' translations


----------------------------------------------------------------------------------------

                                     Primitive cell                                     

  volume of cell :      39.2477

  direct lattice vectors                    reciprocal lattice vectors
     2.697293138 -2.697293138  0.000000000     0.185371027 -0.185371027 -0.185371027
     2.697293138  0.000000000  2.697293138     0.185371027  0.185371027  0.185371027
     0.000000000 -2.697293138  2.697293138    -0.185371027 -0.185371027  0.185371027

  length of vectors
     3.814548538  3.814548538  3.814548538     0.321072038  0.321072038  0.321072038

  position of ions in fractional coordinates (direct lattice)
     0.000000000  0.000000000  0.000000000
     0.750000000  0.750000000  0.750000000

  ion indices of the primitive-cell ions
   primitive index   ion index
                 1           1
                 2           5

----------------------------------------------------------------------------------------

 
 
 KPOINTS: Automatic mesh                          

Automatic generation of k-mesh.
 Grid dimensions read from file:
 generate k-points for:    5    5    5

 Generating k-lattice:

  Cartesian coordinates                     Fractional coordinates (reciprocal lattice)
     0.037074205  0.000000000  0.000000000     0.200000000  0.000000000  0.000000000
     0.000000000  0.037074205  0.000000000     0.000000000  0.200000000  0.000000000
     0.000000000  0.000000000  0.037074205     0.000000000  0.000000000  0.200000000

  Length of vectors
     0.037074205  0.037074205  0.037074205

  Shift w.r.t. Gamma in fractional coordinates (k-lattice)
     0.000000000  0.000000000  0.000000000

 TETIRR: Found     57 inequivalent tetrahedra from      750
 
 Subroutine IBZKPT returns following result:
 ===========================================
 
 Found     10 irreducible k-points:
 
 Following reciprocal coordinates:
            Coordinates               Weight
  0.000000  0.000000  0.000000      1.000000
  0.200000  0.000000  0.000000      6.000000
  0.400000  0.000000  0.000000      6.000000
  0.200000  0.200000  0.000000     12.000000
  0.400000  0.200000  0.000000     24.000000
  0.400000  0.400000  0.000000     12.000000
  0.200000  0.200000  0.200000      8.000000
  0.400000  0.200000  0.200000     24.000000
  0.400000  0.400000  0.200000     24.000000
  0.400000  0.400000  0.400000      8.000000
 
 Following cartesian coordinates:
            Coordinates               Weight
  0.000000  0.000000  0.000000      1.000000
  0.166834  0.000000  0.000000      6.000000
  0.333668  0.000000  0.000000      6.000000
  0.166834  0.166834  0.000000     12.000000
  0.333668  0.166834  0.000000     24.000000
  0.333668  0.333668  0.000000     12.000000
  0.166834  0.166834  0.166834      8.000000
  0.333668  0.166834  0.166834     24.000000
  0.333668  0.333668  0.166834     24.000000
  0.333668  0.333668  0.333668      8.000000
 


--------------------------------------------------------------------------------------------------------




 Dimension of arrays:
   k-points           NKPTS =     10   k-points in BZ     NKDIM =     10   number of bands    NBANDS=     24
   number of dos      NEDOS =    301   number of ions     NIONS =      8
   non local maximal  LDIM  =      5   non local SUM 2l+1 LMDIM =     13
   total plane-waves  NPLWV =  27000
   max r-space proj   IRMAX =      1   max aug-charges    IRDMAX=  12559
   dimension x,y,z NGX =    30 NGY =   30 NGZ =   30
   dimension x,y,z NGXF=    60 NGYF=   60 NGZF=   60
   support grid    NGXF=    60 NGYF=   60 NGZF=   60
   ions per type =               4   4
   NGX,Y,Z   is equivalent  to a cutoff of   9.25,  9.25,  9.25 a.u.
   NGXF,Y,Z  is equivalent  to a cutoff of  18.49, 18.49, 18.49 a.u.

 SYSTEM =  GaAs                                    
 POSCAR =  cubic gallium arsenide                  

 Startparameter for this run:
   NWRITE =      2    write-flag & timer
   PREC   = normal    normal or accurate (medium, high low for compatibility)
   ISTART =      1    job   : 0-new  1-cont  2-samecut
   ICHARG =      0    charge: 1-file 2-atom 10-const
   ISPIN  =      1    spin polarized calculation?
   LNONCOLLINEAR =      F non collinear calculations
   LSORBIT =      F    spin-orbit coupling
   INIWAV =      1    electr: 0-lowe 1-rand  2-diag
   LASPH  =      F    aspherical Exc in radial PAW
 Electronic Relaxation 1
   ENCUT  =  500.0 eV  36.75 Ry    6.06 a.u.   9.84  9.84  9.84*2*pi/ulx,y,z
   ENINI  =  500.0     initial cutoff
   ENAUG  =  462.8 eV  augmentation charge cutoff
   NELM   =     60;   NELMIN=  2; NELMDL=  0     # of ELM steps 
   EDIFF  = 0.1E-03   stopping-criterion for ELM
   LREAL  =      F    real-space projection
   NLSPLINE    = F    spline interpolate recip. space projectors
   LCOMPAT=      F    compatible to vasp.4.4
   GGA_COMPAT  = T    GGA compatible to vasp.4.4-vasp.4.6
   LMAXPAW     = -100 max onsite density
   LMAXMIX     =    2 max onsite mixed and CHGCAR
   VOSKOWN=      0    Vosko Wilk Nusair interpolation
   ROPT   =    0.00000   0.00000
 Ionic relaxation
   EDIFFG = 0.1E-02   stopping-criterion for IOM
   NSW    =      0    number of steps for IOM
   NBLOCK =      1;   KBLOCK =      1    inner block; outer block 
   IBRION =     -1    ionic relax: 0-MD 1-quasi-New 2-CG
   NFREE  =      1    steps in history (QN), initial steepest desc. (CG)
   ISIF   =      2    stress and relaxation
   IWAVPR =     10    prediction:  0-non 1-charg 2-wave 3-comb
   ISYM   =      2    0-nonsym 1-usesym 2-fastsym
   LCORR  =      T    Harris-Foulkes like correction to forces

   POTIM  = 0.5000    time-step for ionic-motion
   TEIN   =    0.0    initial temperature
   TEBEG  =    0.0;   TEEND  =   0.0 temperature during run
   SMASS  =  -3.00    Nose mass-parameter (am)
   estimated Nose-frequenzy (Omega)   =  0.10E-29 period in steps = 0.13E+47 mass=  -0.665E-27a.u.
   SCALEE = 1.0000    scale energy and forces
   NPACO  =    256;   APACO  = 10.0  distance and # of slots for P.C.
   PSTRESS=    0.0 pullay stress

  Mass of Ions in am
   POMASS =  74.92 69.72
  Ionic Valenz
   ZVAL   =   5.00  3.00
  Atomic Wigner-Seitz radii
   RWIGS  =  -1.00 -1.00
  virtual crystal weights 
   VCA    =   1.00  1.00
   NELECT =      32.0000    total number of electrons
   NUPDOWN=      -1.0000    fix difference up-down

 DOS related values:
   EMIN   =  10.00;   EMAX   =-10.00  energy-range for DOS
   EFERMI =   0.00;   METHOD = LEGACY      
   ISMEAR =    -5;   SIGMA  =   0.10  broadening in eV -4-tet -1-fermi 0-gaus

 Electronic relaxation 2 (details)
   IALGO  =     38    algorithm
   LDIAG  =      T    sub-space diagonalisation (order eigenvalues)
   LSUBROT=      F    optimize rotation matrix (better conditioning)
   TURBO    =      0    0=normal 1=particle mesh
   IRESTART =      0    0=no restart 2=restart with 2 vectors
   NREBOOT  =      0    no. of reboots
   NMIN     =      0    reboot dimension
   EREF     =   0.00    reference energy to select bands
   IMIX   =      4    mixing-type and parameters
     AMIX     =   0.40;   BMIX     =  1.00
     AMIX_MAG =   1.60;   BMIX_MAG =  1.00
     AMIN     =   0.10
     WC   =   100.;   INIMIX=   1;  MIXPRE=   1;  MAXMIX= -45

 Intra band minimization:
   WEIMIN = 0.0000     energy-eigenvalue tresh-hold
   EBREAK =  0.10E-05  absolut break condition
   DEPER  =   0.30     relativ break condition  

   TIME   =   0.40     timestep for ELM

  volume/ion in A,a.u.               =      19.62       132.43
  Fermi-wavevector in a.u.,A,eV,Ry     =   0.963459  1.820674 12.629658  0.928254
  Thomas-Fermi vector in A             =   2.093006
 
 Write flags
   LWAVE        =      T    write WAVECAR
   LDOWNSAMPLE  =      F    k-point downsampling of WAVECAR
   LCHARG       =      T    write CHGCAR
   LVTOT        =      F    write LOCPOT, total local potential
   LVHAR        =      F    write LOCPOT, Hartree potential only
   WRT_POTENTIAL= false  ! write potential to hdf5 file
   LELF         =      F    write electronic localiz. function (ELF)
   LORBIT       =      0    0 simple, 1 ext, 2 COOP (PROOUT), +10 PAW based schemes


 Dipole corrections
   LMONO      =      F    monopole corrections only (constant potential shift)
   LDIPOL     =      F    correct potential (dipole corrections)
   IDIPOL     =      0    1-x, 2-y, 3-z, 4-all directions 
   EPSILON    =  1.0000000 bulk dielectric constant
   LVACPOTAV  =      F  vacuum potentials using an averaging scheme for the charge density
   VACPOTFLAT =  0.1000000 required flatness to determine vacuum potential
 Exchange correlation treatment:
   GGA     = PE    functional components
   XC_C    = 1    coefficients multiplying the functional components
   LIBXC   =     F    Libxc                    
   VOSKOWN =     0    Vosko Wilk Nusair interpolation
   LHFCALC =     F    Hartree Fock is set to
   LHFONE  =     F    Hartree Fock one center treatment
   AEXX    =    0.0000 exact exchange contribution

 Parameters of functionals:
   PE:
     No parameter
 
 Van der Waals corrections
   IVDW    =     0    specifies the selected vdW correction

 Linear response parameters
   LEPSILON=     F    determine dielectric tensor
   LRPA    =     F    only Hartree local field effects (RPA)
   LNABLA  =     F    use nabla operator in PAW spheres
   LVEL    =     F    velocity operator in full k-point grid
   CSHIFT  =0.1000    complex shift for real part using Kramers Kronig
   OMEGAMAX=  -1.0    maximum frequency
   DEG_THRESHOLD= 0.2000000E-02 threshold for treating states as degnerate
   RTIME   =   -0.100 relaxation time in fs
  (WPLASMAI=    0.000 imaginary part of plasma frequency in eV, 0.658/RTIME)
   DFIELD  = 0.0000000 0.0000000 0.0000000 field for delta impulse in time
 
  Optional k-point grid parameters
   LKPOINTS_OPT  =     F    use optional k-point grid
   KPOINTS_OPT_MODE=     1    mode for optional k-point grid
 
 Orbital magnetization related:
   ORBITALMAG=     F  switch on orbital magnetization
   LCHIMAG   =     F  perturbation theory with respect to B field
   DQ        =  0.001000  dq finite difference perturbation B field
   LLRAUG    =     F  two centre corrections for induced B field
   LBONE     =     F  B-component reconstruction in AE one-centre
   LVGVCALC  =     T  calculate vGv susceptibility
   LVGVAPPL  =     F  apply vGv susceptibility instead of pGv for G=0

 Random number generation:
   RANDOM_GENERATOR = DEFAULT
   PCG_SEED         = not used


--------------------------------------------------------------------------------------------------------


 Static calculation
 charge density and potential will be updated during run
 non-spin polarized calculation
 Variant of blocked Davidson
 Davidson routine will perform the subspace rotation
 perform sub-space diagonalisation
    after iterative eigenvector-optimisation
 modified Broyden-mixing scheme, WC =      100.0
 initial mixing is a Kerker type mixing with AMIX =  0.4000 and BMIX =      1.0000
 Hartree-type preconditioning will be used
 using additional bands            8
 reciprocal scheme for non local part
 use partial core corrections
 calculate Harris-corrections to forces 
   (improved forces if not selfconsistent)
 use gradient corrections 
 use of overlap-Matrix (Vanderbilt PP)
 Fermi weights with tetrahedron method with Bloechl corrections


--------------------------------------------------------------------------------------------------------


  energy-cutoff  :      500.00
  volume of cell :      156.99
      direct lattice vectors                 reciprocal lattice vectors
     5.394586276  0.000000000  0.000000000     0.185371027  0.000000000  0.000000000
     0.000000000  5.394586276  0.000000000     0.000000000  0.185371027  0.000000000
     0.000000000  0.000000000  5.394586276     0.000000000  0.000000000  0.185371027

  length of vectors
     5.394586276  5.394586276  5.394586276     0.185371027  0.185371027  0.185371027


 
 old parameters found on file WAVECAR:
  energy-cutoff  :      500.00
  volume of cell :      169.52
      direct lattice vectors                 reciprocal lattice vectors
     5.534407977  0.000000000  0.000000000     0.180687800  0.000000000  0.000000000
     0.000000000  5.534407977  0.000000000     0.000000000  0.180687800  0.000000000
     0.000000000  0.000000000  5.534407977     0.000000000  0.000000000  0.180687800

  length of vectors

 
 k-points in units of 2pi/SCALE and weight: Automatic mesh                          
   0.00000000  0.00000000  0.00000000       0.008
   0.16683392  0.00000000  0.00000000       0.048
   0.33366785  0.00000000  0.00000000       0.048
   0.16683392  0.16683392  0.00000000       0.096
   0.33366785  0.16683392  0.00000000       0.192
   0.33366785  0.33366785  0.00000000       0.096
   0.16683392  0.16683392  0.16683392       0.064
   0.33366785  0.16683392  0.16683392       0.192
   0.33366785  0.33366785  0.16683392       0.192
   0.33366785  0.33366785  0.33366785       0.064
 
 k-points in reciprocal lattice and weights: Automatic mesh                          
   0.00000000  0.00000000  0.00000000       0.008
   0.20000000  0.00000000  0.00000000       0.048
   0.40000000  0.00000000  0.00000000       0.048
   0.20000000  0.20000000  0.00000000       0.096
   0.40000000  0.20000000  0.00000000       0.192
   0.40000000  0.40000000  0.00000000       0.096
   0.20000000  0.20000000  0.20000000       0.064
   0.40000000  0.20000000  0.20000000       0.192
   0.40000000  0.40000000  0.20000000       0.192
   0.40000000  0.40000000  0.40000000       0.064
 
 position of ions in fractional coordinates (direct lattice) 
   0.00000000  0.00000000  0.00000000
   0.50000000  0.50000000  0.00000000
   0.50000000  0.00000000  0.50000000
   0.00000000  0.50000000  0.50000000
   0.25000000  0.25000000  0.25000000
   0.75000000  0.25000000  0.75000000
   0.75000000  0.75000000  0.25000000
   0.25000000  0.75000000  0.75000000
 
 position of ions in cartesian coordinates  (Angst):
   0.00000000  0.00000000  0.00000000
   2.69729314  2.69729314  0.00000000
   2.69729314  0.00000000  2.69729314
   0.00000000  2.69729314  2.69729314
   1.34864657  1.34864657  1.34864657
   4.04593971  1.34864657  4.04593971
   4.04593971  4.04593971  1.34864657
   1.34864657  4.04593971  4.04593971
 


--------------------------------------------------------------------------------------------------------


 k-point     1 :   0.0000 0.0000 0.0000  plane waves:    3911
 k-point     2 :   0.2000 0.0000 0.0000  plane waves:    3956
 k-point     3 :   0.4000 0.0000 0.0000  plane waves:    4004
 k-point     4 :   0.2000 0.2000 0.0000  plane waves:    3986
 k-point     5 :   0.4000 0.2000 0.0000  plane waves:    3973
 k-point     6 :   0.4000 0.4000 0.0000  plane waves:    4016
 k-point     7 :   0.2000 0.2000 0.2000  plane waves:    4001
 k-point     8 :   0.4000 0.2000 0.2000  plane waves:    3972
 k-point     9 :   0.4000 0.4000 0.2000  plane waves:    3992
 k-point    10 :   0.4000 0.4000 0.4000  plane waves:    3999

 maximum and minimum number of plane-waves per node :      4016     3911

 maximum number of plane-waves:      4016
 maximum index in each direction: 
   IXMAX=    9   IYMAX=    9   IZMAX=    9
   IXMIN=  -10   IYMIN=  -10   IZMIN=  -10


 serial   3D FFT for wavefunctions
 parallel 3D FFT for charge:
    minimum data exchange during FFTs selected (reduces bandwidth)


 total amount of memory used by VASP MPI-rank0    44749. kBytes
=======================================================================

   base      :      30000. kBytes
   nonl-proj :       8867. kBytes
   fftplans  :       1096. kBytes
   grid      :       2745. kBytes
   one-center:         64. kBytes
   wavefun   :       1977. kBytes
 
     INWAV:  cpu time      0.0303: real time      0.0399
 Broyden mixing: mesh for mixing (old mesh)
   NGX = 19   NGY = 19   NGZ = 19
  (NGX  = 60   NGY  = 60   NGZ  = 60)
  gives a total of   6859 points

 charge density for first step will be calculated from the start-wavefunctions


--------------------------------------------------------------------------------------------------------


 Maximum index for augmentation-charges         1496 (set IRDMAX)


--------------------------------------------------------------------------------------------------------


 initial charge from wavefunction
 First call to EWALD:  gamma=   0.329
 Maximum number of real-space cells 3x 3x 3
 Maximum number of reciprocal cells 3x 3x 3

    FEWALD:  cpu time      0.0010: real time      0.0010


--------------------------------------- Ionic step        1  -------------------------------------------




--------------------------------------- Iteration      1(   1)  ---------------------------------------


    POTLOK:  cpu time      0.0140: real time      0.0172
    SETDIJ:  cpu time      0.0020: real time      0.0020
     EDDAV:  cpu time      0.2514: real time      0.2658
 BZINTS: Fermi energy:    4.293587;   32.000000 electrons
         Band energy:-0.519010E+02;  BLOECHL correction:    0.000000
       DOS:  cpu time      0.0004: real time      0.0004
    CHARGE:  cpu time      0.0125: real time      0.0126
    MIXING:  cpu time      0.0005: real time      0.0005
    --------------------------------------------
      LOOP:  cpu time      0.2808: real time      0.2986

 eigenvalue-minimisations  :   544
 total energy-change (2. order) :-0.3156599E+02  (-0.5246695E+00)
 number of electron      32.0000031 magnetization 
 augmentation part       -5.1899900 magnetization 

 Broyden mixing:
  rms(total) = 0.33428E+00    rms(broyden)= 0.33428E+00
  rms(prec ) = 0.47453E+00
  weight for this iteration     100.00

 Free energy of the ion-electron system (eV)
  ---------------------------------------------------
  alpha Z        PSCENC =        87.16335773
  Ewald energy   TEWEN  =      -960.64702428
  -Hartree energ DENC   =       -80.91886940
  -exchange      EXHF   =         0.00000000
  -V(xc)+E(xc)   XCENC  =      -119.52108153
  PAW double counting   =      2160.53351374    -1982.49455101
  entropy T*S    EENTRO =         0.00000000
  eigenvalues    EBANDS =       -51.90096914
  atomic energy  EATOM  =       916.21963040
  Solvation  Ediel_sol  =         0.00000000
  ---------------------------------------------------
  free energy    TOTEN  =       -31.56599349 eV

  energy without entropy =      -31.56599349  energy(sigma->0) =      -31.56599349


--------------------------------------------------------------------------------------------------------




--------------------------------------- Iteration      1(   2)  ---------------------------------------


    POTLOK:  cpu time      0.0141: real time      0.0152
    SETDIJ:  cpu time      0.0019: real time      0.0019
     EDDAV:  cpu time      0.2333: real time      0.2453
 BZINTS: Fermi energy:    4.140263;   32.000000 electrons
         Band energy:-0.551537E+02;  BLOECHL correction:    0.000000
       DOS:  cpu time      0.0004: real time      0.0004
    CHARGE:  cpu time      0.0123: real time      0.0125
    MIXING:  cpu time      0.0005: real time      0.0005
    --------------------------------------------
      LOOP:  cpu time      0.2625: real time      0.2757

 eigenvalue-minimisations  :   512
 total energy-change (2. order) : 0.1202225E+00  (-0.2998038E-01)
 number of electron      32.0000031 magnetization 
 augmentation part       -5.1937821 magnetization 

 Broyden mixing:
  rms(total) = 0.19873E+00    rms(broyden)= 0.19873E+00
  rms(prec ) = 0.26222E+00
  weight for this iteration     100.00

 eigenvalues of (default mixing * dielectric matrix)
  average eigenvalue GAMMA=   2.2712
  2.2712

 Free energy of the ion-electron system (eV)
  ---------------------------------------------------
  alpha Z        PSCENC =        87.16335773
  Ewald energy   TEWEN  =      -960.64702428
  -Hartree energ DENC   =       -77.69012190
  -exchange      EXHF   =         0.00000000
  -V(xc)+E(xc)   XCENC  =      -119.49605612
  PAW double counting   =      2337.15302967    -2158.99490590
  entropy T*S    EENTRO =         0.00000000
  eigenvalues    EBANDS =       -55.15368060
  atomic energy  EATOM  =       916.21963040
  Solvation  Ediel_sol  =         0.00000000
  ---------------------------------------------------
  free energy    TOTEN  =       -31.44577099 eV

  energy without entropy =      -31.44577099  energy(sigma->0) =      -31.44577099


--------------------------------------------------------------------------------------------------------




--------------------------------------- Iteration      1(   3)  ---------------------------------------


    POTLOK:  cpu time      0.0135: real time      0.0140
    SETDIJ:  cpu time      0.0018: real time      0.0018
     EDDAV:  cpu time      0.2307: real time      0.2423
 BZINTS: Fermi energy:    4.054365;   32.000000 electrons
         Band energy:-0.585057E+02;  BLOECHL correction:    0.000000
       DOS:  cpu time      0.0004: real time      0.0004
    CHARGE:  cpu time      0.0128: real time      0.0130
    MIXING:  cpu time      0.0005: real time      0.0005
    --------------------------------------------
      LOOP:  cpu time      0.2597: real time      0.2720

 eigenvalue-minimisations  :   504
 total energy-change (2. order) : 0.4027245E-01  (-0.1890934E-01)
 number of electron      32.0000032 magnetization 
 augmentation part       -5.2298003 magnetization 

 Broyden mixing:
  rms(total) = 0.27181E-01    rms(broyden)= 0.27181E-01
  rms(prec ) = 0.52755E-01
  weight for this iteration     100.00

 eigenvalues of (default mixing * dielectric matrix)
  average eigenvalue GAMMA=   1.4703
  0.9466  1.9941

 Free energy of the ion-electron system (eV)
  ---------------------------------------------------
  alpha Z        PSCENC =        87.16335773
  Ewald energy   TEWEN  =      -960.64702428
  -Hartree energ DENC   =       -74.51607303
  -exchange      EXHF   =         0.00000000
  -V(xc)+E(xc)   XCENC  =      -119.36755687
  PAW double counting   =      2558.37727601    -2380.12936441
  entropy T*S    EENTRO =         0.00000000
  eigenvalues    EBANDS =       -58.50574409
  atomic energy  EATOM  =       916.21963040
  Solvation  Ediel_sol  =         0.00000000
  ---------------------------------------------------
  free energy    TOTEN  =       -31.40549854 eV

  energy without entropy =      -31.40549854  energy(sigma->0) =      -31.40549854


--------------------------------------------------------------------------------------------------------




--------------------------------------- Iteration      1(   4)  ---------------------------------------


    POTLOK:  cpu time      0.0138: real time      0.0144
    SETDIJ:  cpu time      0.0018: real time      0.0019
     EDDAV:  cpu time      0.2233: real time      0.2345
 BZINTS: Fermi energy:    4.062903;   32.000000 electrons
         Band energy:-0.581089E+02;  BLOECHL correction:    0.000000
       DOS:  cpu time      0.0004: real time      0.0004
    CHARGE:  cpu time      0.0125: real time      0.0127
    MIXING:  cpu time      0.0005: real time      0.0005
    --------------------------------------------
      LOOP:  cpu time      0.2523: real time      0.2643

 eigenvalue-minimisations  :   480
 total energy-change (2. order) : 0.2158312E-02  (-0.9395366E-03)
 number of electron      32.0000032 magnetization 
 augmentation part       -5.2291215 magnetization 

 Broyden mixing:
  rms(total) = 0.16496E-01    rms(broyden)= 0.16496E-01
  rms(prec ) = 0.25774E-01
  weight for this iteration     100.00

 eigenvalues of (default mixing * dielectric matrix)
  average eigenvalue GAMMA=   1.6430
  2.2590  1.3350  1.3350

 Free energy of the ion-electron system (eV)
  ---------------------------------------------------
  alpha Z        PSCENC =        87.16335773
  Ewald energy   TEWEN  =      -960.64702428
  -Hartree energ DENC   =       -74.91836389
  -exchange      EXHF   =         0.00000000
  -V(xc)+E(xc)   XCENC  =      -119.33563821
  PAW double counting   =      2548.20443881    -2369.98084996
  entropy T*S    EENTRO =         0.00000000
  eigenvalues    EBANDS =       -58.10889083
  atomic energy  EATOM  =       916.21963040
  Solvation  Ediel_sol  =         0.00000000
  ---------------------------------------------------
  free energy    TOTEN  =       -31.40334023 eV

  energy without entropy =      -31.40334023  energy(sigma->0) =      -31.40334023


--------------------------------------------------------------------------------------------------------




--------------------------------------- Iteration      1(   5)  ---------------------------------------


    POTLOK:  cpu time      0.0138: real time      0.0144
    SETDIJ:  cpu time      0.0019: real time      0.0019
     EDDAV:  cpu time      0.2565: real time      0.2692
 BZINTS: Fermi energy:    4.057399;   32.000000 electrons
         Band energy:-0.582588E+02;  BLOECHL correction:    0.000000
       DOS:  cpu time      0.0004: real time      0.0004
    CHARGE:  cpu time      0.0122: real time      0.0125
    MIXING:  cpu time      0.0005: real time      0.0005
    --------------------------------------------
      LOOP:  cpu time      0.2853: real time      0.2988

 eigenvalue-minimisations  :   584
 total energy-change (2. order) : 0.4937179E-03  (-0.1747433E-03)
 number of electron      32.0000032 magnetization 
 augmentation part       -5.2325161 magnetization 

 Broyden mixing:
  rms(total) = 0.69764E-02    rms(broyden)= 0.69764E-02
  rms(prec ) = 0.72974E-02
  weight for this iteration     100.00

 eigenvalues of (default mixing * dielectric matrix)
  average eigenvalue GAMMA=   1.4602
  1.8505  1.4990  1.4990  0.9923

 Free energy of the ion-electron system (eV)
  ---------------------------------------------------
  alpha Z        PSCENC =        87.16335773
  Ewald energy   TEWEN  =      -960.64702428
  -Hartree energ DENC   =       -74.80238670
  -exchange      EXHF   =         0.00000000
  -V(xc)+E(xc)   XCENC  =      -119.29292175
  PAW double counting   =      2566.50483310    -2388.28950682
  entropy T*S    EENTRO =         0.00000000
  eigenvalues    EBANDS =       -58.25882819
  atomic energy  EATOM  =       916.21963040
  Solvation  Ediel_sol  =         0.00000000
  ---------------------------------------------------
  free energy    TOTEN  =       -31.40284651 eV

  energy without entropy =      -31.40284651  energy(sigma->0) =      -31.40284651


--------------------------------------------------------------------------------------------------------




--------------------------------------- Iteration      1(   6)  ---------------------------------------


    POTLOK:  cpu time      0.0138: real time      0.0144
    SETDIJ:  cpu time      0.0018: real time      0.0018
     EDDAV:  cpu time      0.1776: real time      0.1868
 BZINTS: Fermi energy:    4.057969;   32.000000 electrons
         Band energy:-0.582312E+02;  BLOECHL correction:    0.000000
       DOS:  cpu time      0.0004: real time      0.0004
    --------------------------------------------
      LOOP:  cpu time      0.1936: real time      0.2034

 eigenvalue-minimisations  :   304
 total energy-change (2. order) :-0.9069289E-05  (-0.6286782E-05)
 number of electron      32.0000032 magnetization 
 augmentation part       -5.2325161 magnetization 

 Free energy of the ion-electron system (eV)
  ---------------------------------------------------
  alpha Z        PSCENC =        87.16335773
  Ewald energy   TEWEN  =      -960.64702428
  -Hartree energ DENC   =       -74.82592492
  -exchange      EXHF   =         0.00000000
  -V(xc)+E(xc)   XCENC  =      -119.29472517
  PAW double counting   =      2561.51016942    -2383.29713793
  entropy T*S    EENTRO =         0.00000000
  eigenvalues    EBANDS =       -58.23120084
  atomic energy  EATOM  =       916.21963040
  Solvation  Ediel_sol  =         0.00000000
  ---------------------------------------------------
  free energy    TOTEN  =       -31.40285558 eV

  energy without entropy =      -31.40285558  energy(sigma->0) =      -31.40285558


--------------------------------------------------------------------------------------------------------




 average (electrostatic) potential at core
  the test charge radii are     1.0621  1.2767
  (the norm of the test charge is              1.0000)
       1 -50.3821       2 -50.3821       3 -50.3821       4 -50.3821       5 -13.4850
       6 -13.4850       7 -13.4850       8 -13.4850
 
 
 
 E-fermi :   4.0580     XC(G=0):  -9.7724     alpha+bet : -9.8531

 val. band max:        4.0145196368   @ k =   0.0000   0.0000   0.0000
 cond. band min:       5.1752849280   @ k =   0.0000   0.0000   0.0000
 fundamental gap:      1.1607652912
 Fermi energy:         4.0579694520

 k-point     1 :       0.0000    0.0000    0.0000
  band No.  band energies     occupation 
      1      -9.8028      2.00000
      2      -6.8418      2.00000
      3      -6.8418      2.00000
      4      -6.8418      2.00000
      5      -3.4873      2.00000
      6      -3.4873      2.00000
      7      -3.4873      2.00000
      8       0.8065      2.00000
      9       0.8065      2.00000
     10       0.8065      2.00000
     11       0.8065      2.00000
     12       0.8065      2.00000
     13       0.8065      2.00000
     14       4.0145      2.00000
     15       4.0145      2.00000
     16       4.0145      2.00000
     17       5.1753      0.00000
     18       5.1753      0.00000
     19       5.1753      0.00000
     20       5.5741      0.00000
     21       5.5741      0.00000
     22       5.5741      0.00000
     23       5.7149      0.00000
     24       7.8017      0.00000

 k-point     2 :       0.2000    0.0000    0.0000
  band No.  band energies     occupation 
      1      -9.6323      2.00000
      2      -7.3962      2.00000
      3      -6.8166      2.00000
      4      -6.8166      2.00000
      5      -3.4023      2.00000
      6      -3.4023      2.00000
      7      -2.7049      2.00000
      8       0.3939      2.00000
      9       0.3939      2.00000
     10       0.4645      2.00000
     11       0.4645      2.00000
     12       0.9969      2.00000
     13       0.9969      2.00000
     14       2.6527      2.00000
     15       3.4358      2.00000
     16       3.4358      2.00000
     17       5.2093      0.00000
     18       6.0221      0.00000
     19       6.0347      0.00000
     20       6.0347      0.00000
     21       6.4452      0.00000
     22       6.4452      0.00000
     23       6.9473      0.00000
     24       7.3115      0.00000

 k-point     3 :       0.4000    0.0000    0.0000
  band No.  band energies     occupation 
      1      -9.1306      2.00000
      2      -8.3393      2.00000
      3      -6.7745      2.00000
      4      -6.7745      2.00000
      5      -3.2425      2.00000
      6      -3.2425      2.00000
      7      -1.0976      2.00000
      8      -0.1771      2.00000
      9      -0.1771      2.00000
     10       0.0258      2.00000
     11       0.0258      2.00000
     12       0.7521      2.00000
     13       1.5537      2.00000
     14       1.5537      2.00000
     15       2.4219      2.00000
     16       2.4219      2.00000
     17       5.5665      0.00000
     18       6.2859      0.00000
     19       7.0405      0.00000
     20       7.9653      0.00000
     21       7.9914      0.00000
     22       7.9914      0.00000
     23       8.4337      0.00000
     24       8.4337      0.00000

 k-point     4 :       0.2000    0.2000    0.0000
  band No.  band energies     occupation 
      1      -9.4651      2.00000
      2      -7.3193      2.00000
      3      -7.3193      2.00000
      4      -6.8408      2.00000
      5      -3.3219      2.00000
      6      -2.7516      2.00000
      7      -2.7516      2.00000
      8      -0.3957      2.00000
      9       0.4884      2.00000
     10       0.4884      2.00000
     11       0.8442      2.00000
     12       0.8442      2.00000
     13       1.1265      2.00000
     14       1.5092      2.00000
     15       2.8357      2.00000
     16       3.8130      2.00000
     17       5.6773      0.00000
     18       6.1232      0.00000
     19       6.1232      0.00000
     20       6.8014      0.00000
     21       6.8014      0.00000
     22       6.8759      0.00000
     23       7.9363      0.00000
     24       8.1044      0.00000

 k-point     5 :       0.4000    0.2000    0.0000
  band No.  band energies     occupation 
      1      -8.9753      2.00000
      2      -8.2103      2.00000
      3      -7.1315      2.00000
      4      -6.9424      2.00000
      5      -3.1278      2.00000
      6      -2.9077      2.00000
      7      -1.4403      2.00000
      8      -0.6884      2.00000
      9      -0.3050      2.00000
     10       0.0141      2.00000
     11       0.7840      2.00000
     12       0.9773      2.00000
     13       1.0485      2.00000
     14       1.7340      2.00000
     15       1.8158      2.00000
     16       2.9413      2.00000
     17       6.5151      0.00000
     18       6.8453      0.00000
     19       7.1961      0.00000
     20       7.6433      0.00000
     21       7.8307      0.00000
     22       8.0904      0.00000
     23       8.6444      0.00000
     24       9.3086      0.00000

 k-point     6 :       0.4000    0.4000    0.0000
  band No.  band energies     occupation 
      1      -8.5270      2.00000
      2      -7.8528      2.00000
      3      -7.8528      2.00000
      4      -7.3681      2.00000
      5      -2.7550      2.00000
      6      -2.1329      2.00000
      7      -2.1329      2.00000
      8      -1.1213      2.00000
      9      -0.6020      2.00000
     10       0.0414      2.00000
     11       0.0414      2.00000
     12       0.8142      2.00000
     13       1.9936      2.00000
     14       2.0627      2.00000
     15       2.0627      2.00000
     16       3.0737      2.00000
     17       6.5602      0.00000
     18       7.2972      0.00000
     19       7.7621      0.00000
     20       7.7621      0.00000
     21       8.6714      0.00000
     22       8.6714      0.00000
     23       9.1918      0.00000
     24       9.3231      0.00000

 k-point     7 :       0.2000    0.2000    0.2000
  band No.  band energies     occupation 
      1      -9.3022      2.00000
      2      -7.2765      2.00000
      3      -7.2765      2.00000
      4      -7.2765      2.00000
      5      -2.8668      2.00000
      6      -2.8668      2.00000
      7      -2.8668      2.00000
      8       0.0175      2.00000
      9       0.0175      2.00000
     10       0.0175      2.00000
     11       0.5150      2.00000
     12       1.3016      2.00000
     13       1.3016      2.00000
     14       1.3016      2.00000
     15       3.3971      2.00000
     16       3.3971      2.00000
     17       5.8914      0.00000
     18       5.8914      0.00000
     19       5.8914      0.00000
     20       6.1832      0.00000
     21       8.1450      0.00000
     22       8.1450      0.00000
     23       8.1450      0.00000
     24       8.6122      0.00000

 k-point     8 :       0.4000    0.2000    0.2000
  band No.  band energies     occupation 
      1      -8.8276      2.00000
      2      -8.0972      2.00000
      3      -7.2030      2.00000
      4      -7.2030      2.00000
      5      -3.0749      2.00000
      6      -3.0749      2.00000
      7      -1.9296      2.00000
      8      -0.7928      2.00000
      9      -0.1673      2.00000
     10      -0.1673      2.00000
     11       1.1441      2.00000
     12       1.3181      2.00000
     13       1.3181      2.00000
     14       1.8075      2.00000
     15       2.5710      2.00000
     16       2.5911      2.00000
     17       6.4579      0.00000
     18       6.7080      0.00000
     19       7.0247      0.00000
     20       7.0247      0.00000
     21       8.1978      0.00000
     22       8.5962      0.00000
     23       9.1716      0.00000
     24       9.1716      0.00000

 k-point     9 :       0.4000    0.4000    0.2000
  band No.  band energies     occupation 
      1      -8.4071      2.00000
      2      -7.7987      2.00000
      3      -7.7987      2.00000
      4      -7.4438      2.00000
      5      -3.1237      2.00000
      6      -2.6924      2.00000
      7      -2.6924      2.00000
      8      -1.8906      2.00000
      9       0.2519      2.00000
     10       0.8210      2.00000
     11       0.8210      2.00000
     12       1.7648      2.00000
     13       2.1030      2.00000
     14       2.1474      2.00000
     15       2.1474      2.00000
     16       2.9891      2.00000
     17       6.5195      0.00000
     18       6.6606      0.00000
     19       7.1792      0.00000
     20       7.1792      0.00000
     21       8.2421      0.00000
     22       8.2421      0.00000
     23       8.8615      0.00000
     24       8.9029      0.00000

 k-point    10 :       0.4000    0.4000    0.4000
  band No.  band energies     occupation 
      1      -8.0880      2.00000
      2      -7.7041      2.00000
      3      -7.7041      2.00000
      4      -7.7041      2.00000
      5      -3.3012      2.00000
      6      -3.3012      2.00000
      7      -3.3012      2.00000
      8      -2.8376      2.00000
      9       1.7958      2.00000
     10       1.7958      2.00000
     11       1.7958      2.00000
     12       2.3906      2.00000
     13       2.3906      2.00000
     14       2.3906      2.00000
     15       2.7366      2.00000
     16       2.7366      2.00000
     17       5.5708      0.00000
     18       6.3048      0.00000
     19       6.3048      0.00000
     20       6.3048      0.00000
     21       8.3968      0.00000
     22       8.3968      0.00000
     23       8.3968      0.00000
     24       8.7605      0.00000


--------------------------------------------------------------------------------------------------------


 soft charge-density along one line, spin component           1
         0         1         2         3         4         5         6         7         8         9
 total charge-density along one line
 
 pseudopotential strength for first ion, spin component:           1
 23.361  27.921  -0.000  -0.000   0.000   0.000   0.000  -0.000
 27.921  33.378  -0.000  -0.000   0.000   0.000   0.000  -0.000
 -0.000  -0.000   5.507   0.000   0.000 -10.896  -0.000  -0.000
 -0.000  -0.000   0.000   5.507   0.000  -0.000 -10.896  -0.000
  0.000   0.000   0.000   0.000   5.507  -0.000  -0.000 -10.896
  0.000   0.000 -10.896  -0.000  -0.000  22.120   0.000   0.000
  0.000   0.000  -0.000 -10.896  -0.000   0.000  22.120   0.000
 -0.000  -0.000  -0.000  -0.000 -10.896   0.000   0.000  22.120
  0.000   0.000   0.000   0.003  -0.000  -0.000  -0.005   0.000
  0.000   0.000  -0.000  -0.000   0.003   0.000   0.000  -0.005
  0.000   0.000   0.000  -0.000  -0.000  -0.000   0.000   0.000
  0.000   0.000   0.003   0.000  -0.000  -0.005  -0.000   0.000
 -0.000  -0.000   0.000  -0.000   0.000  -0.000   0.000  -0.000
 total augmentation occupancy for first ion, spin component:           1
  6.249  -2.890   0.000  -0.000  -0.000  -0.000  -0.000   0.000   0.000   0.000  -0.000  -0.000   0.000
 -2.890   1.688  -0.000  -0.000   0.000   0.000   0.000  -0.000   0.000   0.000   0.000   0.000   0.000
  0.000   0.000   1.599  -0.000  -0.000   0.068  -0.000   0.000   0.000   0.000   0.000   0.115  -0.000
 -0.000   0.000  -0.000   1.599  -0.000  -0.000   0.068   0.000   0.115   0.000  -0.000   0.000   0.000
  0.000  -0.000  -0.000   0.000   1.599   0.000  -0.000   0.068  -0.000   0.115  -0.000   0.000   0.000
 -0.000   0.000   0.068  -0.000  -0.000   0.004   0.000  -0.000   0.000  -0.000  -0.000   0.005  -0.000
  0.000  -0.000   0.000   0.068   0.000  -0.000   0.004   0.000   0.005  -0.000  -0.000   0.000   0.000
  0.000  -0.000   0.000  -0.000   0.068  -0.000   0.000   0.004  -0.000   0.005   0.000  -0.000  -0.000
  0.000   0.000  -0.000   0.115  -0.000   0.000   0.005  -0.000   0.018  -0.000   0.000  -0.000  -0.000
 -0.000   0.000   0.000  -0.000   0.115   0.000   0.000   0.005   0.000   0.018   0.000  -0.000   0.000
 -0.000   0.000   0.000  -0.000  -0.000  -0.000   0.000  -0.000   0.000   0.000   0.006   0.000   0.000
 -0.000   0.000   0.115   0.000   0.000   0.005   0.000   0.000   0.000  -0.000   0.000   0.018   0.000
 -0.000   0.000  -0.000  -0.000   0.000   0.000   0.000  -0.000   0.000   0.000   0.000  -0.000   0.006


------------------------ aborting loop because EDIFF is reached ----------------------------------------


    CHARGE:  cpu time      0.0122: real time      0.0125
    FORLOC:  cpu time      0.0009: real time      0.0009
    FORNL :  cpu time      0.0494: real time      0.0498
    STRESS:  cpu time      0.2874: real time      0.2891
    FORCOR:  cpu time      0.0137: real time      0.0140
    FORHAR:  cpu time      0.0034: real time      0.0036
    MIXING:  cpu time      0.0005: real time      0.0005
    OFIELD:  cpu time      0.0000: real time      0.0000

  FORCE on cell =-STRESS in cart. coord.  units (eV):
  Direction    XX          YY          ZZ          XY          YZ          ZX
  --------------------------------------------------------------------------------------
  Alpha Z    87.16336    87.16336    87.16336
  Ewald    -320.21618  -320.21618  -320.21618    -0.00000     0.00000    -0.00000
  Hartree    24.93477    24.93477    24.93477    -0.00000    -0.00000    -0.00000
  E(xc)    -124.87466  -124.87466  -124.87466    -0.00000    -0.00000    -0.00000
  Local    -117.79770  -117.79770  -117.79770    -0.00000     0.00000    -0.00000
  n-local   189.19836   191.10249   188.19008    -2.03872    -1.16913    -0.96490
  augment     8.46605     8.46605     8.46605     0.00000     0.00000     0.00000
  Kinetic   265.01843   276.42042   274.42515    -4.80481    -4.68245    -3.06236
  Fock        0.00000     0.00000     0.00000     0.00000     0.00000     0.00000
  -------------------------------------------------------------------------------------
  Total      19.12729    19.12729    19.12729     0.00000    -0.00000     0.00000
  in kB     195.20437   195.20437   195.20437     0.00000    -0.00000     0.00000
  external pressure =      195.20 kB  Pullay stress =        0.00 kB


 VOLUME and BASIS-vectors are now :
 -----------------------------------------------------------------------------
  energy-cutoff  :      500.00
  volume of cell :      156.99
      direct lattice vectors                 reciprocal lattice vectors
     5.394586276  0.000000000  0.000000000     0.185371027  0.000000000  0.000000000
     0.000000000  5.394586276  0.000000000     0.000000000  0.185371027  0.000000000
     0.000000000  0.000000000  5.394586276     0.000000000  0.000000000  0.185371027

  length of vectors
     5.394586276  5.394586276  5.394586276     0.185371027  0.185371027  0.185371027


 FORCES acting on ions
    electron-ion (+dipol)            ewald-force                    non-local-force                 convergence-correction
 -----------------------------------------------------------------------------------------------
   0.283E-13 0.739E-14 0.129E-13   0.355E-14 -.355E-14 -.355E-14   0.111E-16 -.180E-16 0.235E-16   0.397E-16 -.786E-14 -.108E-13
   0.480E-13 0.280E-12 -.224E-12   0.355E-14 0.355E-14 -.355E-14   -.142E-16 -.313E-16 0.187E-16   -.487E-14 0.460E-14 -.109E-13
   0.533E-13 0.110E-13 -.213E-13   0.355E-14 -.355E-14 -.355E-14   0.147E-16 0.923E-17 0.977E-17   -.488E-14 -.807E-14 0.266E-14
   0.284E-13 0.668E-14 0.158E-13   0.355E-14 0.355E-14 -.355E-14   0.316E-16 -.340E-17 0.188E-16   0.241E-15 0.496E-14 0.296E-14
   0.718E-14 -.464E-13 0.229E-13   -.333E-14 -.225E-15 0.328E-14   -.140E-17 0.215E-17 0.229E-17   -.306E-14 -.340E-15 -.105E-14
   -.169E-14 0.132E-12 0.164E-12   -.398E-14 -.239E-15 0.201E-15   0.573E-17 0.135E-17 0.722E-18   0.113E-14 -.313E-15 -.122E-14
   0.426E-14 0.170E-13 0.241E-12   -.274E-14 0.290E-15 0.338E-14   0.398E-17 -.139E-17 0.148E-17   0.107E-14 0.805E-16 -.951E-15
   0.922E-14 -.925E-14 0.198E-13   -.415E-14 0.276E-15 0.306E-15   0.344E-18 -.140E-17 0.458E-18   -.312E-14 -.586E-16 -.142E-14
 -----------------------------------------------------------------------------------------------
   0.177E-12 0.398E-12 0.231E-12   0.105E-16 0.101E-15 -.704E-14   0.517E-16 -.428E-16 0.757E-16   -.135E-13 -.700E-14 -.207E-13
 
 
 POSITION                                       TOTAL-FORCE (eV/Angst)
 -----------------------------------------------------------------------------------
      0.00000      0.00000      0.00000         0.000000      0.000000      0.000000
      2.69729      2.69729      0.00000         0.000000     -0.000000     -0.000000
      2.69729      0.00000      2.69729         0.000000     -0.000000      0.000000
      0.00000      2.69729      2.69729        -0.000000      0.000000      0.000000
      1.34865      1.34865      1.34865         0.000000     -0.000000     -0.000000
      4.04594      1.34865      4.04594        -0.000000     -0.000000     -0.000000
      4.04594      4.04594      1.34865        -0.000000      0.000000     -0.000000
      1.34865      4.04594      4.04594         0.000000      0.000000     -0.000000
 -----------------------------------------------------------------------------------
    total drift:                                0.000000      0.000000      0.000000


--------------------------------------------------------------------------------------------------------



  FREE ENERGIE OF THE ION-ELECTRON SYSTEM (eV)
  ---------------------------------------------------
  free  energy   TOTEN  =       -31.40285558 eV

  energy  without entropy=      -31.40285558  energy(sigma->0) =      -31.40285558
 


--------------------------------------------------------------------------------------------------------


    POTLOK:  cpu time      0.0153: real time      0.0157


--------------------------------------------------------------------------------------------------------


 writing wavefunctions
     LOOP+:  cpu time      2.1273: real time      2.2456


--------------------------------------------------------------------------------------------------------



 plasma frequency squared (from intraband transitions) (eV^2)
  --------------------------------------------------------------------------------------
       0.000       0.000       0.000
       0.000       0.000       0.000
       0.000       0.000       0.000

 electrical conductivity sigma (Mega S m-1) (frequency dependency in vasprun.xml)
  --------------------------------------------------------------------------------------
       0.000       0.000       0.000
       0.000       0.000       0.000
       0.000       0.000       0.000

 plasma frequency squared (from interband transitions, int dw w eps(2)(w)) (eV^2)
  --------------------------------------------------------------------------------------
     220.489       0.000      -0.000       0.000      -0.000       0.000
      -0.000       0.000     220.489       0.000       0.000       0.000
      -0.000       0.000       0.000       0.000     220.489       0.000
  --------------------------------------------------------------------------------------
 sumrule: sum of plasma frequencies squared should yield (valence only):     281.060

 Anomalous Hall contribution (eV) 2/pi Imag((f_n-f_m)<u_m| d/dk_a u_n> <u_m| d/dk_b u_n>^*) 
  --------------------------------------------------------------------------------------
       0.000       0.000       0.000
       0.000       0.000       0.000
       0.000       0.000       0.000

  frequency dependent IMAGINARY DIELECTRIC FUNCTION (independent particle, no local field effects) density-density
     E(ev)      X         Y         Z        XY        YZ        ZX
  --------------------------------------------------------------------------------------------------------------
    0.000000    0.000000    0.000000    0.000000    0.000000    0.000000    0.000000
    0.022974    0.002371    0.002371    0.002371   -0.000000    0.000000   -0.000000
    0.045948    0.004743    0.004743    0.004743   -0.000000    0.000000   -0.000000
    0.068923    0.007118    0.007118    0.007118   -0.000000    0.000000   -0.000000
    0.091897    0.009495    0.009495    0.009495   -0.000000    0.000000   -0.000000
    0.114871    0.011877    0.011877    0.011877   -0.000000    0.000000   -0.000000
    0.137845    0.014264    0.014264    0.014264   -0.000000    0.000000   -0.000000
    0.160819    0.016658    0.016658    0.016658   -0.000000    0.000000   -0.000000
    0.183793    0.019059    0.019059    0.019059   -0.000000    0.000000   -0.000000
    0.206768    0.021468    0.021468    0.021468   -0.000000    0.000000   -0.000000
    0.229742    0.023887    0.023887    0.023887   -0.000000    0.000000   -0.000000
    0.252716    0.026317    0.026317    0.026317   -0.000000    0.000000   -0.000000
    0.275690    0.028759    0.028759    0.028759   -0.000000    0.000000   -0.000000
    0.298664    0.031214    0.031214    0.031214   -0.000000    0.000000   -0.000000
    0.321638    0.033683    0.033683    0.033683   -0.000000    0.000000   -0.000000
    0.344613    0.036167    0.036167    0.036167   -0.000000    0.000000   -0.000000
    0.367587    0.038669    0.038669    0.038669   -0.000000    0.000000   -0.000000
    0.390561    0.041188    0.041188    0.041188   -0.000000    0.000000   -0.000000
    0.413535    0.043726    0.043726    0.043726   -0.000000    0.000000   -0.000000
    0.436509    0.046285    0.046285    0.046285   -0.000000    0.000000   -0.000000
    0.459483    0.048865    0.048865    0.048865   -0.000000    0.000000   -0.000000
    0.482458    0.051469    0.051469    0.051469   -0.000000    0.000000   -0.000000
    0.505432    0.054098    0.054098    0.054098   -0.000000    0.000000   -0.000000
    0.528406    0.056752    0.056752    0.056752   -0.000000    0.000000   -0.000000
    0.551380    0.059434    0.059434    0.059434   -0.000000    0.000000   -0.000000
    0.574354    0.062145    0.062145    0.062145   -0.000000    0.000000   -0.000000
    0.597328    0.064887    0.064887    0.064887   -0.000000    0.000000   -0.000000
    0.620303    0.067660    0.067660    0.067660   -0.000000    0.000000   -0.000000
    0.643277    0.070468    0.070468    0.070468   -0.000000    0.000000   -0.000000
    0.666251    0.073312    0.073312    0.073312   -0.000000    0.000000   -0.000000
    0.689225    0.076193    0.076193    0.076193   -0.000000    0.000000   -0.000000
    0.712199    0.079114    0.079114    0.079114   -0.000000    0.000000   -0.000000
    0.735173    0.082076    0.082076    0.082076   -0.000000    0.000000   -0.000000
    0.758148    0.085081    0.085081    0.085081   -0.000000    0.000000   -0.000000
    0.781122    0.088132    0.088132    0.088132   -0.000000    0.000000   -0.000000
    0.804096    0.091231    0.091231    0.091231   -0.000000    0.000000   -0.000000
    0.827070    0.094380    0.094380    0.094380   -0.000000    0.000000   -0.000000
    0.850044    0.097582    0.097582    0.097582   -0.000000    0.000000   -0.000000
    0.873018    0.100839    0.100839    0.100839   -0.000000    0.000000   -0.000000
    0.895993    0.104154    0.104154    0.104154   -0.000000    0.000000   -0.000000
    0.918967    0.107530    0.107530    0.107530   -0.000000    0.000000   -0.000000
    0.941941    0.110969    0.110969    0.110969   -0.000000    0.000000   -0.000000
    0.964915    0.114476    0.114476    0.114476   -0.000000    0.000000   -0.000000
    0.987889    0.118052    0.118052    0.118052   -0.000000    0.000000   -0.000000
    1.010863    0.121703    0.121703    0.121703   -0.000000    0.000000   -0.000000
    1.033838    0.125432    0.125432    0.125432   -0.000000    0.000000   -0.000000
    1.056812    0.129242    0.129242    0.129242   -0.000000    0.000000   -0.000000
    1.079786    0.133138    0.133138    0.133138   -0.000000    0.000000   -0.000000
    1.102760    0.137126    0.137126    0.137126   -0.000000    0.000000   -0.000000
    1.125734    0.141210    0.141210    0.141210   -0.000000    0.000000   -0.000000
    1.148708    0.145395    0.145395    0.145395   -0.000000    0.000000   -0.000000
    1.171683    0.149688    0.149688    0.149688   -0.000000    0.000000   -0.000000
    1.194657    0.154095    0.154095    0.154095   -0.000000    0.000000   -0.000000
    1.217631    0.158623    0.158623    0.158623   -0.000000    0.000000   -0.000000
    1.240605    0.163279    0.163279    0.163279   -0.000000    0.000000   -0.000000
    1.263579    0.168072    0.168072    0.168072   -0.000000    0.000000   -0.000000
    1.286553    0.173009    0.173009    0.173009   -0.000000    0.000000   -0.000000
    1.309528    0.178101    0.178101    0.178101   -0.000000    0.000000   -0.000000
    1.332502    0.183357    0.183357    0.183357   -0.000000    0.000000   -0.000000
    1.355476    0.188789    0.188789    0.188789   -0.000000    0.000000   -0.000000
    1.378450    0.194409    0.194409    0.194409   -0.000000    0.000000   -0.000000
    1.401424    0.200233    0.200233    0.200233   -0.000000    0.000000   -0.000000
    1.424398    0.206276    0.206276    0.206276   -0.000000    0.000000   -0.000000
    1.447373    0.212558    0.212558    0.212558   -0.000000    0.000000   -0.000000
    1.470347    0.219101    0.219101    0.219101   -0.000000    0.000000   -0.000000
    1.493321    0.225935    0.225935    0.225935   -0.000000    0.000000   -0.000000
    1.516295    0.233090    0.233090    0.233090   -0.000000    0.000000   -0.000000
    1.539269    0.240605    0.240605    0.240605   -0.000000    0.000000   -0.000000
    1.562243    0.248527    0.248527    0.248527   -0.000000    0.000000   -0.000000
    1.585218    0.256904    0.256904    0.256904   -0.000000    0.000000   -0.000000
    1.608192    0.265789    0.265789    0.265789   -0.000000    0.000000   -0.000000
    1.631166    0.275235    0.275235    0.275235   -0.000000    0.000000   -0.000000
    1.654140    0.285294    0.285294    0.285294   -0.000000    0.000000   -0.000000
    1.677114    0.296019    0.296019    0.296019   -0.000000    0.000000   -0.000000
    1.700088    0.307462    0.307462    0.307462   -0.000000    0.000000   -0.000000
    1.723063    0.319679    0.319679    0.319679   -0.000000    0.000000   -0.000000
    1.746037    0.332724    0.332724    0.332724   -0.000000    0.000000   -0.000000
    1.769011    0.346648    0.346648    0.346648   -0.000000    0.000000   -0.000000
    1.791985    0.361501    0.361501    0.361501   -0.000000    0.000000   -0.000000
    1.814959    0.377333    0.377333    0.377333   -0.000000    0.000000   -0.000000
    1.837933    0.394193    0.394193    0.394193   -0.000000    0.000000   -0.000000
    1.860908    0.412129    0.412129    0.412129   -0.000000    0.000000   -0.000000
    1.883882    0.431194    0.431194    0.431194   -0.000000    0.000000   -0.000000
    1.906856    0.451439    0.451439    0.451439   -0.000000    0.000000   -0.000000
    1.929830    0.472917    0.472917    0.472917   -0.000000    0.000000   -0.000000
    1.952804    0.495682    0.495682    0.495682   -0.000000    0.000000   -0.000000
    1.975778    0.519789    0.519789    0.519789   -0.000000    0.000000   -0.000000
    1.998753    0.545294    0.545294    0.545294   -0.000000    0.000000   -0.000000
    2.021727    0.572261    0.572261    0.572261   -0.000000    0.000000   -0.000000
    2.044701    0.600756    0.600756    0.600756   -0.000000    0.000000   -0.000000
    2.067675    0.630857    0.630857    0.630857   -0.000000    0.000000   -0.000000
    2.090649    0.662648    0.662648    0.662648   -0.000000    0.000000   -0.000000
    2.113624    0.696230    0.696230    0.696230   -0.000000    0.000000   -0.000000
    2.136598    0.731722    0.731722    0.731722   -0.000000    0.000000   -0.000000
    2.159572    0.769263    0.769263    0.769263   -0.000000    0.000000   -0.000000
    2.182546    0.809024    0.809024    0.809024   -0.000000    0.000000   -0.000000
    2.205520    0.851214    0.851214    0.851214   -0.000000    0.000000   -0.000000
    2.228494    0.896089    0.896089    0.896089   -0.000000    0.000000   -0.000000
    2.251469    0.943964    0.943964    0.943964   -0.000000    0.000000   -0.000000
    2.274443    0.995208    0.995208    0.995208   -0.000000    0.000000   -0.000000
    2.297417    1.050225    1.050225    1.050225   -0.000000    0.000000   -0.000000
    2.320391    1.109407    1.109407    1.109407   -0.000000    0.000000   -0.000000
    2.343365    1.173082    1.173082    1.173082   -0.000000    0.000000   -0.000000
    2.366339    1.241506    1.241506    1.241506   -0.000000    0.000000   -0.000000
    2.389314    1.314902    1.314902    1.314902   -0.000000    0.000000   -0.000000
    2.412288    1.393520    1.393520    1.393520   -0.000000    0.000000   -0.000000
    2.435262    1.477686    1.477686    1.477686   -0.000000    0.000000   -0.000000
    2.458236    1.567831    1.567831    1.567831   -0.000000    0.000000    0.000000
    2.481210    1.664532    1.664532    1.664532   -0.000000    0.000000    0.000000
    2.504184    1.768558    1.768558    1.768558   -0.000000    0.000000    0.000000
    2.527159    1.880941    1.880941    1.880941    0.000000    0.000000   -0.000000
    2.550133    2.003075    2.003075    2.003075    0.000000    0.000000   -0.000000
    2.573107    2.136822    2.136822    2.136822    0.000000    0.000000   -0.000000
    2.596081    2.284630    2.284630    2.284630    0.000000    0.000000   -0.000000
    2.619055    2.449648    2.449648    2.449648    0.000000    0.000000   -0.000000
    2.642029    2.635869    2.635869    2.635869    0.000000    0.000000   -0.000000
    2.665004    2.848357    2.848357    2.848357    0.000000    0.000000   -0.000000
    2.687978    3.093585    3.093585    3.093585    0.000000    0.000000   -0.000000
    2.710952    3.379789    3.379789    3.379789    0.000000    0.000000   -0.000000
    2.733926    3.716919    3.716919    3.716919    0.000000   -0.000000   -0.000000
    2.756900    4.114995    4.114995    4.114995    0.000000   -0.000000   -0.000000
    2.779874    4.578257    4.578257    4.578257   -0.000000   -0.000000    0.000000
    2.802849    5.091817    5.091817    5.091817   -0.000000   -0.000000    0.000000
    2.825823    5.605103    5.605103    5.605103   -0.000000   -0.000000    0.000000
    2.848797    6.039474    6.039474    6.039474   -0.000000   -0.000000    0.000000
    2.871771    6.344535    6.344535    6.344535   -0.000000   -0.000000   -0.000000
    2.894745    6.544532    6.544532    6.544532   -0.000000   -0.000000   -0.000000
    2.917719    6.705484    6.705484    6.705484   -0.000000   -0.000000   -0.000000
    2.940694    6.880275    6.880275    6.880275   -0.000000   -0.000000   -0.000000
    2.963668    7.092749    7.092749    7.092749   -0.000000   -0.000000   -0.000000
    2.986642    7.343243    7.343243    7.343243   -0.000000   -0.000000   -0.000000
    3.009616    7.612088    7.612088    7.612088   -0.000000    0.000000    0.000000
    3.032590    7.865247    7.865247    7.865247   -0.000000    0.000000    0.000000
    3.055564    8.074914    8.074914    8.074914   -0.000000    0.000000    0.000000
    3.078539    8.241341    8.241341    8.241341    0.000000    0.000000    0.000000
    3.101513    8.387752    8.387752    8.387752    0.000000    0.000000    0.000000
    3.124487    8.537954    8.537954    8.537954    0.000000    0.000000    0.000000
    3.147461    8.704467    8.704467    8.704467    0.000000    0.000000    0.000000
    3.170435    8.890448    8.890448    8.890448    0.000000    0.000000    0.000000
    3.193409    9.094930    9.094930    9.094930    0.000000    0.000000    0.000000
    3.216384    9.316156    9.316156    9.316156   -0.000000    0.000000   -0.000000
    3.239358    9.553012    9.553012    9.553012   -0.000000    0.000000   -0.000000
    3.262332    9.805528    9.805528    9.805528   -0.000000    0.000000   -0.000000
    3.285306   10.075087   10.075087   10.075087   -0.000000    0.000000   -0.000000
    3.308280   10.364625   10.364625   10.364625   -0.000000    0.000000   -0.000000
    3.331254   10.678938   10.678938   10.678938   -0.000000    0.000000   -0.000000
    3.354229   11.025071   11.025071   11.025071   -0.000000    0.000000   -0.000000
    3.377203   11.412540   11.412540   11.412540   -0.000000    0.000000   -0.000000
    3.400177   11.852608   11.852608   11.852608   -0.000000    0.000000   -0.000000
    3.423151   12.354608   12.354608   12.354608   -0.000000    0.000000   -0.000000
    3.446125   12.915716   12.915716   12.915716   -0.000000    0.000000   -0.000000
    3.469099   13.502448   13.502448   13.502448   -0.000000    0.000000   -0.000000
    3.492074   14.036355   14.036355   14.036355   -0.000000    0.000000   -0.000000
    3.515048   14.415982   14.415982   14.415982   -0.000000    0.000000   -0.000000
    3.538022   14.581115   14.581115   14.581115   -0.000000    0.000000   -0.000000
    3.560996   14.554514   14.554514   14.554514   -0.000000   -0.000000   -0.000000
    3.583970   14.411705   14.411705   14.411705   -0.000000   -0.000000   -0.000000
    3.606944   14.226020   14.226020   14.226020   -0.000000   -0.000000   -0.000000
    3.629919   14.043488   14.043488   14.043488   -0.000000   -0.000000   -0.000000
    3.652893   13.885958   13.885958   13.885958   -0.000000   -0.000000   -0.000000
    3.675867   13.761797   13.761797   13.761797   -0.000000   -0.000000   -0.000000
    3.698841   13.674479   13.674479   13.674479   -0.000000   -0.000000   -0.000000
    3.721815   13.628167   13.628167   13.628167   -0.000000    0.000000   -0.000000
    3.744789   13.630573   13.630573   13.630573   -0.000000    0.000000   -0.000000
    3.767764   13.693707   13.693707   13.693707   -0.000000    0.000000    0.000000
    3.790738   13.833271   13.833271   13.833271   -0.000000    0.000000    0.000000
    3.813712   14.066303   14.066303   14.066303   -0.000000    0.000000    0.000000
    3.836686   14.405374   14.405374   14.405374   -0.000000    0.000000    0.000000
    3.859660   14.847748   14.847748   14.847748   -0.000000    0.000000    0.000000
    3.882634   15.361910   15.361910   15.361910   -0.000000    0.000000    0.000000
    3.905609   15.881834   15.881834   15.881834   -0.000000    0.000000    0.000000
    3.928583   16.325582   16.325582   16.325582   -0.000000    0.000000    0.000000
    3.951557   16.644913   16.644913   16.644913   -0.000000    0.000000   -0.000000
    3.974531   16.858786   16.858786   16.858786   -0.000000    0.000000   -0.000000
    3.997505   17.021239   17.021239   17.021239   -0.000000    0.000000   -0.000000
    4.020480   17.173931   17.173931   17.173931   -0.000000    0.000000   -0.000000
    4.043454   17.334384   17.334384   17.334384   -0.000000    0.000000   -0.000000
    4.066428   17.505481   17.505481   17.505481   -0.000000    0.000000   -0.000000
    4.089402   17.685427   17.685427   17.685427   -0.000000    0.000000   -0.000000
    4.112376   17.873950   17.873950   17.873950    0.000000    0.000000   -0.000000
    4.135350   18.076169   18.076169   18.076169    0.000000    0.000000   -0.000000
    4.158325   18.304381   18.304381   18.304381    0.000000    0.000000   -0.000000
    4.181299   18.576916   18.576916   18.576916    0.000000    0.000000   -0.000000
    4.204273   18.913744   18.913744   18.913744    0.000000    0.000000   -0.000000
    4.227247   19.328793   19.328793   19.328793    0.000000    0.000000   -0.000000
    4.250221   19.820839   19.820839   19.820839    0.000000    0.000000   -0.000000
    4.273195   20.370687   20.370687   20.370687    0.000000    0.000000   -0.000000
    4.296170   20.951370   20.951370   20.951370    0.000000    0.000000   -0.000000
    4.319144   21.543375   21.543375   21.543375    0.000000    0.000000   -0.000000
[...]
   17.965800    0.271456    0.271456    0.271456    0.000000    0.000000    0.000000
   17.988774    0.273637    0.273637    0.273637    0.000000    0.000000    0.000000
   18.011748    0.275863    0.275863    0.275863    0.000000    0.000000    0.000000
   18.034722    0.278129    0.278129    0.278129    0.000000    0.000000    0.000000
   18.057697    0.280427    0.280427    0.280427    0.000000    0.000000    0.000000
   18.080671    0.282753    0.282753    0.282753    0.000000    0.000000    0.000000
   18.103645    0.285101    0.285101    0.285101    0.000000    0.000000    0.000000
   18.126619    0.287465    0.287465    0.287465    0.000000    0.000000    0.000000
   18.149593    0.289843    0.289843    0.289843    0.000000    0.000000    0.000000
   18.172567    0.292230    0.292230    0.292230    0.000000    0.000000    0.000000
   18.195542    0.294622    0.294622    0.294622    0.000000    0.000000    0.000000
   18.218516    0.297016    0.297016    0.297016    0.000000    0.000000    0.000000
   18.241490    0.299408    0.299408    0.299408    0.000000    0.000000    0.000000
   18.264464    0.301791    0.301791    0.301791    0.000000    0.000000    0.000000
   18.287438    0.304160    0.304160    0.304160    0.000000    0.000000    0.000000
   18.310412    0.306510    0.306510    0.306510    0.000000    0.000000    0.000000
   18.333387    0.308835    0.308835    0.308835    0.000000    0.000000    0.000000
   18.356361    0.311133    0.311133    0.311133    0.000000    0.000000    0.000000
   18.379335    0.313402    0.313402    0.313402    0.000000    0.000000    0.000000
   18.402309    0.315644    0.315644    0.315644    0.000000    0.000000    0.000000
   18.425283    0.317858    0.317858    0.317858    0.000000    0.000000    0.000000
   18.448257    0.320047    0.320047    0.320047    0.000000    0.000000    0.000000
   18.471232    0.322211    0.322211    0.322211    0.000000    0.000000    0.000000
   18.494206    0.324352    0.324352    0.324352    0.000000    0.000000    0.000000
   18.517180    0.326471    0.326471    0.326471    0.000000    0.000000    0.000000
   18.540154    0.328570    0.328570    0.328570    0.000000    0.000000    0.000000
   18.563128    0.330649    0.330649    0.330649    0.000000    0.000000    0.000000
   18.586102    0.332710    0.332710    0.332710    0.000000    0.000000    0.000000
   18.609077    0.334752    0.334752    0.334752    0.000000    0.000000    0.000000
   18.632051    0.336777    0.336777    0.336777    0.000000    0.000000    0.000000
   18.655025    0.338786    0.338786    0.338786    0.000000    0.000000    0.000000
   18.677999    0.340779    0.340779    0.340779    0.000000    0.000000    0.000000
   18.700973    0.342757    0.342757    0.342757    0.000000    0.000000    0.000000
   18.723947    0.344720    0.344720    0.344720    0.000000    0.000000    0.000000
   18.746922    0.346669    0.346669    0.346669    0.000000    0.000000    0.000000
   18.769896    0.348604    0.348604    0.348604    0.000000    0.000000    0.000000
   18.792870    0.350526    0.350526    0.350526    0.000000    0.000000    0.000000
   18.815844    0.352434    0.352434    0.352434    0.000000    0.000000    0.000000
   18.838818    0.354330    0.354330    0.354330    0.000000    0.000000    0.000000
   18.861792    0.356214    0.356214    0.356214    0.000000    0.000000    0.000000
   18.884767    0.358085    0.358085    0.358085    0.000000    0.000000    0.000000
   18.907741    0.359945    0.359945    0.359945    0.000000    0.000000    0.000000
   18.930715    0.361792    0.361792    0.361792    0.000000    0.000000    0.000000
   18.953689    0.363629    0.363629    0.363629    0.000000    0.000000    0.000000
   18.976663    0.365455    0.365455    0.365455    0.000000    0.000000    0.000000
   18.999637    0.367269    0.367269    0.367269    0.000000    0.000000    0.000000
   19.022612    0.369074    0.369074    0.369074    0.000000    0.000000    0.000000
   19.045586    0.370867    0.370867    0.370867    0.000000    0.000000    0.000000
   19.068560    0.372650    0.372650    0.372650    0.000000    0.000000    0.000000
   19.091534    0.374424    0.374424    0.374424    0.000000    0.000000    0.000000
   19.114508    0.376187    0.376187    0.376187    0.000000    0.000000    0.000000
   19.137482    0.377941    0.377941    0.377941    0.000000    0.000000    0.000000
   19.160457    0.379685    0.379685    0.379685    0.000000    0.000000    0.000000
   19.183431    0.381419    0.381419    0.381419    0.000000    0.000000    0.000000
   19.206405    0.383144    0.383144    0.383144    0.000000    0.000000    0.000000
   19.229379    0.384860    0.384860    0.384860    0.000000    0.000000    0.000000
   19.252353    0.386567    0.386567    0.386567    0.000000    0.000000    0.000000
   19.275327    0.388265    0.388265    0.388265    0.000000    0.000000    0.000000
   19.298302    0.389955    0.389955    0.389955    0.000000    0.000000    0.000000
   19.321276    0.391635    0.391635    0.391635    0.000000    0.000000    0.000000
   19.344250    0.393307    0.393307    0.393307    0.000000    0.000000    0.000000
   19.367224    0.394970    0.394970    0.394970    0.000000    0.000000    0.000000
   19.390198    0.396625    0.396625    0.396625    0.000000    0.000000    0.000000
   19.413172    0.398272    0.398272    0.398272    0.000000    0.000000    0.000000
   19.436147    0.399911    0.399911    0.399911    0.000000    0.000000    0.000000
   19.459121    0.401541    0.401541    0.401541    0.000000    0.000000    0.000000
   19.482095    0.403164    0.403164    0.403164    0.000000    0.000000    0.000000
   19.505069    0.404778    0.404778    0.404778    0.000000    0.000000    0.000000
   19.528043    0.406385    0.406385    0.406385    0.000000    0.000000    0.000000
   19.551017    0.407984    0.407984    0.407984    0.000000    0.000000    0.000000
   19.573992    0.409576    0.409576    0.409576    0.000000    0.000000    0.000000
   19.596966    0.411159    0.411159    0.411159    0.000000    0.000000    0.000000
   19.619940    0.412736    0.412736    0.412736    0.000000    0.000000    0.000000
   19.642914    0.414304    0.414304    0.414304    0.000000    0.000000    0.000000
   19.665888    0.415866    0.415866    0.415866    0.000000    0.000000    0.000000
   19.688862    0.417420    0.417420    0.417420    0.000000    0.000000    0.000000
   19.711837    0.418967    0.418967    0.418967    0.000000    0.000000    0.000000
   19.734811    0.420507    0.420507    0.420507    0.000000    0.000000    0.000000
   19.757785    0.422040    0.422040    0.422040    0.000000    0.000000    0.000000
   19.780759    0.423565    0.423565    0.423565    0.000000    0.000000    0.000000
   19.803733    0.425084    0.425084    0.425084    0.000000    0.000000    0.000000
   19.826707    0.426596    0.426596    0.426596    0.000000    0.000000    0.000000
   19.849682    0.428101    0.428101    0.428101    0.000000    0.000000    0.000000
   19.872656    0.429600    0.429600    0.429600    0.000000    0.000000    0.000000
   19.895630    0.431091    0.431091    0.431091    0.000000    0.000000    0.000000
   19.918604    0.432576    0.432576    0.432576    0.000000    0.000000    0.000000
   19.941578    0.434054    0.434054    0.434054    0.000000    0.000000    0.000000
   19.964553    0.435526    0.435526    0.435526    0.000000    0.000000    0.000000
   19.987527    0.436991    0.436991    0.436991    0.000000    0.000000    0.000000
   20.010501    0.438450    0.438450    0.438450    0.000000    0.000000    0.000000
   20.033475    0.439903    0.439903    0.439903    0.000000    0.000000    0.000000
   20.056449    0.441349    0.441349    0.441349    0.000000    0.000000    0.000000
   20.079423    0.442789    0.442789    0.442789    0.000000    0.000000    0.000000
   20.102398    0.444222    0.444222    0.444222    0.000000    0.000000    0.000000
   20.125372    0.445650    0.445650    0.445650    0.000000    0.000000    0.000000
   20.148346    0.447071    0.447071    0.447071    0.000000    0.000000    0.000000
   20.171320    0.448486    0.448486    0.448486    0.000000    0.000000    0.000000
   20.194294    0.449895    0.449895    0.449895    0.000000    0.000000    0.000000
   20.217268    0.451298    0.451298    0.451298    0.000000    0.000000    0.000000
   20.240243    0.452695    0.452695    0.452695    0.000000    0.000000    0.000000
   20.263217    0.454086    0.454086    0.454086    0.000000    0.000000    0.000000
   20.286191    0.455472    0.455472    0.455472    0.000000    0.000000    0.000000
   20.309165    0.456851    0.456851    0.456851    0.000000    0.000000    0.000000
   20.332139    0.458225    0.458225    0.458225    0.000000    0.000000    0.000000
   20.355113    0.459593    0.459593    0.459593    0.000000    0.000000    0.000000
   20.378088    0.460955    0.460955    0.460955    0.000000    0.000000    0.000000
   20.401062    0.462312    0.462312    0.462312    0.000000    0.000000    0.000000
   20.424036    0.463663    0.463663    0.463663    0.000000    0.000000    0.000000
   20.447010    0.465008    0.465008    0.465008    0.000000    0.000000    0.000000
   20.469984    0.466348    0.466348    0.466348    0.000000    0.000000    0.000000
   20.492958    0.467682    0.467682    0.467682    0.000000    0.000000    0.000000
   20.515933    0.469011    0.469011    0.469011    0.000000    0.000000    0.000000
   20.538907    0.470335    0.470335    0.470335    0.000000    0.000000    0.000000
   20.561881    0.471653    0.471653    0.471653    0.000000    0.000000    0.000000
   20.584855    0.472965    0.472965    0.472965    0.000000    0.000000    0.000000
   20.607829    0.474273    0.474273    0.474273    0.000000    0.000000    0.000000
   20.630803    0.475575    0.475575    0.475575    0.000000    0.000000    0.000000
   20.653778    0.476872    0.476872    0.476872    0.000000    0.000000    0.000000
   20.676752    0.478163    0.478163    0.478163    0.000000    0.000000    0.000000
   20.699726    0.479449    0.479449    0.479449    0.000000    0.000000    0.000000
   20.722700    0.480731    0.480731    0.480731    0.000000    0.000000    0.000000
   20.745674    0.482007    0.482007    0.482007    0.000000    0.000000    0.000000
   20.768648    0.483278    0.483278    0.483278    0.000000    0.000000    0.000000
   20.791623    0.484544    0.484544    0.484544    0.000000    0.000000    0.000000
   20.814597    0.485804    0.485804    0.485804    0.000000    0.000000    0.000000
   20.837571    0.487060    0.487060    0.487060    0.000000    0.000000    0.000000
   20.860545    0.488311    0.488311    0.488311    0.000000    0.000000    0.000000
   20.883519    0.489557    0.489557    0.489557    0.000000    0.000000    0.000000
   20.906493    0.490798    0.490798    0.490798    0.000000    0.000000    0.000000
   20.929468    0.492035    0.492035    0.492035    0.000000    0.000000    0.000000
   20.952442    0.493266    0.493266    0.493266    0.000000    0.000000    0.000000
   20.975416    0.494493    0.494493    0.494493    0.000000    0.000000    0.000000
   20.998390    0.495714    0.495714    0.495714    0.000000    0.000000    0.000000
   21.021364    0.496931    0.496931    0.496931    0.000000    0.000000    0.000000
   21.044338    0.498144    0.498144    0.498144    0.000000    0.000000    0.000000
   21.067313    0.499351    0.499351    0.499351    0.000000    0.000000    0.000000
   21.090287    0.500554    0.500554    0.500554    0.000000    0.000000    0.000000
   21.113261    0.501753    0.501753    0.501753    0.000000    0.000000    0.000000
   21.136235    0.502946    0.502946    0.502946    0.000000    0.000000    0.000000
   21.159209    0.504135    0.504135    0.504135    0.000000    0.000000    0.000000
   21.182183    0.505320    0.505320    0.505320    0.000000    0.000000    0.000000
   21.205158    0.506500    0.506500    0.506500    0.000000    0.000000    0.000000
   21.228132    0.507676    0.507676    0.507676    0.000000    0.000000    0.000000
   21.251106    0.508847    0.508847    0.508847    0.000000    0.000000    0.000000
   21.274080    0.510013    0.510013    0.510013    0.000000    0.000000    0.000000
   21.297054    0.511175    0.511175    0.511175    0.000000    0.000000    0.000000
   21.320028    0.512333    0.512333    0.512333    0.000000    0.000000    0.000000
   21.343003    0.513486    0.513486    0.513486    0.000000    0.000000    0.000000
   21.365977    0.514635    0.514635    0.514635    0.000000    0.000000    0.000000
   21.388951    0.515780    0.515780    0.515780    0.000000    0.000000    0.000000
   21.411925    0.516920    0.516920    0.516920    0.000000    0.000000    0.000000
   21.434899    0.518057    0.518057    0.518057    0.000000    0.000000    0.000000
   21.457873    0.519188    0.519188    0.519188    0.000000    0.000000    0.000000
   21.480848    0.520316    0.520316    0.520316    0.000000    0.000000    0.000000
   21.503822    0.521439    0.521439    0.521439    0.000000    0.000000    0.000000
   21.526796    0.522559    0.522559    0.522559    0.000000    0.000000    0.000000
   21.549770    0.523674    0.523674    0.523674    0.000000    0.000000    0.000000
   21.572744    0.524785    0.524785    0.524785    0.000000    0.000000    0.000000
   21.595718    0.525892    0.525892    0.525892    0.000000    0.000000    0.000000
   21.618693    0.526994    0.526994    0.526994    0.000000    0.000000    0.000000
   21.641667    0.528093    0.528093    0.528093    0.000000    0.000000    0.000000
   21.664641    0.529187    0.529187    0.529187    0.000000    0.000000    0.000000
   21.687615    0.530278    0.530278    0.530278    0.000000    0.000000    0.000000
   21.710589    0.531365    0.531365    0.531365    0.000000    0.000000    0.000000
   21.733563    0.532447    0.532447    0.532447    0.000000    0.000000    0.000000
   21.756538    0.533526    0.533526    0.533526    0.000000    0.000000    0.000000
   21.779512    0.534601    0.534601    0.534601    0.000000    0.000000    0.000000
   21.802486    0.535671    0.535671    0.535671    0.000000    0.000000    0.000000
   21.825460    0.536738    0.536738    0.536738    0.000000    0.000000    0.000000
   21.848434    0.537801    0.537801    0.537801    0.000000    0.000000    0.000000
   21.871409    0.538860    0.538860    0.538860    0.000000    0.000000    0.000000
   21.894383    0.539916    0.539916    0.539916    0.000000    0.000000    0.000000
   21.917357    0.540967    0.540967    0.540967    0.000000    0.000000    0.000000
   21.940331    0.542015    0.542015    0.542015    0.000000    0.000000    0.000000
   21.963305    0.543059    0.543059    0.543059    0.000000    0.000000    0.000000
   21.986279    0.544099    0.544099    0.544099    0.000000    0.000000    0.000000
   22.009254    0.545136    0.545136    0.545136    0.000000    0.000000    0.000000
   22.032228    0.546168    0.546168    0.546168    0.000000    0.000000    0.000000
   22.055202    0.547197    0.547197    0.547197    0.000000    0.000000    0.000000
   22.078176    0.548223    0.548223    0.548223    0.000000    0.000000    0.000000
   22.101150    0.549245    0.549245    0.549245    0.000000    0.000000    0.000000
   22.124124    0.550263    0.550263    0.550263    0.000000    0.000000    0.000000
   22.147099    0.551277    0.551277    0.551277    0.000000    0.000000    0.000000
   22.170073    0.552288    0.552288    0.552288    0.000000    0.000000    0.000000
   22.193047    0.553295    0.553295    0.553295    0.000000    0.000000    0.000000
   22.216021    0.554299    0.554299    0.554299    0.000000    0.000000    0.000000
   22.238995    0.555299    0.555299    0.555299    0.000000    0.000000    0.000000
   22.261969    0.556296    0.556296    0.556296    0.000000    0.000000    0.000000
   22.284944    0.557289    0.557289    0.557289    0.000000    0.000000    0.000000
   22.307918    0.558279    0.558279    0.558279    0.000000    0.000000    0.000000
   22.330892    0.559265    0.559265    0.559265    0.000000    0.000000    0.000000
   22.353866    0.560248    0.560248    0.560248    0.000000    0.000000    0.000000
   22.376840    0.561227    0.561227    0.561227    0.000000    0.000000    0.000000
   22.399814    0.562203    0.562203    0.562203    0.000000    0.000000    0.000000
   22.422789    0.563175    0.563175    0.563175    0.000000    0.000000    0.000000
   22.445763    0.564144    0.564144    0.564144    0.000000    0.000000    0.000000
   22.468737    0.565110    0.565110    0.565110    0.000000    0.000000    0.000000
   22.491711    0.566072    0.566072    0.566072    0.000000    0.000000    0.000000
   22.514685    0.567031    0.567031    0.567031    0.000000    0.000000    0.000000
   22.537659    0.567987    0.567987    0.567987    0.000000    0.000000    0.000000
   22.560634    0.568939    0.568939    0.568939    0.000000    0.000000    0.000000
   22.583608    0.569889    0.569889    0.569889    0.000000    0.000000    0.000000
   22.606582    0.570834    0.570834    0.570834    0.000000    0.000000    0.000000
   22.629556    0.571777    0.571777    0.571777    0.000000    0.000000    0.000000
   22.652530    0.572716    0.572716    0.572716    0.000000    0.000000    0.000000
   22.675504    0.573652    0.573652    0.573652    0.000000    0.000000    0.000000
   22.698479    0.574585    0.574585    0.574585    0.000000    0.000000    0.000000
   22.721453    0.575515    0.575515    0.575515    0.000000    0.000000    0.000000
   22.744427    0.576442    0.576442    0.576442    0.000000    0.000000    0.000000
   22.767401    0.577365    0.577365    0.577365    0.000000    0.000000    0.000000
   22.790375    0.578285    0.578285    0.578285    0.000000    0.000000    0.000000
   22.813349    0.579202    0.579202    0.579202    0.000000    0.000000    0.000000
   22.836324    0.580116    0.580116    0.580116    0.000000    0.000000    0.000000
   22.859298    0.581027    0.581027    0.581027    0.000000    0.000000    0.000000
   22.882272    0.581935    0.581935    0.581935    0.000000    0.000000    0.000000
   22.905246    0.582840    0.582840    0.582840    0.000000    0.000000    0.000000
   22.928220    0.583742    0.583742    0.583742    0.000000    0.000000    0.000000
   22.951194    0.584640    0.584640    0.584640    0.000000    0.000000    0.000000
 
 The outermost node in the dielectric function lies at epsilon=  16.0


--------------------------------------------------------------------------------------------------------


    OPTICS:  cpu time      0.1776: real time      0.1933
    4ORBIT:  cpu time      0.0000: real time      0.0000
 BZINTS: Fermi energy:    4.057969;   32.000000 electrons
         Band energy:-0.582312E+02;  BLOECHL correction:    0.000000

 total amount of memory used by VASP MPI-rank0    44749. kBytes
=======================================================================

   base      :      30000. kBytes
   nonl-proj :       8867. kBytes
   fftplans  :       1096. kBytes
   grid      :       2745. kBytes
   one-center:         64. kBytes
   wavefun   :       1977. kBytes
 
  
  
 General timing and accounting informations for this job:
 ========================================================
  
                  Total CPU time used (sec):        4.144
                            User time (sec):        2.433
                          System time (sec):        1.711
                         Elapsed time (sec):        4.963
  
                   Maximum memory used (kb):      137308.
                   Average memory used (kb):          N/A
  
                          Minor page faults:        14430
                          Major page faults:           67
                 Voluntary context switches:         1371
