<?xml version="1.0" encoding="ISO-8859-1"?>
<modeling>
 <generator>
  <i name="program" type="string">vasp </i>
  <i name="version" type="string">6.4.3  </i>
  <i name="subversion" type="string">19Mar24 (build Aug 29 2024 15:27:20) complex                          parallel </i>
  <i name="platform" type="string">LinuxIFC </i>
  <i name="date" type="string">2025 03 19 </i>
  <i name="time" type="string">10:34:22 </i>
 </generator>
 <incar>
  <i type="string" name="SYSTEM">GaAs</i>
  <i type="string" name="PREC">Normal</i>
  <i type="int" name="IBRION">     2</i>
  <i name="ENCUT">    500.00000000</i>
  <i type="int" name="ISMEAR">    -5</i>
  <i name="SIGMA">      0.10000000</i>
  <i type="logical" name="LOPTICS"> T  </i>
 </incar>
 <primitive_cell>
  <structure name="primitive_cell" >
   <crystal>
    <varray name="basis" >
     <v>       2.69729314      -2.69729314       0.00000000 </v>
     <v>       2.69729314       0.00000000       2.69729314 </v>
     <v>       0.00000000      -2.69729314       2.69729314 </v>
    </varray>
    <i name="volume">     39.24772052 </i>
    <varray name="rec_basis" >
     <v>       0.18537103      -0.18537103      -0.18537103 </v>
     <v>       0.18537103       0.18537103       0.18537103 </v>
     <v>      -0.18537103      -0.18537103       0.18537103 </v>
    </varray>
   </crystal>
   <varray name="positions" >
    <v>       0.00000000       0.00000000       0.00000000 </v>
    <v>       0.75000000       0.75000000       0.75000000 </v>
   </varray>
  </structure>
  <varray name="primitive_index" >
   <v type="int" >        1 </v>
   <v type="int" >        5 </v>
  </varray>
 </primitive_cell>
 <kpoints>
  <generation param="Gamma">
   <v type="int" name="divisions">       5        5        5 </v>
   <v name="usershift">      0.00000000       0.00000000       0.00000000 </v>
   <v name="genvec1">      0.20000000       0.00000000       0.00000000 </v>
   <v name="genvec2">      0.00000000       0.20000000       0.00000000 </v>
   <v name="genvec3">      0.00000000       0.00000000       0.20000000 </v>
   <v name="shift">      0.00000000       0.00000000       0.00000000 </v>
  </generation>
  <varray name="kpointlist" >
   <v>       0.00000000       0.00000000       0.00000000 </v>
   <v>       0.20000000       0.00000000       0.00000000 </v>
   <v>       0.40000000       0.00000000       0.00000000 </v>
   <v>       0.20000000       0.20000000       0.00000000 </v>
   <v>       0.40000000       0.20000000       0.00000000 </v>
   <v>       0.40000000       0.40000000       0.00000000 </v>
   <v>       0.20000000       0.20000000       0.20000000 </v>
   <v>       0.40000000       0.20000000       0.20000000 </v>
   <v>       0.40000000       0.40000000       0.20000000 </v>
   <v>       0.40000000       0.40000000       0.40000000 </v>
  </varray>
  <varray name="weights" >
   <v>       0.00800000 </v>
   <v>       0.04800000 </v>
   <v>       0.04800000 </v>
   <v>       0.09600000 </v>
   <v>       0.19200000 </v>
   <v>       0.09600000 </v>
   <v>       0.06400000 </v>
   <v>       0.19200000 </v>
   <v>       0.19200000 </v>
   <v>       0.06400000 </v>
  </varray>
  <varray name="tetrahedronlist"  type="int" >
   <v type="int" >       12        7        8        8        9 </v>
   <v type="int" >       18        8        8        9        9 </v>
   <v type="int" >       24        8        9        9       10 </v>
   <v type="int" >       12        8        9        9        9 </v>
   <v type="int" >       24        9        9        9       10 </v>
   <v type="int" >       18        9        9       10       10 </v>
   <v type="int" >       24        4        5        7        8 </v>
   <v type="int" >       12        5        7        8        8 </v>
   <v type="int" >       24        5        8        8        9 </v>
   <v type="int" >       24        4        5        5        8 </v>
   <v type="int" >       24        5        5        6        8 </v>
   <v type="int" >       12        5        6        8        9 </v>
   <v type="int" >       12        9       10       10       10 </v>
   <v type="int" >       12        8        8        9       10 </v>
   <v type="int" >       12        8        9       10       10 </v>
   <v type="int" >       12        5        5        8        9 </v>
   <v type="int" >       12        5        8        9        9 </v>
   <v type="int" >       12        5        5        6        9 </v>
   <v type="int" >       12        5        6        6        9 </v>
   <v type="int" >       12        5        6        9        9 </v>
   <v type="int" >       12        5        6        8        8 </v>
   <v type="int" >       12        5        6        6        8 </v>
   <v type="int" >       12        6        8        8        9 </v>
   <v type="int" >       12        6        8        9        9 </v>
   <v type="int" >       12        6        6        8        9 </v>
   <v type="int" >       12        7        8        9       10 </v>
   <v type="int" >       12        4        5        8        9 </v>
   <v type="int" >       12        4        7        8        9 </v>
   <v type="int" >       12        4        5        6        9 </v>
   <v type="int" >       12        5        6        7        8 </v>
   <v type="int" >       12        4        5        6        7 </v>
   <v type="int" >       12        6        7        8        9 </v>
   <v type="int" >       12        2        4        7        8 </v>
   <v type="int" >       12        2        4        5        8 </v>
   <v type="int" >       12        2        3        5        8 </v>
   <v type="int" >       12        4        4        5        7 </v>
   <v type="int" >       12        2        4        4        5 </v>
   <v type="int" >       12        2        3        4        5 </v>
   <v type="int" >       12        3        4        5        5 </v>
   <v type="int" >       12        2        3        4        7 </v>
   <v type="int" >       12        3        4        5        7 </v>
   <v type="int" >       12        3        5        7        8 </v>
   <v type="int" >        6       10       10       10       10 </v>
   <v type="int" >       12        6        6        9        9 </v>
   <v type="int" >       12        6        9        9        9 </v>
   <v type="int" >       12        6        6        6        9 </v>
   <v type="int" >       12        3        5        8        8 </v>
   <v type="int" >       12        3        5        5        8 </v>
   <v type="int" >       12        3        3        5        8 </v>
   <v type="int" >       12        5        5        5        8 </v>
   <v type="int" >       12        3        5        5        5 </v>
   <v type="int" >        6        3        3        5        5 </v>
   <v type="int" >        6        5        5        8        8 </v>
   <v type="int" >       12        2        4        4        7 </v>
   <v type="int" >       12        2        2        4        4 </v>
   <v type="int" >       12        1        2        2        4 </v>
   <v type="int" >       12        1        2        4        7 </v>
  </varray>
  <i name="volumeweight">      0.00133333 </i>
 </kpoints>
 <parameters>
  <separator name="general" >
   <i type="string" name="SYSTEM">GaAs</i>
   <i type="logical" name="LCOMPAT"> F  </i>
  </separator>
  <separator name="electronic" >
   <i type="string" name="PREC">normal</i>
   <i name="ENMAX">    500.00000000</i>
   <i name="ENAUG">    462.75800000</i>
   <i name="EDIFF">      0.00010000</i>
   <i type="int" name="IALGO">    38</i>
   <i type="int" name="IWAVPR">    10</i>
   <i type="int" name="NBANDS">    24</i>
   <i type="int" name="NBANDSLOW">    -1</i>
   <i type="int" name="NBANDSHIGH">    -1</i>
   <i name="NELECT">     32.00000000</i>
   <i type="int" name="TURBO">     0</i>
   <i type="int" name="IRESTART">     0</i>
   <i type="int" name="NREBOOT">     0</i>
   <i type="int" name="NMIN">     0</i>
   <i name="EREF">      0.00000000</i>
   <separator name="electronic smearing" >
    <i type="int" name="ISMEAR">    -5</i>
    <i name="SIGMA">      0.10000000</i>
    <i name="KSPACING">      0.50000000</i>
    <i type="logical" name="KGAMMA"> T  </i>
    <i type="logical" name="KBLOWUP"> T  </i>
   </separator>
   <separator name="electronic projectors" >
    <i type="logical" name="LREAL"> F  </i>
    <v name="ROPT">      0.00000000      0.00000000</v>
    <i type="int" name="LMAXPAW">  -100</i>
    <i type="int" name="LMAXMIX">     2</i>
    <i type="logical" name="NLSPLINE"> F  </i>
   </separator>
   <separator name="electronic startup" >
    <i type="int" name="ISTART">     1</i>
    <i type="int" name="ICHARG">     0</i>
    <i type="int" name="INIWAV">     1</i>
   </separator>
   <separator name="electronic spin" >
    <i type="int" name="ISPIN">     1</i>
    <i type="logical" name="LNONCOLLINEAR"> F  </i>
    <v name="MAGMOM">      1.00000000      1.00000000      1.00000000      1.00000000      1.00000000      1.00000000      1.00000000      1.00000000</v>
    <i name="NUPDOWN">     -1.00000000</i>
    <i type="logical" name="LSORBIT"> F  </i>
    <v name="SAXIS">      0.00000000      0.00000000      1.00000000</v>
    <i type="logical" name="LSPIRAL"> F  </i>
    <v name="QSPIRAL">      0.00000000      0.00000000      0.00000000</v>
    <i type="logical" name="LZEROZ"> F  </i>
   </separator>
   <separator name="electronic exchange-correlation" >
    <i type="logical" name="LASPH"> F  </i>
   </separator>
   <separator name="electronic convergence" >
    <i type="int" name="NELM">    60</i>
    <i type="int" name="NELMDL">     0</i>
    <i type="int" name="NELMIN">     2</i>
    <i name="ENINI">    500.00000000</i>
    <separator name="electronic convergence detail" >
     <i type="logical" name="LDIAG"> T  </i>
     <i type="logical" name="LSUBROT"> F  </i>
     <i name="WEIMIN">      0.00000000</i>
     <i name="EBREAK">      0.00000104</i>
     <i name="DEPER">      0.30000000</i>
     <i type="int" name="NRMM">     4</i>
     <i name="TIME">      0.40000000</i>
    </separator>
   </separator>
   <separator name="electronic mixer" >
    <i name="AMIX">      0.40000000</i>
    <i name="BMIX">      1.00000000</i>
    <i name="AMIN">      0.10000000</i>
    <i name="AMIX_MAG">      1.60000000</i>
    <i name="BMIX_MAG">      1.00000000</i>
    <separator name="electronic mixer details" >
     <i type="int" name="IMIX">     4</i>
     <i type="logical" name="MIXFIRST"> F  </i>
     <i type="int" name="MAXMIX">   -45</i>
     <i name="WC">    100.00000000</i>
     <i type="int" name="INIMIX">     1</i>
     <i type="int" name="MIXPRE">     1</i>
     <i type="int" name="MREMOVE">     5</i>
    </separator>
   </separator>
   <separator name="electronic dipolcorrection" >
    <i type="logical" name="LDIPOL"> F  </i>
    <i type="logical" name="LMONO"> F  </i>
    <i type="int" name="IDIPOL">     0</i>
    <i name="EPSILON">      1.00000000</i>
    <v name="DIPOL">   -100.00000000   -100.00000000   -100.00000000</v>
    <i name="EFIELD">      0.00000000</i>
    <i type="logical" name="LVACPOTAV"> F  </i>
   </separator>
  </separator>
  <separator name="grids" >
   <i type="int" name="NGX">    30</i>
   <i type="int" name="NGY">    30</i>
   <i type="int" name="NGZ">    30</i>
   <i type="int" name="NGXF">    60</i>
   <i type="int" name="NGYF">    60</i>
   <i type="int" name="NGZF">    60</i>
   <i type="logical" name="ADDGRID"> F  </i>
  </separator>
  <separator name="ionic" >
   <i type="int" name="NSW">     0</i>
   <i type="int" name="IBRION">    -1</i>
   <i type="int" name="MDALGO">     0</i>
   <i type="int" name="ISIF">     2</i>
   <i name="PSTRESS">      0.00000000</i>
   <i name="EDIFFG">      0.00100000</i>
   <i type="int" name="NFREE">     1</i>
   <i name="POTIM">      0.50000000</i>
   <i name="SMASS">     -3.00000000</i>
   <i name="SCALEE">      1.00000000</i>
  </separator>
  <separator name="ionic md" >
   <i name="TEBEG">      0.00010000</i>
   <i name="TEEND">      0.00010000</i>
   <i type="int" name="NBLOCK">     1</i>
   <i type="int" name="KBLOCK">     1</i>
   <i type="int" name="NPACO">   256</i>
   <i name="APACO">     10.00000000</i>
  </separator>
  <separator name="symmetry" >
   <i type="int" name="ISYM">     2</i>
   <i name="SYMPREC">      0.00001000</i>
  </separator>
  <separator name="dos" >
   <i type="int" name="LORBIT">     0</i>
   <v name="RWIGS">     -1.00000000     -1.00000000</v>
   <i type="int" name="NEDOS">   301</i>
   <i name="EMIN">     10.00000000</i>
   <i name="EMAX">    -10.00000000</i>
   <i name="EFERMI">      0.00000000</i>
  </separator>
  <separator name="writing" >
   <i type="int" name="NWRITE">     2</i>
   <i type="logical" name="LWAVE"> T  </i>
   <i type="logical" name="LDOWNSAMPLE"> F  </i>
   <i type="logical" name="LCHARG"> T  </i>
   <i type="logical" name="LPARD"> F  </i>
   <i type="logical" name="LVTOT"> F  </i>
   <i type="logical" name="LVHAR"> F  </i>
   <i type="logical" name="LELF"> F  </i>
   <i type="logical" name="LOPTICS"> T  </i>
   <v name="STM">      0.00000000      0.00000000      0.00000000      0.00000000      0.00000000      0.00000000      0.00000000</v>
  </separator>
  <separator name="performance" >
   <i type="int" name="NPAR">     8</i>
   <i type="int" name="NSIM">     4</i>
   <i type="int" name="NBLK">    -1</i>
   <i type="logical" name="LPLANE"> T  </i>
   <i type="logical" name="LSCALAPACK"> T  </i>
   <i type="logical" name="LSCAAWARE"> F  </i>
   <i type="logical" name="LSCALU"> F  </i>
   <i type="logical" name="LASYNC"> F  </i>
   <i type="logical" name="LORBITALREAL"> F  </i>
  </separator>
  <separator name="miscellaneous" >
   <i type="int" name="IDIOT">     3</i>
   <i type="int" name="PHON_NSTRUCT">    -1</i>
   <i type="logical" name="LMUSIC"> F  </i>
   <v name="POMASS">     74.92200000     69.72300000</v>
   <v name="DARWINR">      0.00000000      0.00000000</v>
   <v name="DARWINV">      1.00000000      1.00000000</v>
   <i type="logical" name="LCORR"> T  </i>
  </separator>
  <i type="logical" name="GGA_COMPAT"> T  </i>
  <i type="logical" name="LBERRY"> F  </i>
  <i type="int" name="ICORELEVEL">     0</i>
  <i type="logical" name="LDAU"> F  </i>
  <i type="int" name="I_CONSTRAINED_M">     0</i>
  <separator name="electronic exchange-correlation" >
   <i type="string" name="GGA    ">PE</i>
   <i type="string" name="XC_C">1</i>
   <i type="int" name="VOSKOWN">     0</i>
   <i type="logical" name="LHFCALC"> F  </i>
   <i type="string" name="PRECFOCK"></i>
   <i type="logical" name="LSYMGRAD"> F  </i>
   <i type="logical" name="LHFONE"> F  </i>
   <i type="logical" name="LRHFCALC"> F  </i>
   <i type="logical" name="LTHOMAS"> F  </i>
   <i type="logical" name="LMODELHF"> F  </i>
   <i type="logical" name="LFOCKACE"> F  </i>
   <i name="ENCUT4O">     -1.00000000</i>
   <i type="int" name="EXXOEP">     0</i>
   <i type="int" name="FOURORBIT">     0</i>
   <i name="AEXX">      0.00000000</i>
   <i name="HFALPHA">      0.00000000</i>
   <i name="MCALPHA">      0.00000000</i>
   <i name="ALDAX">      1.00000000</i>
   <i name="AGGAX">      1.00000000</i>
   <i name="AMGGAX">      1.00000000</i>
   <i name="ALDAC">      1.00000000</i>
   <i name="AGGAC">      1.00000000</i>
   <i name="AMGGAC">      1.00000000</i>
   <i type="int" name="NKREDX">     1</i>
   <i type="int" name="NKREDY">     1</i>
   <i type="int" name="NKREDZ">     1</i>
   <i type="logical" name="SHIFTRED"> F  </i>
   <i type="logical" name="ODDONLY"> F  </i>
   <i type="logical" name="EVENONLY"> F  </i>
   <i type="int" name="LMAXFOCK">     0</i>
   <i type="int" name="NMAXFOCKAE">     0</i>
   <i type="logical" name="LFOCKAEDFT"> F  </i>
   <i name="HFSCREEN">      0.00000000</i>
   <i name="HFSCREENC">      0.00000000</i>
   <i type="int" name="NBANDSGWLOW">     0</i>
  </separator>
  <separator name="vdW DFT" >
   <i type="logical" name="LUSE_VDW"> F  </i>
   <i type="int" name="IVDW_NL">    -1</i>
   <i type="logical" name="LSPIN_VDW"> F  </i>
   <i name="ZAB_VDW">     -0.84910000</i>
   <i name="GAMMA_VDW">      1.39626340</i>
   <i name="ALPHA_VDW">      0.00000000</i>
   <i name="PARAM1">      0.12340000</i>
   <i name="PARAM2">      1.00000000</i>
   <i name="BPARAM">      6.30000000</i>
   <i name="CPARAM">      0.00930000</i>
  </separator>
  <separator name="model GW" >
   <i type="int" name="MODEL_GW">     0</i>
   <i name="MODEL_EPS0">     11.77431616</i>
   <i name="MODEL_ALPHA">      1.00000000</i>
  </separator>
  <separator name="linear response parameters" >
   <i type="logical" name="LEPSILON"> F  </i>
   <i type="logical" name="LRPA"> F  </i>
   <i type="logical" name="LNABLA"> F  </i>
   <i type="logical" name="LVEL"> F  </i>
   <i name="CSHIFT">      0.10000000</i>
   <i name="OMEGAMAX">     -1.00000000</i>
   <i name="DEG_THRESHOLD">      0.00200000</i>
   <i name="RTIME">     -0.10000000</i>
   <i name="WPLASMAI">      0.00000000</i>
   <v name="DFIELD">      0.00000000      0.00000000      0.00000000</v>
   <v name="WPLASMA">      0.00000000      0.00000000      0.00000000      0.00000000      0.00000000      0.00000000      0.00000000      0.00000000      0.00000000</v>
  </separator>
  <separator name="orbital magnetization" >
   <i type="logical" name="NUCIND"> F  </i>
   <v name="MAGPOS">      0.00000000      0.00000000      0.00000000</v>
   <i type="logical" name="LNICSALL"> T  </i>
   <i type="logical" name="ORBITALMAG"> F  </i>
   <i type="logical" name="LMAGBLOCH"> F  </i>
   <i type="logical" name="LCHIMAG"> F  </i>
   <i type="logical" name="LGAUGE"> T  </i>
   <i type="int" name="MAGATOM">     0</i>
   <v name="MAGDIPOL">      0.00000000      0.00000000      0.00000000</v>
   <v name="AVECCONST">      0.00000000      0.00000000      0.00000000</v>
  </separator>
  <separator name="response functions" >
   <i type="logical" name="LALL_IN_ONE"> F  </i>
   <i type="int" name="IALL_IN_ONE">    -1</i>
   <i type="int" name="NBANDS_WAVE">    -1</i>
   <i type="logical" name="LFINITE_TEMPERATURE"> F  </i>
   <i type="logical" name="LADDER"> F  </i>
   <i type="logical" name="LRPAFORCE"> F  </i>
   <i type="logical" name="LFXC"> F  </i>
   <i type="logical" name="LHARTREE"> T  </i>
   <i type="int" name="IBSE">     0</i>
   <v type="int" name="KPOINT">    -1     0     0     0</v>
   <i type="logical" name="LTCTC"> F  </i>
   <i type="logical" name="LTCTE"> F  </i>
   <i type="logical" name="LTETE"> F  </i>
   <i type="logical" name="LTRIPLET"> F  </i>
   <i type="logical" name="LFXCEPS"> F  </i>
   <i type="logical" name="LFXHEG"> F  </i>
   <i type="int" name="NATURALO">     2</i>
   <i type="logical" name="LHOLEGF"> F  </i>
   <i type="logical" name="L2ORDER"> F  </i>
   <i type="logical" name="LDMP1"> F  </i>
   <i type="logical" name="LMP2LT"> F  </i>
   <i type="logical" name="LSMP2LT"> F  </i>
   <i type="logical" name="LGWLF"> F  </i>
   <i name="ENCUTGW">     -1.60000002</i>
   <i name="ENCUTGWSOFT">     -1.60000002</i>
   <i name="ENCUTLF">     -1.00000000</i>
   <i type="logical" name="ESF_SPLINES"> F  </i>
   <i name="ESF_CONV">      0.01000000</i>
   <i type="int" name="ESF_NINTER">    15</i>
   <i type="int" name="LMAXMP2">    -1</i>
   <i name="SCISSOR">      0.00000000</i>
   <i type="int" name="NOMEGA">     0</i>
   <i type="int" name="NOMEGAR">     0</i>
   <i type="int" name="NBANDSGW">    -1</i>
   <i type="int" name="NBANDSO">    -1</i>
   <i type="int" name="NBANDSV">    -1</i>
   <i type="int" name="NELMGW">     1</i>
   <i type="int" name="NELMHF">     1</i>
   <i type="int" name="DIM">     3</i>
   <i type="int" name="IESPILON">     4</i>
   <i type="int" name="ANTIRES">     0</i>
   <i name="OMEGAMAX">    -30.00000000</i>
   <i name="OMEGAMIN">    -30.00000000</i>
   <i name="OMEGATL">   -200.00000000</i>
   <i type="int" name="OMEGAGRID">     0</i>
   <i name="CSHIFT">     -0.10000000</i>
   <i type="logical" name="LSELFENERGY"> F  </i>
   <i type="logical" name="LSPECTRAL"> F  </i>
   <i type="logical" name="LSPECTRALGW"> F  </i>
   <i type="logical" name="LSINGLES"> F  </i>
   <i type="logical" name="LFERMIGW"> F  </i>
   <i type="logical" name="ODDONLYGW"> F  </i>
   <i type="logical" name="EVENONLYGW"> F  </i>
   <i type="int" name="NKREDLFX">     1</i>
   <i type="int" name="NKREDLFY">     1</i>
   <i type="int" name="NKREDLFZ">     1</i>
   <i type="int" name="MAXMEM">  2800</i>
   <i type="int" name="TELESCOPE">     0</i>
   <i type="int" name="NTAUPAR">    -1</i>
   <i type="int" name="NOMEGAPAR">    -1</i>
   <i name="DAMP_NEWTON">      0.80000001</i>
   <i name="LAMBDA">      1.00000000</i>
  </separator>
  <separator name="External order field" >
   <i name="OFIELD_KAPPA">      0.00000000</i>
   <v name="OFIELD_K">      0.00000000      0.00000000      0.00000000</v>
   <i name="OFIELD_Q6_NEAR">      0.00000000</i>
   <i name="OFIELD_Q6_FAR">      0.00000000</i>
   <i name="OFIELD_A">      0.00000000</i>
  </separator>
  <separator name="optional k-points parameters" >
   <i type="int" name="KPOINTS_OPT_MODE">     1</i>
   <i type="logical" name="LKPOINTS_OPT"> F  </i>
  </separator>
 </parameters>
 <atominfo>
  <atoms>       8 </atoms>
  <types>       2 </types>
  <array name="atoms" >
   <dimension dim="1">ion</dimension>
   <field type="string">element</field>
   <field type="int">atomtype</field>
   <set>
    <rc><c>As</c><c>   1</c></rc>
    <rc><c>As</c><c>   1</c></rc>
    <rc><c>As</c><c>   1</c></rc>
    <rc><c>As</c><c>   1</c></rc>
    <rc><c>Ga</c><c>   2</c></rc>
    <rc><c>Ga</c><c>   2</c></rc>
    <rc><c>Ga</c><c>   2</c></rc>
    <rc><c>Ga</c><c>   2</c></rc>
   </set>
  </array>
  <array name="atomtypes" >
   <dimension dim="1">type</dimension>
   <field type="int">atomspertype</field>
   <field type="string">element</field>
   <field>mass</field>
   <field>valence</field>
   <field type="string">pseudopotential</field>
   <set>
    <rc><c>   4</c><c>As</c><c>     74.92200000</c><c>      5.00000000</c><c>  PAW_PBE As 22Sep2009                  </c></rc>
    <rc><c>   4</c><c>Ga</c><c>     69.72300000</c><c>      3.00000000</c><c>  PAW_PBE Ga 08Apr2002                  </c></rc>
   </set>
  </array>
 </atominfo>
 <structure name="initialpos" >
  <crystal>
   <varray name="basis" >
    <v>       5.39458628       0.00000000       0.00000000 </v>
    <v>       0.00000000       5.39458628       0.00000000 </v>
    <v>       0.00000000       0.00000000       5.39458628 </v>
   </varray>
   <i name="volume">    156.99088209 </i>
   <varray name="rec_basis" >
    <v>       0.18537103       0.00000000       0.00000000 </v>
    <v>       0.00000000       0.18537103       0.00000000 </v>
    <v>       0.00000000       0.00000000       0.18537103 </v>
   </varray>
  </crystal>
  <varray name="positions" >
   <v>       0.00000000       0.00000000       0.00000000 </v>
   <v>       0.50000000       0.50000000       0.00000000 </v>
   <v>       0.50000000       0.00000000       0.50000000 </v>
   <v>       0.00000000       0.50000000       0.50000000 </v>
   <v>       0.25000000       0.25000000       0.25000000 </v>
   <v>       0.75000000       0.25000000       0.75000000 </v>
   <v>       0.75000000       0.75000000       0.25000000 </v>
   <v>       0.25000000       0.75000000       0.75000000 </v>
  </varray>
 </structure>
 <calculation>
  <scstep>
   <time name="dav">    0.25    0.27</time>
   <time name="total">    0.28    0.30</time>
   <energy>
    <i name="alphaZ">     87.16335773 </i>
    <i name="ewald">   -960.64702428 </i>
    <i name="hartreedc">    -80.91886940 </i>
    <i name="XCdc">   -119.52108153 </i>
    <i name="pawpsdc">   2160.53351374 </i>
    <i name="pawaedc">  -1982.49455101 </i>
    <i name="eentropy">      0.00000000 </i>
    <i name="bandstr">    -51.90096914 </i>
    <i name="atom">    916.21963040 </i>
    <i name="e_fr_energy">    -31.56599349 </i>
    <i name="e_wo_entrp">    -31.56599349 </i>
    <i name="e_0_energy">    -31.56599349 </i>
   </energy>
  </scstep>
  <scstep>
   <time name="dav">    0.23    0.25</time>
   <time name="total">    0.26    0.28</time>
   <energy>
    <i name="e_fr_energy">    -31.44577099 </i>
    <i name="e_wo_entrp">    -31.44577099 </i>
    <i name="e_0_energy">    -31.44577099 </i>
   </energy>
  </scstep>
  <scstep>
   <time name="dav">    0.23    0.24</time>
   <time name="total">    0.26    0.27</time>
   <energy>
    <i name="e_fr_energy">    -31.40549854 </i>
    <i name="e_wo_entrp">    -31.40549854 </i>
    <i name="e_0_energy">    -31.40549854 </i>
   </energy>
  </scstep>
  <scstep>
   <time name="dav">    0.22    0.23</time>
   <time name="total">    0.25    0.26</time>
   <energy>
    <i name="e_fr_energy">    -31.40334023 </i>
    <i name="e_wo_entrp">    -31.40334023 </i>
    <i name="e_0_energy">    -31.40334023 </i>
   </energy>
  </scstep>
  <scstep>
   <time name="dav">    0.26    0.27</time>
   <time name="total">    0.29    0.30</time>
   <energy>
    <i name="e_fr_energy">    -31.40284651 </i>
    <i name="e_wo_entrp">    -31.40284651 </i>
    <i name="e_0_energy">    -31.40284651 </i>
   </energy>
  </scstep>
  <scstep>
   <time name="dav">    0.18    0.19</time>
   <time name="total">    0.19    0.20</time>
   <energy>
    <i name="alphaZ">     87.16335773 </i>
    <i name="ewald">   -960.64702428 </i>
    <i name="hartreedc">    -74.82592492 </i>
    <i name="XCdc">   -119.29472517 </i>
    <i name="pawpsdc">   2561.51016942 </i>
    <i name="pawaedc">  -2383.29713793 </i>
    <i name="eentropy">      0.00000000 </i>
    <i name="bandstr">    -58.23120084 </i>
    <i name="atom">    916.21963040 </i>
    <i name="e_fr_energy">    -31.40285558 </i>
    <i name="e_wo_entrp">    -31.40285558 </i>
    <i name="e_0_energy">    -31.40285558 </i>
   </energy>
  </scstep>
  <structure>
   <crystal>
    <varray name="basis" >
     <v>       5.39458628       0.00000000       0.00000000 </v>
     <v>       0.00000000       5.39458628       0.00000000 </v>
     <v>       0.00000000       0.00000000       5.39458628 </v>
    </varray>
    <i name="volume">    156.99088209 </i>
    <varray name="rec_basis" >
     <v>       0.18537103       0.00000000       0.00000000 </v>
     <v>       0.00000000       0.18537103       0.00000000 </v>
     <v>       0.00000000       0.00000000       0.18537103 </v>
    </varray>
   </crystal>
   <varray name="positions" >
    <v>       0.00000000       0.00000000       0.00000000 </v>
    <v>       0.50000000       0.50000000       0.00000000 </v>
    <v>       0.50000000       0.00000000       0.50000000 </v>
    <v>       0.00000000       0.50000000       0.50000000 </v>
    <v>       0.25000000       0.25000000       0.25000000 </v>
    <v>       0.75000000       0.25000000       0.75000000 </v>
    <v>       0.75000000       0.75000000       0.25000000 </v>
    <v>       0.25000000       0.75000000       0.75000000 </v>
   </varray>
  </structure>
  <varray name="forces" >
   <v>       0.00000000       0.00000000       0.00000000 </v>
   <v>       0.00000000      -0.00000000      -0.00000000 </v>
   <v>       0.00000000      -0.00000000       0.00000000 </v>
   <v>      -0.00000000       0.00000000       0.00000000 </v>
   <v>       0.00000000      -0.00000000      -0.00000000 </v>
   <v>      -0.00000000      -0.00000000      -0.00000000 </v>
   <v>      -0.00000000       0.00000000      -0.00000000 </v>
   <v>       0.00000000       0.00000000      -0.00000000 </v>
  </varray>
  <varray name="stress" >
   <v>     195.20436638       0.00000000       0.00000000 </v>
   <v>       0.00000000     195.20436638       0.00000000 </v>
   <v>      -0.00000000      -0.00000000     195.20436638 </v>
  </varray>
  <energy>
   <i name="e_fr_energy">    -31.40285558 </i>
   <i name="e_wo_entrp">    -31.40285558 </i>
   <i name="e_0_energy">    -31.40285558 </i>
  </energy>
  <time name="totalsc">    2.13    2.25</time>
  <eigenvalues>
   <array>
    <dimension dim="1">band</dimension>
    <dimension dim="2">kpoint</dimension>
    <dimension dim="3">spin</dimension>
    <field>eigene</field>
    <field>occ</field>
    <set>
     <set comment="spin 1">
      <set comment="kpoint 1">
       <r>   -9.8028    1.0000 </r>
       <r>   -6.8418    1.0000 </r>
       <r>   -6.8418    1.0000 </r>
       <r>   -6.8418    1.0000 </r>
       <r>   -3.4873    1.0000 </r>
       <r>   -3.4873    1.0000 </r>
       <r>   -3.4873    1.0000 </r>
       <r>    0.8065    1.0000 </r>
       <r>    0.8065    1.0000 </r>
       <r>    0.8065    1.0000 </r>
       <r>    0.8065    1.0000 </r>
       <r>    0.8065    1.0000 </r>
       <r>    0.8065    1.0000 </r>
       <r>    4.0145    1.0000 </r>
       <r>    4.0145    1.0000 </r>
       <r>    4.0145    1.0000 </r>
       <r>    5.1753    0.0000 </r>
       <r>    5.1753    0.0000 </r>
       <r>    5.1753    0.0000 </r>
       <r>    5.5741    0.0000 </r>
       <r>    5.5741    0.0000 </r>
       <r>    5.5741    0.0000 </r>
       <r>    5.7149    0.0000 </r>
       <r>    7.8017    0.0000 </r>
      </set>
      <set comment="kpoint 2">
       <r>   -9.6323    1.0000 </r>
       <r>   -7.3962    1.0000 </r>
       <r>   -6.8166    1.0000 </r>
       <r>   -6.8166    1.0000 </r>
       <r>   -3.4023    1.0000 </r>
       <r>   -3.4023    1.0000 </r>
       <r>   -2.7049    1.0000 </r>
       <r>    0.3939    1.0000 </r>
       <r>    0.3939    1.0000 </r>
       <r>    0.4645    1.0000 </r>
       <r>    0.4645    1.0000 </r>
       <r>    0.9969    1.0000 </r>
       <r>    0.9969    1.0000 </r>
       <r>    2.6527    1.0000 </r>
       <r>    3.4358    1.0000 </r>
       <r>    3.4358    1.0000 </r>
       <r>    5.2093    0.0000 </r>
       <r>    6.0221    0.0000 </r>
       <r>    6.0347    0.0000 </r>
       <r>    6.0347    0.0000 </r>
       <r>    6.4452    0.0000 </r>
       <r>    6.4452    0.0000 </r>
       <r>    6.9473    0.0000 </r>
       <r>    7.3115    0.0000 </r>
      </set>
      <set comment="kpoint 3">
       <r>   -9.1306    1.0000 </r>
       <r>   -8.3393    1.0000 </r>
       <r>   -6.7745    1.0000 </r>
       <r>   -6.7745    1.0000 </r>
       <r>   -3.2425    1.0000 </r>
       <r>   -3.2425    1.0000 </r>
       <r>   -1.0976    1.0000 </r>
       <r>   -0.1771    1.0000 </r>
       <r>   -0.1771    1.0000 </r>
       <r>    0.0258    1.0000 </r>
       <r>    0.0258    1.0000 </r>
       <r>    0.7521    1.0000 </r>
       <r>    1.5537    1.0000 </r>
       <r>    1.5537    1.0000 </r>
       <r>    2.4219    1.0000 </r>
       <r>    2.4219    1.0000 </r>
       <r>    5.5665    0.0000 </r>
       <r>    6.2859    0.0000 </r>
       <r>    7.0405    0.0000 </r>
       <r>    7.9653    0.0000 </r>
       <r>    7.9914    0.0000 </r>
       <r>    7.9914    0.0000 </r>
       <r>    8.4337    0.0000 </r>
       <r>    8.4337    0.0000 </r>
      </set>
      <set comment="kpoint 4">
       <r>   -9.4651    1.0000 </r>
       <r>   -7.3193    1.0000 </r>
       <r>   -7.3193    1.0000 </r>
       <r>   -6.8408    1.0000 </r>
       <r>   -3.3219    1.0000 </r>
       <r>   -2.7516    1.0000 </r>
       <r>   -2.7516    1.0000 </r>
       <r>   -0.3957    1.0000 </r>
       <r>    0.4884    1.0000 </r>
       <r>    0.4884    1.0000 </r>
       <r>    0.8442    1.0000 </r>
       <r>    0.8442    1.0000 </r>
       <r>    1.1265    1.0000 </r>
       <r>    1.5092    1.0000 </r>
       <r>    2.8357    1.0000 </r>
       <r>    3.8130    1.0000 </r>
       <r>    5.6773    0.0000 </r>
       <r>    6.1232    0.0000 </r>
       <r>    6.1232    0.0000 </r>
       <r>    6.8014    0.0000 </r>
       <r>    6.8014    0.0000 </r>
       <r>    6.8759    0.0000 </r>
       <r>    7.9363    0.0000 </r>
       <r>    8.1044    0.0000 </r>
      </set>
      <set comment="kpoint 5">
       <r>   -8.9753    1.0000 </r>
       <r>   -8.2103    1.0000 </r>
       <r>   -7.1315    1.0000 </r>
       <r>   -6.9424    1.0000 </r>
       <r>   -3.1278    1.0000 </r>
       <r>   -2.9077    1.0000 </r>
       <r>   -1.4403    1.0000 </r>
       <r>   -0.6884    1.0000 </r>
       <r>   -0.3050    1.0000 </r>
       <r>    0.0141    1.0000 </r>
       <r>    0.7840    1.0000 </r>
       <r>    0.9773    1.0000 </r>
       <r>    1.0485    1.0000 </r>
       <r>    1.7340    1.0000 </r>
       <r>    1.8158    1.0000 </r>
       <r>    2.9413    1.0000 </r>
       <r>    6.5151    0.0000 </r>
       <r>    6.8453    0.0000 </r>
       <r>    7.1961    0.0000 </r>
       <r>    7.6433    0.0000 </r>
       <r>    7.8307    0.0000 </r>
       <r>    8.0904    0.0000 </r>
       <r>    8.6444    0.0000 </r>
       <r>    9.3086    0.0000 </r>
      </set>
      <set comment="kpoint 6">
       <r>   -8.5270    1.0000 </r>
       <r>   -7.8528    1.0000 </r>
       <r>   -7.8528    1.0000 </r>
       <r>   -7.3681    1.0000 </r>
       <r>   -2.7550    1.0000 </r>
       <r>   -2.1329    1.0000 </r>
       <r>   -2.1329    1.0000 </r>
       <r>   -1.1213    1.0000 </r>
       <r>   -0.6020    1.0000 </r>
       <r>    0.0414    1.0000 </r>
       <r>    0.0414    1.0000 </r>
       <r>    0.8142    1.0000 </r>
       <r>    1.9936    1.0000 </r>
       <r>    2.0627    1.0000 </r>
       <r>    2.0627    1.0000 </r>
       <r>    3.0737    1.0000 </r>
       <r>    6.5602    0.0000 </r>
       <r>    7.2972    0.0000 </r>
       <r>    7.7621    0.0000 </r>
       <r>    7.7621    0.0000 </r>
       <r>    8.6714    0.0000 </r>
       <r>    8.6714    0.0000 </r>
       <r>    9.1918    0.0000 </r>
       <r>    9.3231    0.0000 </r>
      </set>
      <set comment="kpoint 7">
       <r>   -9.3022    1.0000 </r>
       <r>   -7.2765    1.0000 </r>
       <r>   -7.2765    1.0000 </r>
       <r>   -7.2765    1.0000 </r>
       <r>   -2.8668    1.0000 </r>
       <r>   -2.8668    1.0000 </r>
       <r>   -2.8668    1.0000 </r>
       <r>    0.0175    1.0000 </r>
       <r>    0.0175    1.0000 </r>
       <r>    0.0175    1.0000 </r>
       <r>    0.5150    1.0000 </r>
       <r>    1.3016    1.0000 </r>
       <r>    1.3016    1.0000 </r>
       <r>    1.3016    1.0000 </r>
       <r>    3.3971    1.0000 </r>
       <r>    3.3971    1.0000 </r>
       <r>    5.8914    0.0000 </r>
       <r>    5.8914    0.0000 </r>
       <r>    5.8914    0.0000 </r>
       <r>    6.1832    0.0000 </r>
       <r>    8.1450    0.0000 </r>
       <r>    8.1450    0.0000 </r>
       <r>    8.1450    0.0000 </r>
       <r>    8.6122    0.0000 </r>
      </set>
      <set comment="kpoint 8">
       <r>   -8.8276    1.0000 </r>
       <r>   -8.0972    1.0000 </r>
       <r>   -7.2030    1.0000 </r>
       <r>   -7.2030    1.0000 </r>
       <r>   -3.0749    1.0000 </r>
       <r>   -3.0749    1.0000 </r>
       <r>   -1.9296    1.0000 </r>
       <r>   -0.7928    1.0000 </r>
       <r>   -0.1673    1.0000 </r>
       <r>   -0.1673    1.0000 </r>
       <r>    1.1441    1.0000 </r>
       <r>    1.3181    1.0000 </r>
       <r>    1.3181    1.0000 </r>
       <r>    1.8075    1.0000 </r>
       <r>    2.5710    1.0000 </r>
       <r>    2.5911    1.0000 </r>
       <r>    6.4579    0.0000 </r>
       <r>    6.7080    0.0000 </r>
       <r>    7.0247    0.0000 </r>
       <r>    7.0247    0.0000 </r>
       <r>    8.1978    0.0000 </r>
       <r>    8.5962    0.0000 </r>
       <r>    9.1716    0.0000 </r>
       <r>    9.1716    0.0000 </r>
      </set>
      <set comment="kpoint 9">
       <r>   -8.4071    1.0000 </r>
       <r>   -7.7987    1.0000 </r>
       <r>   -7.7987    1.0000 </r>
       <r>   -7.4438    1.0000 </r>
       <r>   -3.1237    1.0000 </r>
       <r>   -2.6924    1.0000 </r>
       <r>   -2.6924    1.0000 </r>
       <r>   -1.8906    1.0000 </r>
       <r>    0.2519    1.0000 </r>
       <r>    0.8210    1.0000 </r>
       <r>    0.8210    1.0000 </r>
       <r>    1.7648    1.0000 </r>
       <r>    2.1030    1.0000 </r>
       <r>    2.1474    1.0000 </r>
       <r>    2.1474    1.0000 </r>
       <r>    2.9891    1.0000 </r>
       <r>    6.5195    0.0000 </r>
       <r>    6.6606    0.0000 </r>
       <r>    7.1792    0.0000 </r>
       <r>    7.1792    0.0000 </r>
       <r>    8.2421    0.0000 </r>
       <r>    8.2421    0.0000 </r>
       <r>    8.8615    0.0000 </r>
       <r>    8.9029    0.0000 </r>
      </set>
      <set comment="kpoint 10">
       <r>   -8.0880    1.0000 </r>
       <r>   -7.7041    1.0000 </r>
       <r>   -7.7041    1.0000 </r>
       <r>   -7.7041    1.0000 </r>
       <r>   -3.3012    1.0000 </r>
       <r>   -3.3012    1.0000 </r>
       <r>   -3.3012    1.0000 </r>
       <r>   -2.8376    1.0000 </r>
       <r>    1.7958    1.0000 </r>
       <r>    1.7958    1.0000 </r>
       <r>    1.7958    1.0000 </r>
       <r>    2.3906    1.0000 </r>
       <r>    2.3906    1.0000 </r>
       <r>    2.3906    1.0000 </r>
       <r>    2.7366    1.0000 </r>
       <r>    2.7366    1.0000 </r>
       <r>    5.5708    0.0000 </r>
       <r>    6.3048    0.0000 </r>
       <r>    6.3048    0.0000 </r>
       <r>    6.3048    0.0000 </r>
       <r>    8.3968    0.0000 </r>
       <r>    8.3968    0.0000 </r>
       <r>    8.3968    0.0000 </r>
       <r>    8.7605    0.0000 </r>
      </set>
     </set>
    </set>
   </array>
  </eigenvalues>
  <separator name="orbital magnetization" >
   <v name="MAGDIPOLOUT">      0.00000000      0.00000000      0.00000000</v>
  </separator>
  <dielectricfunction comment="density-density">
   <imag>
    <array>
     <dimension dim="1">gridpoints</dimension>
     <field>energy</field>
     <field>xx</field>
     <field>yy</field>
     <field>zz</field>
     <field>xy</field>
     <field>yz</field>
     <field>zx</field>
     <set>
      <r>     0.0000     0.0000     0.0000     0.0000     0.0000     0.0000     0.0000 </r>
      <r>     0.0230     0.0024     0.0024     0.0024    -0.0000     0.0000    -0.0000 </r>
      <r>     0.0459     0.0047     0.0047     0.0047    -0.0000     0.0000    -0.0000 </r>
      <r>     0.0689     0.0071     0.0071     0.0071    -0.0000     0.0000    -0.0000 </r>
      <r>     0.0919     0.0095     0.0095     0.0095    -0.0000     0.0000    -0.0000 </r>
      <r>     0.1149     0.0119     0.0119     0.0119    -0.0000     0.0000    -0.0000 </r>
      <r>     0.1378     0.0143     0.0143     0.0143    -0.0000     0.0000    -0.0000 </r>
      <r>     0.1608     0.0167     0.0167     0.0167    -0.0000     0.0000    -0.0000 </r>
      <r>     0.1838     0.0191     0.0191     0.0191    -0.0000     0.0000    -0.0000 </r>
      <r>     0.2068     0.0215     0.0215     0.0215    -0.0000     0.0000    -0.0000 </r>
      <r>     0.2297     0.0239     0.0239     0.0239    -0.0000     0.0000    -0.0000 </r>
      <r>     0.2527     0.0263     0.0263     0.0263    -0.0000     0.0000    -0.0000 </r>
      <r>     0.2757     0.0288     0.0288     0.0288    -0.0000     0.0000    -0.0000 </r>
      <r>     0.2987     0.0312     0.0312     0.0312    -0.0000     0.0000    -0.0000 </r>
      <r>     0.3216     0.0337     0.0337     0.0337    -0.0000     0.0000    -0.0000 </r>
      <r>     0.3446     0.0362     0.0362     0.0362    -0.0000     0.0000    -0.0000 </r>
      <r>     0.3676     0.0387     0.0387     0.0387    -0.0000     0.0000    -0.0000 </r>
      <r>     0.3906     0.0412     0.0412     0.0412    -0.0000     0.0000    -0.0000 </r>
      <r>     0.4135     0.0437     0.0437     0.0437    -0.0000     0.0000    -0.0000 </r>
      <r>     0.4365     0.0463     0.0463     0.0463    -0.0000     0.0000    -0.0000 </r>
      <r>     0.4595     0.0489     0.0489     0.0489    -0.0000     0.0000    -0.0000 </r>
      <r>     0.4825     0.0515     0.0515     0.0515    -0.0000     0.0000    -0.0000 </r>
      <r>     0.5054     0.0541     0.0541     0.0541    -0.0000     0.0000    -0.0000 </r>
      <r>     0.5284     0.0568     0.0568     0.0568    -0.0000     0.0000    -0.0000 </r>
      <r>     0.5514     0.0594     0.0594     0.0594    -0.0000     0.0000    -0.0000 </r>
      <r>     0.5744     0.0621     0.0621     0.0621    -0.0000     0.0000    -0.0000 </r>
      <r>     0.5973     0.0649     0.0649     0.0649    -0.0000     0.0000    -0.0000 </r>
      <r>     0.6203     0.0677     0.0677     0.0677    -0.0000     0.0000    -0.0000 </r>
      <r>     0.6433     0.0705     0.0705     0.0705    -0.0000     0.0000    -0.0000 </r>
      <r>     0.6663     0.0733     0.0733     0.0733    -0.0000     0.0000    -0.0000 </r>
      <r>     0.6892     0.0762     0.0762     0.0762    -0.0000     0.0000    -0.0000 </r>
      <r>     0.7122     0.0791     0.0791     0.0791    -0.0000     0.0000    -0.0000 </r>
      <r>     0.7352     0.0821     0.0821     0.0821    -0.0000     0.0000    -0.0000 </r>
      <r>     0.7581     0.0851     0.0851     0.0851    -0.0000     0.0000    -0.0000 </r>
      <r>     0.7811     0.0881     0.0881     0.0881    -0.0000     0.0000    -0.0000 </r>
      <r>     0.8041     0.0912     0.0912     0.0912    -0.0000     0.0000    -0.0000 </r>
      <r>     0.8271     0.0944     0.0944     0.0944    -0.0000     0.0000    -0.0000 </r>
      <r>     0.8500     0.0976     0.0976     0.0976    -0.0000     0.0000    -0.0000 </r>
      <r>     0.8730     0.1008     0.1008     0.1008    -0.0000     0.0000    -0.0000 </r>
      <r>     0.8960     0.1042     0.1042     0.1042    -0.0000     0.0000    -0.0000 </r>
      <r>     0.9190     0.1075     0.1075     0.1075    -0.0000     0.0000    -0.0000 </r>
      <r>     0.9419     0.1110     0.1110     0.1110    -0.0000     0.0000    -0.0000 </r>
      <r>     0.9649     0.1145     0.1145     0.1145    -0.0000     0.0000    -0.0000 </r>
      <r>     0.9879     0.1181     0.1181     0.1181    -0.0000     0.0000    -0.0000 </r>
      <r>     1.0109     0.1217     0.1217     0.1217    -0.0000     0.0000    -0.0000 </r>
      <r>     1.0338     0.1254     0.1254     0.1254    -0.0000     0.0000    -0.0000 </r>
      <r>     1.0568     0.1292     0.1292     0.1292    -0.0000     0.0000    -0.0000 </r>
      <r>     1.0798     0.1331     0.1331     0.1331    -0.0000     0.0000    -0.0000 </r>
      <r>     1.1028     0.1371     0.1371     0.1371    -0.0000     0.0000    -0.0000 </r>
      <r>     1.1257     0.1412     0.1412     0.1412    -0.0000     0.0000    -0.0000 </r>
      <r>     1.1487     0.1454     0.1454     0.1454    -0.0000     0.0000    -0.0000 </r>
      <r>     1.1717     0.1497     0.1497     0.1497    -0.0000     0.0000    -0.0000 </r>
      <r>     1.1947     0.1541     0.1541     0.1541    -0.0000     0.0000    -0.0000 </r>
      <r>     1.2176     0.1586     0.1586     0.1586    -0.0000     0.0000    -0.0000 </r>
      <r>     1.2406     0.1633     0.1633     0.1633    -0.0000     0.0000    -0.0000 </r>
      <r>     1.2636     0.1681     0.1681     0.1681    -0.0000     0.0000    -0.0000 </r>
      <r>     1.2866     0.1730     0.1730     0.1730    -0.0000     0.0000    -0.0000 </r>
      <r>     1.3095     0.1781     0.1781     0.1781    -0.0000     0.0000    -0.0000 </r>
      <r>     1.3325     0.1834     0.1834     0.1834    -0.0000     0.0000    -0.0000 </r>
      <r>     1.3555     0.1888     0.1888     0.1888    -0.0000     0.0000    -0.0000 </r>
      <r>     1.3785     0.1944     0.1944     0.1944    -0.0000     0.0000    -0.0000 </r>
      <r>     1.4014     0.2002     0.2002     0.2002    -0.0000     0.0000    -0.0000 </r>
      <r>     1.4244     0.2063     0.2063     0.2063    -0.0000     0.0000    -0.0000 </r>
      <r>     1.4474     0.2126     0.2126     0.2126    -0.0000     0.0000    -0.0000 </r>
      <r>     1.4703     0.2191     0.2191     0.2191    -0.0000     0.0000    -0.0000 </r>
      <r>     1.4933     0.2259     0.2259     0.2259    -0.0000     0.0000    -0.0000 </r>
      <r>     1.5163     0.2331     0.2331     0.2331    -0.0000     0.0000    -0.0000 </r>
      <r>     1.5393     0.2406     0.2406     0.2406    -0.0000     0.0000    -0.0000 </r>
      <r>     1.5622     0.2485     0.2485     0.2485    -0.0000     0.0000    -0.0000 </r>
      <r>     1.5852     0.2569     0.2569     0.2569    -0.0000     0.0000    -0.0000 </r>
      <r>     1.6082     0.2658     0.2658     0.2658    -0.0000     0.0000    -0.0000 </r>
      <r>     1.6312     0.2752     0.2752     0.2752    -0.0000     0.0000    -0.0000 </r>
      <r>     1.6541     0.2853     0.2853     0.2853    -0.0000     0.0000    -0.0000 </r>
      <r>     1.6771     0.2960     0.2960     0.2960    -0.0000     0.0000    -0.0000 </r>
      <r>     1.7001     0.3075     0.3075     0.3075    -0.0000     0.0000    -0.0000 </r>
      <r>     1.7231     0.3197     0.3197     0.3197    -0.0000     0.0000    -0.0000 </r>
      <r>     1.7460     0.3327     0.3327     0.3327    -0.0000     0.0000    -0.0000 </r>
      <r>     1.7690     0.3466     0.3466     0.3466    -0.0000     0.0000    -0.0000 </r>
      <r>     1.7920     0.3615     0.3615     0.3615    -0.0000     0.0000    -0.0000 </r>
      <r>     1.8150     0.3773     0.3773     0.3773    -0.0000     0.0000    -0.0000 </r>
      <r>     1.8379     0.3942     0.3942     0.3942    -0.0000     0.0000    -0.0000 </r>
      <r>     1.8609     0.4121     0.4121     0.4121    -0.0000     0.0000    -0.0000 </r>
      <r>     1.8839     0.4312     0.4312     0.4312    -0.0000     0.0000    -0.0000 </r>
      <r>     1.9069     0.4514     0.4514     0.4514    -0.0000     0.0000    -0.0000 </r>
      <r>     1.9298     0.4729     0.4729     0.4729    -0.0000     0.0000    -0.0000 </r>
      <r>     1.9528     0.4957     0.4957     0.4957    -0.0000     0.0000    -0.0000 </r>
      <r>     1.9758     0.5198     0.5198     0.5198    -0.0000     0.0000    -0.0000 </r>
      <r>     1.9988     0.5453     0.5453     0.5453    -0.0000     0.0000    -0.0000 </r>
      <r>     2.0217     0.5723     0.5723     0.5723    -0.0000     0.0000    -0.0000 </r>
      <r>     2.0447     0.6008     0.6008     0.6008    -0.0000     0.0000    -0.0000 </r>
      <r>     2.0677     0.6309     0.6309     0.6309    -0.0000     0.0000    -0.0000 </r>
      <r>     2.0906     0.6626     0.6626     0.6626    -0.0000     0.0000    -0.0000 </r>
      <r>     2.1136     0.6962     0.6962     0.6962    -0.0000     0.0000    -0.0000 </r>
      <r>     2.1366     0.7317     0.7317     0.7317    -0.0000     0.0000    -0.0000 </r>
      <r>     2.1596     0.7693     0.7693     0.7693    -0.0000     0.0000    -0.0000 </r>
      <r>     2.1825     0.8090     0.8090     0.8090    -0.0000     0.0000    -0.0000 </r>
      <r>     2.2055     0.8512     0.8512     0.8512    -0.0000     0.0000    -0.0000 </r>
      <r>     2.2285     0.8961     0.8961     0.8961    -0.0000     0.0000    -0.0000 </r>
      <r>     2.2515     0.9440     0.9440     0.9440    -0.0000     0.0000    -0.0000 </r>
      <r>     2.2744     0.9952     0.9952     0.9952    -0.0000     0.0000    -0.0000 </r>
      <r>     2.2974     1.0502     1.0502     1.0502    -0.0000     0.0000    -0.0000 </r>
      <r>     2.3204     1.1094     1.1094     1.1094    -0.0000     0.0000    -0.0000 </r>
      <r>     2.3434     1.1731     1.1731     1.1731    -0.0000     0.0000    -0.0000 </r>
      <r>     2.3663     1.2415     1.2415     1.2415    -0.0000     0.0000    -0.0000 </r>
      <r>     2.3893     1.3149     1.3149     1.3149    -0.0000     0.0000    -0.0000 </r>
      <r>     2.4123     1.3935     1.3935     1.3935    -0.0000     0.0000    -0.0000 </r>
      <r>     2.4353     1.4777     1.4777     1.4777    -0.0000     0.0000    -0.0000 </r>
      <r>     2.4582     1.5678     1.5678     1.5678    -0.0000     0.0000     0.0000 </r>
      <r>     2.4812     1.6645     1.6645     1.6645    -0.0000     0.0000     0.0000 </r>
      <r>     2.5042     1.7686     1.7686     1.7686    -0.0000     0.0000     0.0000 </r>
      <r>     2.5272     1.8809     1.8809     1.8809     0.0000     0.0000    -0.0000 </r>
      <r>     2.5501     2.0031     2.0031     2.0031     0.0000     0.0000    -0.0000 </r>
      <r>     2.5731     2.1368     2.1368     2.1368     0.0000     0.0000    -0.0000 </r>
      <r>     2.5961     2.2846     2.2846     2.2846     0.0000     0.0000    -0.0000 </r>
      <r>     2.6191     2.4496     2.4496     2.4496     0.0000     0.0000    -0.0000 </r>
      <r>     2.6420     2.6359     2.6359     2.6359     0.0000     0.0000    -0.0000 </r>
      <r>     2.6650     2.8484     2.8484     2.8484     0.0000     0.0000    -0.0000 </r>
      <r>     2.6880     3.0936     3.0936     3.0936     0.0000     0.0000    -0.0000 </r>
      <r>     2.7110     3.3798     3.3798     3.3798     0.0000     0.0000    -0.0000 </r>
      <r>     2.7339     3.7169     3.7169     3.7169     0.0000    -0.0000    -0.0000 </r>
      <r>     2.7569     4.1150     4.1150     4.1150     0.0000    -0.0000    -0.0000 </r>
      <r>     2.7799     4.5783     4.5783     4.5783    -0.0000    -0.0000     0.0000 </r>
      <r>     2.8028     5.0918     5.0918     5.0918    -0.0000    -0.0000     0.0000 </r>
      <r>     2.8258     5.6051     5.6051     5.6051    -0.0000    -0.0000     0.0000 </r>
      <r>     2.8488     6.0395     6.0395     6.0395    -0.0000    -0.0000     0.0000 </r>
      <r>     2.8718     6.3445     6.3445     6.3445    -0.0000    -0.0000    -0.0000 </r>
      <r>     2.8947     6.5445     6.5445     6.5445    -0.0000    -0.0000    -0.0000 </r>
      <r>     2.9177     6.7055     6.7055     6.7055    -0.0000    -0.0000    -0.0000 </r>
      <r>     2.9407     6.8803     6.8803     6.8803    -0.0000    -0.0000    -0.0000 </r>
      <r>     2.9637     7.0927     7.0927     7.0927    -0.0000    -0.0000    -0.0000 </r>
      <r>     2.9866     7.3432     7.3432     7.3432    -0.0000    -0.0000    -0.0000 </r>
      <r>     3.0096     7.6121     7.6121     7.6121    -0.0000     0.0000     0.0000 </r>
      <r>     3.0326     7.8652     7.8652     7.8652    -0.0000     0.0000     0.0000 </r>
      <r>     3.0556     8.0749     8.0749     8.0749    -0.0000     0.0000     0.0000 </r>
      <r>     3.0785     8.2413     8.2413     8.2413     0.0000     0.0000     0.0000 </r>
      <r>     3.1015     8.3878     8.3878     8.3878     0.0000     0.0000     0.0000 </r>
      <r>     3.1245     8.5380     8.5380     8.5380     0.0000     0.0000     0.0000 </r>
      <r>     3.1475     8.7045     8.7045     8.7045     0.0000     0.0000     0.0000 </r>
      <r>     3.1704     8.8904     8.8904     8.8904     0.0000     0.0000     0.0000 </r>
      <r>     3.1934     9.0949     9.0949     9.0949     0.0000     0.0000     0.0000 </r>
      <r>     3.2164     9.3162     9.3162     9.3162    -0.0000     0.0000    -0.0000 </r>
      <r>     3.2394     9.5530     9.5530     9.5530    -0.0000     0.0000    -0.0000 </r>
      <r>     3.2623     9.8055     9.8055     9.8055    -0.0000     0.0000    -0.0000 </r>
      <r>     3.2853    10.0751    10.0751    10.0751    -0.0000     0.0000    -0.0000 </r>
      <r>     3.3083    10.3646    10.3646    10.3646    -0.0000     0.0000    -0.0000 </r>
      <r>     3.3313    10.6789    10.6789    10.6789    -0.0000     0.0000    -0.0000 </r>
      <r>     3.3542    11.0251    11.0251    11.0251    -0.0000     0.0000    -0.0000 </r>
      <r>     3.3772    11.4125    11.4125    11.4125    -0.0000     0.0000    -0.0000 </r>
      <r>     3.4002    11.8526    11.8526    11.8526    -0.0000     0.0000    -0.0000 </r>
      <r>     3.4232    12.3546    12.3546    12.3546    -0.0000     0.0000    -0.0000 </r>
      <r>     3.4461    12.9157    12.9157    12.9157    -0.0000     0.0000    -0.0000 </r>
      <r>     3.4691    13.5024    13.5024    13.5024    -0.0000     0.0000    -0.0000 </r>
      <r>     3.4921    14.0364    14.0364    14.0364    -0.0000     0.0000    -0.0000 </r>
      <r>     3.5150    14.4160    14.4160    14.4160    -0.0000     0.0000    -0.0000 </r>
      <r>     3.5380    14.5811    14.5811    14.5811    -0.0000     0.0000    -0.0000 </r>
      <r>     3.5610    14.5545    14.5545    14.5545    -0.0000    -0.0000    -0.0000 </r>
      <r>     3.5840    14.4117    14.4117    14.4117    -0.0000    -0.0000    -0.0000 </r>
      <r>     3.6069    14.2260    14.2260    14.2260    -0.0000    -0.0000    -0.0000 </r>
      <r>     3.6299    14.0435    14.0435    14.0435    -0.0000    -0.0000    -0.0000 </r>
      <r>     3.6529    13.8860    13.8860    13.8860    -0.0000    -0.0000    -0.0000 </r>
      <r>     3.6759    13.7618    13.7618    13.7618    -0.0000    -0.0000    -0.0000 </r>
      <r>     3.6988    13.6745    13.6745    13.6745    -0.0000    -0.0000    -0.0000 </r>
      <r>     3.7218    13.6282    13.6282    13.6282    -0.0000     0.0000    -0.0000 </r>
      <r>     3.7448    13.6306    13.6306    13.6306    -0.0000     0.0000    -0.0000 </r>
      <r>     3.7678    13.6937    13.6937    13.6937    -0.0000     0.0000     0.0000 </r>
      <r>     3.7907    13.8333    13.8333    13.8333    -0.0000     0.0000     0.0000 </r>
      <r>     3.8137    14.0663    14.0663    14.0663    -0.0000     0.0000     0.0000 </r>
      <r>     3.8367    14.4054    14.4054    14.4054    -0.0000     0.0000     0.0000 </r>
      <r>     3.8597    14.8477    14.8477    14.8477    -0.0000     0.0000     0.0000 </r>
      <r>     3.8826    15.3619    15.3619    15.3619    -0.0000     0.0000     0.0000 </r>
      <r>     3.9056    15.8818    15.8818    15.8818    -0.0000     0.0000     0.0000 </r>
      <r>     3.9286    16.3256    16.3256    16.3256    -0.0000     0.0000     0.0000 </r>
      <r>     3.9516    16.6449    16.6449    16.6449    -0.0000     0.0000    -0.0000 </r>
      <r>     3.9745    16.8588    16.8588    16.8588    -0.0000     0.0000    -0.0000 </r>
      <r>     3.9975    17.0212    17.0212    17.0212    -0.0000     0.0000    -0.0000 </r>
      <r>     4.0205    17.1739    17.1739    17.1739    -0.0000     0.0000    -0.0000 </r>
      <r>     4.0435    17.3344    17.3344    17.3344    -0.0000     0.0000    -0.0000 </r>
      <r>     4.0664    17.5055    17.5055    17.5055    -0.0000     0.0000    -0.0000 </r>
      <r>     4.0894    17.6854    17.6854    17.6854    -0.0000     0.0000    -0.0000 </r>
      <r>     4.1124    17.8739    17.8739    17.8739     0.0000     0.0000    -0.0000 </r>
      <r>     4.1354    18.0762    18.0762    18.0762     0.0000     0.0000    -0.0000 </r>
      <r>     4.1583    18.3044    18.3044    18.3044     0.0000     0.0000    -0.0000 </r>
      <r>     4.1813    18.5769    18.5769    18.5769     0.0000     0.0000    -0.0000 </r>
      <r>     4.2043    18.9137    18.9137    18.9137     0.0000     0.0000    -0.0000 </r>
      <r>     4.2272    19.3288    19.3288    19.3288     0.0000     0.0000    -0.0000 </r>
      <r>     4.2502    19.8208    19.8208    19.8208     0.0000     0.0000    -0.0000 </r>
      <r>     4.2732    20.3707    20.3707    20.3707     0.0000     0.0000    -0.0000 </r>
      <r>     4.2962    20.9514    20.9514    20.9514     0.0000     0.0000    -0.0000 </r>
      <r>     4.3191    21.5434    21.5434    21.5434     0.0000     0.0000    -0.0000 </r>
      <r>     4.3421    22.1411    22.1411    22.1411     0.0000     0.0000    -0.0000 </r>
      <r>     4.3651    22.7488    22.7488    22.7488    -0.0000     0.0000    -0.0000 </r>
      <r>     4.3881    23.3724    23.3724    23.3724    -0.0000     0.0000    -0.0000 </r>
      <r>     4.4110    24.0113    24.0113    24.0113    -0.0000     0.0000    -0.0000 </r>
      <r>     4.4340    24.6527    24.6527    24.6527    -0.0000     0.0000    -0.0000 </r>
      <r>     4.4570    25.2715    25.2715    25.2715    -0.0000     0.0000    -0.0000 </r>
      <r>     4.4800    25.8342    25.8342    25.8342    -0.0000     0.0000    -0.0000 </r>
      <r>     4.5029    26.3041    26.3041    26.3041    -0.0000     0.0000    -0.0000 </r>
      <r>     4.5259    26.6483    26.6483    26.6483    -0.0000    -0.0000    -0.0000 </r>
      <r>     4.5489    26.8499    26.8499    26.8499    -0.0000    -0.0000    -0.0000 </r>
      <r>     4.5719    26.9172    26.9172    26.9172    -0.0000    -0.0000    -0.0000 </r>
      <r>     4.5948    26.8721    26.8721    26.8721    -0.0000    -0.0000    -0.0000 </r>
      <r>     4.6178    26.7299    26.7299    26.7299    -0.0000    -0.0000    -0.0000 </r>
      <r>     4.6408    26.4928    26.4928    26.4928    -0.0000    -0.0000    -0.0000 </r>
      <r>     4.6638    26.1611    26.1611    26.1611    -0.0000     0.0000    -0.0000 </r>
      <r>     4.6867    25.7454    25.7454    25.7454    -0.0000     0.0000    -0.0000 </r>
      <r>     4.7097    25.2687    25.2687    25.2687    -0.0000     0.0000    -0.0000 </r>
      <r>     4.7327    24.7599    24.7599    24.7599    -0.0000     0.0000    -0.0000 </r>
      <r>     4.7557    24.2489    24.2489    24.2489    -0.0000     0.0000    -0.0000 </r>
      <r>     4.7786    23.7658    23.7658    23.7658    -0.0000     0.0000    -0.0000 </r>
      <r>     4.8016    23.3406    23.3406    23.3406    -0.0000     0.0000    -0.0000 </r>
      <r>     4.8246    22.9971    22.9971    22.9971    -0.0000     0.0000    -0.0000 </r>
      <r>     4.8475    22.7444    22.7444    22.7444    -0.0000     0.0000    -0.0000 </r>
      <r>     4.8705    22.5750    22.5750    22.5750    -0.0000     0.0000    -0.0000 </r>
      <r>     4.8935    22.4713    22.4713    22.4713    -0.0000     0.0000    -0.0000 </r>
      <r>     4.9165    22.4134    22.4134    22.4134    -0.0000     0.0000    -0.0000 </r>
      <r>     4.9394    22.3832    22.3832    22.3832    -0.0000     0.0000    -0.0000 </r>
      <r>     4.9624    22.3654    22.3654    22.3654    -0.0000     0.0000    -0.0000 </r>
      <r>     4.9854    22.3444    22.3444    22.3444    -0.0000    -0.0000    -0.0000 </r>
      <r>     5.0084    22.3057    22.3057    22.3057    -0.0000    -0.0000    -0.0000 </r>
      <r>     5.0313    22.2411    22.2411    22.2411    -0.0000     0.0000    -0.0000 </r>
      <r>     5.0543    22.1509    22.1509    22.1509    -0.0000     0.0000    -0.0000 </r>
      <r>     5.0773    22.0372    22.0372    22.0372    -0.0000     0.0000    -0.0000 </r>
      <r>     5.1003    21.8995    21.8995    21.8995    -0.0000     0.0000    -0.0000 </r>
      <r>     5.1232    21.7358    21.7358    21.7358    -0.0000    -0.0000    -0.0000 </r>
      <r>     5.1462    21.5454    21.5454    21.5454    -0.0000    -0.0000    -0.0000 </r>
      <r>     5.1692    21.3300    21.3300    21.3300    -0.0000    -0.0000    -0.0000 </r>
      <r>     5.1922    21.0945    21.0945    21.0945    -0.0000    -0.0000    -0.0000 </r>
      <r>     5.2151    20.8453    20.8453    20.8453    -0.0000    -0.0000     0.0000 </r>
      <r>     5.2381    20.5885    20.5885    20.5885    -0.0000    -0.0000     0.0000 </r>
      <r>     5.2611    20.3285    20.3285    20.3285    -0.0000    -0.0000     0.0000 </r>
      <r>     5.2841    20.0662    20.0662    20.0662    -0.0000    -0.0000     0.0000 </r>
      <r>     5.3070    19.7999    19.7999    19.7999    -0.0000    -0.0000     0.0000 </r>
      <r>     5.3300    19.5252    19.5252    19.5252    -0.0000    -0.0000     0.0000 </r>
      <r>     5.3530    19.2370    19.2370    19.2370    -0.0000    -0.0000     0.0000 </r>
      <r>     5.3760    18.9308    18.9308    18.9308     0.0000    -0.0000     0.0000 </r>
      <r>     5.3989    18.6040    18.6040    18.6040     0.0000    -0.0000     0.0000 </r>
      <r>     5.4219    18.2544    18.2544    18.2544     0.0000    -0.0000     0.0000 </r>
      <r>     5.4449    17.8782    17.8782    17.8782     0.0000    -0.0000     0.0000 </r>
      <r>     5.4679    17.4715    17.4715    17.4715     0.0000    -0.0000     0.0000 </r>
      <r>     5.4908    17.0358    17.0358    17.0358     0.0000    -0.0000     0.0000 </r>
      <r>     5.5138    16.5809    16.5809    16.5809     0.0000    -0.0000     0.0000 </r>
      <r>     5.5368    16.1192    16.1192    16.1192    -0.0000    -0.0000     0.0000 </r>
      <r>     5.5597    15.6609    15.6609    15.6609    -0.0000    -0.0000     0.0000 </r>
      <r>     5.5827    15.2133    15.2133    15.2133    -0.0000    -0.0000     0.0000 </r>
      <r>     5.6057    14.7819    14.7819    14.7819    -0.0000    -0.0000     0.0000 </r>
      <r>     5.6287    14.3691    14.3691    14.3691    -0.0000    -0.0000     0.0000 </r>
      <r>     5.6516    13.9741    13.9741    13.9741    -0.0000    -0.0000     0.0000 </r>
      <r>     5.6746    13.5953    13.5953    13.5953    -0.0000    -0.0000     0.0000 </r>
      <r>     5.6976    13.2348    13.2348    13.2348    -0.0000    -0.0000     0.0000 </r>
      <r>     5.7206    12.8991    12.8991    12.8991     0.0000     0.0000     0.0000 </r>
      <r>     5.7435    12.5958    12.5958    12.5958     0.0000     0.0000     0.0000 </r>
      <r>     5.7665    12.3304    12.3304    12.3304     0.0000     0.0000     0.0000 </r>
      <r>     5.7895    12.1079    12.1079    12.1079     0.0000     0.0000     0.0000 </r>
      <r>     5.8125    11.9346    11.9346    11.9346     0.0000     0.0000     0.0000 </r>
      <r>     5.8354    11.8191    11.8191    11.8191     0.0000     0.0000     0.0000 </r>
      <r>     5.8584    11.7694    11.7694    11.7694     0.0000     0.0000     0.0000 </r>
      <r>     5.8814    11.7895    11.7895    11.7895     0.0000     0.0000     0.0000 </r>
      <r>     5.9044    11.8729    11.8729    11.8729     0.0000     0.0000     0.0000 </r>
      <r>     5.9273    11.9973    11.9973    11.9973     0.0000     0.0000     0.0000 </r>
      <r>     5.9503    12.1292    12.1292    12.1292     0.0000     0.0000     0.0000 </r>
      <r>     5.9733    12.2353    12.2353    12.2353     0.0000     0.0000     0.0000 </r>
      <r>     5.9963    12.2876    12.2876    12.2876     0.0000     0.0000     0.0000 </r>
      <r>     6.0192    12.2604    12.2604    12.2604     0.0000     0.0000     0.0000 </r>
      <r>     6.0422    12.1330    12.1330    12.1330     0.0000     0.0000     0.0000 </r>
      <r>     6.0652    11.9013    11.9013    11.9013     0.0000     0.0000     0.0000 </r>
      <r>     6.0882    11.5821    11.5821    11.5821     0.0000     0.0000     0.0000 </r>
      <r>     6.1111    11.2067    11.2067    11.2067     0.0000     0.0000     0.0000 </r>
      <r>     6.1341    10.8113    10.8113    10.8113     0.0000     0.0000     0.0000 </r>
      <r>     6.1571    10.4249    10.4249    10.4249     0.0000     0.0000     0.0000 </r>
      <r>     6.1801    10.0619    10.0619    10.0619     0.0000     0.0000     0.0000 </r>
      <r>     6.2030     9.7243     9.7243     9.7243     0.0000     0.0000     0.0000 </r>
      <r>     6.2260     9.4071     9.4071     9.4071     0.0000     0.0000     0.0000 </r>
      <r>     6.2490     9.1045     9.1045     9.1045     0.0000     0.0000     0.0000 </r>
      <r>     6.2719     8.8120     8.8120     8.8120     0.0000     0.0000     0.0000 </r>
      <r>     6.2949     8.5276     8.5276     8.5276     0.0000     0.0000     0.0000 </r>
      <r>     6.3179     8.2508     8.2508     8.2508     0.0000     0.0000     0.0000 </r>
      <r>     6.3409     7.9814     7.9814     7.9814     0.0000     0.0000     0.0000 </r>
      <r>     6.3638     7.7194     7.7194     7.7194     0.0000     0.0000     0.0000 </r>
      <r>     6.3868     7.4647     7.4647     7.4647     0.0000     0.0000     0.0000 </r>
      <r>     6.4098     7.2175     7.2175     7.2175     0.0000     0.0000    -0.0000 </r>
      <r>     6.4328     6.9779     6.9779     6.9779    -0.0000     0.0000    -0.0000 </r>
      <r>     6.4557     6.7467     6.7467     6.7467    -0.0000     0.0000    -0.0000 </r>
      <r>     6.4787     6.5253     6.5253     6.5253    -0.0000     0.0000    -0.0000 </r>
      <r>     6.5017     6.3157     6.3157     6.3157    -0.0000     0.0000    -0.0000 </r>
      <r>     6.5247     6.1203     6.1203     6.1203    -0.0000     0.0000    -0.0000 </r>
      <r>     6.5476     5.9405     5.9405     5.9405    -0.0000     0.0000    -0.0000 </r>
      <r>     6.5706     5.7748     5.7748     5.7748    -0.0000     0.0000    -0.0000 </r>
      <r>     6.5936     5.6163     5.6163     5.6163    -0.0000     0.0000    -0.0000 </r>
      <r>     6.6166     5.4538     5.4538     5.4538    -0.0000     0.0000    -0.0000 </r>
      <r>     6.6395     5.2808     5.2808     5.2808    -0.0000     0.0000    -0.0000 </r>
      <r>     6.6625     5.1018     5.1018     5.1018    -0.0000     0.0000    -0.0000 </r>
      <r>     6.6855     4.9264     4.9264     4.9264    -0.0000     0.0000    -0.0000 </r>
      <r>     6.7085     4.7616     4.7616     4.7616    -0.0000     0.0000    -0.0000 </r>
      <r>     6.7314     4.6096     4.6096     4.6096    -0.0000     0.0000    -0.0000 </r>
      <r>     6.7544     4.4707     4.4707     4.4707    -0.0000     0.0000    -0.0000 </r>
      <r>     6.7774     4.3446     4.3446     4.3446    -0.0000     0.0000    -0.0000 </r>
      <r>     6.8004     4.2311     4.2311     4.2311    -0.0000     0.0000    -0.0000 </r>
      <r>     6.8233     4.1298     4.1298     4.1298    -0.0000     0.0000    -0.0000 </r>
      <r>     6.8463     4.0402     4.0402     4.0402    -0.0000     0.0000    -0.0000 </r>
      <r>     6.8693     3.9619     3.9619     3.9619    -0.0000     0.0000    -0.0000 </r>
      <r>     6.8923     3.8948     3.8948     3.8948    -0.0000     0.0000    -0.0000 </r>
      <r>     6.9152     3.8384     3.8384     3.8384    -0.0000     0.0000    -0.0000 </r>
      <r>     6.9382     3.7922     3.7922     3.7922    -0.0000     0.0000    -0.0000 </r>
      <r>     6.9612     3.7550     3.7550     3.7550    -0.0000     0.0000     0.0000 </r>
      <r>     6.9841     3.7260     3.7260     3.7260    -0.0000     0.0000     0.0000 </r>
      <r>     7.0071     3.7039     3.7039     3.7039    -0.0000     0.0000     0.0000 </r>
      <r>     7.0301     3.6877     3.6877     3.6877    -0.0000     0.0000     0.0000 </r>
      <r>     7.0531     3.6759     3.6759     3.6759    -0.0000     0.0000     0.0000 </r>
      <r>     7.0760     3.6671     3.6671     3.6671    -0.0000     0.0000     0.0000 </r>
      <r>     7.0990     3.6600     3.6600     3.6600    -0.0000     0.0000     0.0000 </r>
      <r>     7.1220     3.6539     3.6539     3.6539    -0.0000    -0.0000     0.0000 </r>
      <r>     7.1450     3.6485     3.6485     3.6485    -0.0000    -0.0000     0.0000 </r>
      <r>     7.1679     3.6442     3.6442     3.6442    -0.0000    -0.0000     0.0000 </r>
      <r>     7.1909     3.6419     3.6419     3.6419    -0.0000    -0.0000     0.0000 </r>
      <r>     7.2139     3.6432     3.6432     3.6432    -0.0000    -0.0000     0.0000 </r>
      <r>     7.2369     3.6499     3.6499     3.6499    -0.0000    -0.0000     0.0000 </r>
      <r>     7.2598     3.6634     3.6634     3.6634    -0.0000    -0.0000     0.0000 </r>
      <r>     7.2828     3.6844     3.6844     3.6844    -0.0000    -0.0000     0.0000 </r>
      <r>     7.3058     3.7113     3.7113     3.7113    -0.0000    -0.0000     0.0000 </r>
      <r>     7.3288     3.7402     3.7402     3.7402    -0.0000    -0.0000     0.0000 </r>
      <r>     7.3517     3.7644     3.7644     3.7644    -0.0000    -0.0000     0.0000 </r>
      <r>     7.3747     3.7760     3.7760     3.7760    -0.0000    -0.0000     0.0000 </r>
      <r>     7.3977     3.7682     3.7682     3.7682    -0.0000    -0.0000     0.0000 </r>
      <r>     7.4207     3.7358     3.7358     3.7358    -0.0000    -0.0000     0.0000 </r>
      <r>     7.4436     3.6780     3.6780     3.6780    -0.0000    -0.0000     0.0000 </r>
      <r>     7.4666     3.6005     3.6005     3.6005    -0.0000    -0.0000     0.0000 </r>
      <r>     7.4896     3.5132     3.5132     3.5132    -0.0000    -0.0000     0.0000 </r>
      <r>     7.5126     3.4250     3.4250     3.4250    -0.0000    -0.0000     0.0000 </r>
      <r>     7.5355     3.3409     3.3409     3.3409    -0.0000    -0.0000     0.0000 </r>
      <r>     7.5585     3.2628     3.2628     3.2628    -0.0000    -0.0000     0.0000 </r>
      <r>     7.5815     3.1908     3.1908     3.1908    -0.0000    -0.0000     0.0000 </r>
      <r>     7.6044     3.1239     3.1239     3.1239    -0.0000    -0.0000     0.0000 </r>
      <r>     7.6274     3.0610     3.0610     3.0610    -0.0000    -0.0000     0.0000 </r>
      <r>     7.6504     3.0011     3.0011     3.0011    -0.0000    -0.0000     0.0000 </r>
      <r>     7.6734     2.9436     2.9436     2.9436    -0.0000    -0.0000     0.0000 </r>
      <r>     7.6963     2.8883     2.8883     2.8883    -0.0000    -0.0000     0.0000 </r>
      <r>     7.7193     2.8355     2.8355     2.8355    -0.0000    -0.0000     0.0000 </r>
      <r>     7.7423     2.7856     2.7856     2.7856    -0.0000    -0.0000     0.0000 </r>
      <r>     7.7653     2.7395     2.7395     2.7395    -0.0000    -0.0000     0.0000 </r>
      <r>     7.7882     2.6979     2.6979     2.6979    -0.0000    -0.0000     0.0000 </r>
      <r>     7.8112     2.6617     2.6617     2.6617    -0.0000    -0.0000     0.0000 </r>
      <r>     7.8342     2.6312     2.6312     2.6312    -0.0000    -0.0000     0.0000 </r>
      <r>     7.8572     2.6060     2.6060     2.6060    -0.0000    -0.0000     0.0000 </r>
      <r>     7.8801     2.5842     2.5842     2.5842    -0.0000    -0.0000     0.0000 </r>
      <r>     7.9031     2.5632     2.5632     2.5632    -0.0000    -0.0000     0.0000 </r>
      <r>     7.9261     2.5410     2.5410     2.5410    -0.0000    -0.0000     0.0000 </r>
      <r>     7.9491     2.5163     2.5163     2.5163    -0.0000    -0.0000     0.0000 </r>
      <r>     7.9720     2.4888     2.4888     2.4888    -0.0000    -0.0000    -0.0000 </r>
      <r>     7.9950     2.4584     2.4584     2.4584    -0.0000    -0.0000    -0.0000 </r>
      <r>     8.0180     2.4256     2.4256     2.4256    -0.0000    -0.0000    -0.0000 </r>
      <r>     8.0410     2.3915     2.3915     2.3915    -0.0000    -0.0000    -0.0000 </r>
      <r>     8.0639     2.3576     2.3576     2.3576    -0.0000    -0.0000    -0.0000 </r>
      <r>     8.0869     2.3250     2.3250     2.3250    -0.0000    -0.0000    -0.0000 </r>
      <r>     8.1099     2.2943     2.2943     2.2943     0.0000    -0.0000    -0.0000 </r>
      <r>     8.1329     2.2657     2.2657     2.2657     0.0000    -0.0000    -0.0000 </r>
      <r>     8.1558     2.2391     2.2391     2.2391     0.0000    -0.0000    -0.0000 </r>
      <r>     8.1788     2.2144     2.2144     2.2144     0.0000    -0.0000    -0.0000 </r>
      <r>     8.2018     2.1917     2.1917     2.1917     0.0000    -0.0000    -0.0000 </r>
      <r>     8.2248     2.1712     2.1712     2.1712     0.0000    -0.0000    -0.0000 </r>
      <r>     8.2477     2.1536     2.1536     2.1536     0.0000    -0.0000    -0.0000 </r>
      <r>     8.2707     2.1395     2.1395     2.1395    -0.0000    -0.0000    -0.0000 </r>
      <r>     8.2937     2.1298     2.1298     2.1298    -0.0000    -0.0000    -0.0000 </r>
      <r>     8.3166     2.1255     2.1255     2.1255    -0.0000    -0.0000    -0.0000 </r>
      <r>     8.3396     2.1262     2.1262     2.1262    -0.0000    -0.0000    -0.0000 </r>
      <r>     8.3626     2.1285     2.1285     2.1285     0.0000    -0.0000    -0.0000 </r>
      <r>     8.3856     2.1223     2.1223     2.1223     0.0000    -0.0000    -0.0000 </r>
      <r>     8.4085     2.0935     2.0935     2.0935     0.0000    -0.0000    -0.0000 </r>
      <r>     8.4315     2.0346     2.0346     2.0346     0.0000    -0.0000    -0.0000 </r>
      <r>     8.4545     1.9528     1.9528     1.9528     0.0000    -0.0000    -0.0000 </r>
      <r>     8.4775     1.8614     1.8614     1.8614    -0.0000    -0.0000    -0.0000 </r>
      <r>     8.5004     1.7695     1.7695     1.7695    -0.0000    -0.0000    -0.0000 </r>
      <r>     8.5234     1.6810     1.6810     1.6810    -0.0000    -0.0000    -0.0000 </r>
      <r>     8.5464     1.5980     1.5980     1.5980    -0.0000    -0.0000     0.0000 </r>
      <r>     8.5694     1.5227     1.5227     1.5227    -0.0000    -0.0000     0.0000 </r>
      <r>     8.5923     1.4566     1.4566     1.4566    -0.0000    -0.0000     0.0000 </r>
      <r>     8.6153     1.4000     1.4000     1.4000    -0.0000    -0.0000     0.0000 </r>
      <r>     8.6383     1.3525     1.3525     1.3525    -0.0000    -0.0000     0.0000 </r>
      <r>     8.6613     1.3135     1.3135     1.3135    -0.0000    -0.0000     0.0000 </r>
      <r>     8.6842     1.2819     1.2819     1.2819    -0.0000    -0.0000     0.0000 </r>
      <r>     8.7072     1.2558     1.2558     1.2558    -0.0000    -0.0000     0.0000 </r>
      <r>     8.7302     1.2332     1.2332     1.2332    -0.0000    -0.0000     0.0000 </r>
      <r>     8.7532     1.2119     1.2119     1.2119    -0.0000    -0.0000     0.0000 </r>
      <r>     8.7761     1.1904     1.1904     1.1904    -0.0000    -0.0000     0.0000 </r>
      <r>     8.7991     1.1680     1.1680     1.1680    -0.0000    -0.0000     0.0000 </r>
      <r>     8.8221     1.1447     1.1447     1.1447    -0.0000    -0.0000     0.0000 </r>
      <r>     8.8451     1.1215     1.1215     1.1215    -0.0000    -0.0000     0.0000 </r>
      <r>     8.8680     1.0993     1.0993     1.0993    -0.0000    -0.0000     0.0000 </r>
      <r>     8.8910     1.0792     1.0792     1.0792    -0.0000    -0.0000     0.0000 </r>
      <r>     8.9140     1.0619     1.0619     1.0619    -0.0000    -0.0000     0.0000 </r>
      <r>     8.9370     1.0477     1.0477     1.0477    -0.0000    -0.0000     0.0000 </r>
      <r>     8.9599     1.0362     1.0362     1.0362    -0.0000    -0.0000     0.0000 </r>
      <r>     8.9829     1.0268     1.0268     1.0268    -0.0000    -0.0000     0.0000 </r>
      <r>     9.0059     1.0185     1.0185     1.0185    -0.0000     0.0000     0.0000 </r>
      <r>     9.0288     1.0097     1.0097     1.0097    -0.0000     0.0000     0.0000 </r>
      <r>     9.0518     0.9983     0.9983     0.9983    -0.0000     0.0000     0.0000 </r>
      <r>     9.0748     0.9827     0.9827     0.9827    -0.0000     0.0000     0.0000 </r>
      <r>     9.0978     0.9628     0.9628     0.9628    -0.0000     0.0000     0.0000 </r>
      <r>     9.1207     0.9399     0.9399     0.9399    -0.0000     0.0000     0.0000 </r>
      <r>     9.1437     0.9160     0.9160     0.9160    -0.0000     0.0000    -0.0000 </r>
      <r>     9.1667     0.8925     0.8925     0.8925    -0.0000     0.0000    -0.0000 </r>
      <r>     9.1897     0.8699     0.8699     0.8699    -0.0000     0.0000    -0.0000 </r>
      <r>     9.2126     0.8485     0.8485     0.8485    -0.0000     0.0000    -0.0000 </r>
      <r>     9.2356     0.8281     0.8281     0.8281     0.0000     0.0000    -0.0000 </r>
      <r>     9.2586     0.8086     0.8086     0.8086     0.0000     0.0000    -0.0000 </r>
      <r>     9.2816     0.7890     0.7890     0.7890     0.0000     0.0000    -0.0000 </r>
      <r>     9.3045     0.7685     0.7685     0.7685     0.0000     0.0000    -0.0000 </r>
      <r>     9.3275     0.7467     0.7467     0.7467     0.0000     0.0000    -0.0000 </r>
      <r>     9.3505     0.7243     0.7243     0.7243     0.0000     0.0000    -0.0000 </r>
      <r>     9.3735     0.7031     0.7031     0.7031     0.0000     0.0000    -0.0000 </r>
      <r>     9.3964     0.6838     0.6838     0.6838    -0.0000     0.0000    -0.0000 </r>
      <r>     9.4194     0.6660     0.6660     0.6660    -0.0000     0.0000    -0.0000 </r>
      <r>     9.4424     0.6486     0.6486     0.6486    -0.0000     0.0000    -0.0000 </r>
      <r>     9.4654     0.6305     0.6305     0.6305    -0.0000     0.0000    -0.0000 </r>
      <r>     9.4883     0.6120     0.6120     0.6120    -0.0000     0.0000    -0.0000 </r>
      <r>     9.5113     0.5939     0.5939     0.5939    -0.0000     0.0000    -0.0000 </r>
      <r>     9.5343     0.5767     0.5767     0.5767    -0.0000     0.0000    -0.0000 </r>
      <r>     9.5573     0.5607     0.5607     0.5607    -0.0000     0.0000    -0.0000 </r>
      <r>     9.5802     0.5462     0.5462     0.5462    -0.0000     0.0000    -0.0000 </r>
      <r>     9.6032     0.5327     0.5327     0.5327    -0.0000     0.0000    -0.0000 </r>
      <r>     9.6262     0.5202     0.5202     0.5202    -0.0000     0.0000    -0.0000 </r>
      <r>     9.6492     0.5084     0.5084     0.5084    -0.0000     0.0000    -0.0000 </r>
      <r>     9.6721     0.4976     0.4976     0.4976    -0.0000     0.0000    -0.0000 </r>
      <r>     9.6951     0.4879     0.4879     0.4879    -0.0000     0.0000    -0.0000 </r>
      <r>     9.7181     0.4793     0.4793     0.4793    -0.0000     0.0000    -0.0000 </r>
      <r>     9.7410     0.4717     0.4717     0.4717    -0.0000     0.0000    -0.0000 </r>
      <r>     9.7640     0.4646     0.4646     0.4646    -0.0000     0.0000    -0.0000 </r>
      <r>     9.7870     0.4577     0.4577     0.4577     0.0000     0.0000    -0.0000 </r>
      <r>     9.8100     0.4508     0.4508     0.4508     0.0000     0.0000    -0.0000 </r>
      <r>     9.8329     0.4434     0.4434     0.4434     0.0000     0.0000    -0.0000 </r>
      <r>     9.8559     0.4353     0.4353     0.4353     0.0000     0.0000    -0.0000 </r>
      <r>     9.8789     0.4258     0.4258     0.4258     0.0000     0.0000    -0.0000 </r>
      <r>     9.9019     0.4145     0.4145     0.4145     0.0000     0.0000    -0.0000 </r>
      <r>     9.9248     0.4017     0.4017     0.4017     0.0000     0.0000    -0.0000 </r>
      <r>     9.9478     0.3881     0.3881     0.3881     0.0000     0.0000    -0.0000 </r>
      <r>     9.9708     0.3743     0.3743     0.3743    -0.0000     0.0000    -0.0000 </r>
      <r>     9.9938     0.3605     0.3605     0.3605    -0.0000     0.0000    -0.0000 </r>
      <r>    10.0167     0.3470     0.3470     0.3470    -0.0000     0.0000    -0.0000 </r>
      <r>    10.0397     0.3343     0.3343     0.3343    -0.0000     0.0000    -0.0000 </r>
      <r>    10.0627     0.3224     0.3224     0.3224    -0.0000     0.0000    -0.0000 </r>
      <r>    10.0857     0.3115     0.3115     0.3115    -0.0000     0.0000    -0.0000 </r>
      <r>    10.1086     0.3014     0.3014     0.3014    -0.0000     0.0000    -0.0000 </r>
      <r>    10.1316     0.2923     0.2923     0.2923    -0.0000     0.0000    -0.0000 </r>
      <r>    10.1546     0.2842     0.2842     0.2842    -0.0000     0.0000    -0.0000 </r>
      <r>    10.1776     0.2768     0.2768     0.2768    -0.0000     0.0000    -0.0000 </r>
      <r>    10.2005     0.2702     0.2702     0.2702    -0.0000     0.0000    -0.0000 </r>
      <r>    10.2235     0.2640     0.2640     0.2640    -0.0000     0.0000    -0.0000 </r>
      <r>    10.2465     0.2583     0.2583     0.2583    -0.0000     0.0000    -0.0000 </r>
      <r>    10.2695     0.2529     0.2529     0.2529    -0.0000     0.0000    -0.0000 </r>
      <r>    10.2924     0.2479     0.2479     0.2479    -0.0000     0.0000    -0.0000 </r>
      <r>    10.3154     0.2431     0.2431     0.2431    -0.0000     0.0000    -0.0000 </r>
      <r>    10.3384     0.2388     0.2388     0.2388    -0.0000     0.0000    -0.0000 </r>
      <r>    10.3614     0.2349     0.2349     0.2349    -0.0000     0.0000    -0.0000 </r>
      <r>    10.3843     0.2315     0.2315     0.2315    -0.0000     0.0000    -0.0000 </r>
      <r>    10.4073     0.2285     0.2285     0.2285    -0.0000     0.0000    -0.0000 </r>
      <r>    10.4303     0.2260     0.2260     0.2260     0.0000     0.0000    -0.0000 </r>
      <r>    10.4532     0.2237     0.2237     0.2237     0.0000     0.0000    -0.0000 </r>
      <r>    10.4762     0.2217     0.2217     0.2217     0.0000     0.0000    -0.0000 </r>
      <r>    10.4992     0.2197     0.2197     0.2197     0.0000     0.0000    -0.0000 </r>
      <r>    10.5222     0.2179     0.2179     0.2179     0.0000    -0.0000     0.0000 </r>
[...]
     <r>     8.6676     0.1443     0.1443     0.1443     0.0000    -0.0000     0.0000 </r>
     <r>     8.6776     0.1228     0.1228     0.1228    -0.0000     0.0000     0.0000 </r>
     <r>     8.6876     0.1248     0.1248     0.1248     0.0000     0.0000     0.0000 </r>
     <r>     8.6976     0.1267     0.1267     0.1267    -0.0000     0.0000    -0.0000 </r>
     <r>     8.7076     0.1286     0.1286     0.1286    -0.0000     0.0000     0.0000 </r>
     <r>     8.7176     0.1305     0.1305     0.1305    -0.0000     0.0000     0.0000 </r>
     <r>     8.7276     0.1325     0.1325     0.1325     0.0000     0.0000     0.0000 </r>
     <r>     8.7376     0.1344     0.1344     0.1344    -0.0000     0.0000     0.0000 </r>
     <r>     8.7477     0.1363     0.1363     0.1363    -0.0000     0.0000    -0.0000 </r>
     <r>     8.7577     0.1383     0.1383     0.1383     0.0000    -0.0000     0.0000 </r>
     <r>     8.7677     0.1439     0.1439     0.1439    -0.0000     0.0000    -0.0000 </r>
     <r>     8.7777     0.1453     0.1453     0.1453    -0.0000     0.0000    -0.0000 </r>
     <r>     8.7877     0.1482     0.1482     0.1482     0.0000     0.0000     0.0000 </r>
     <r>     8.7977     0.1512     0.1512     0.1512     0.0000     0.0000    -0.0000 </r>
     <r>     8.8077     0.1543     0.1543     0.1543     0.0000     0.0000    -0.0000 </r>
     <r>     8.8177     0.1573     0.1573     0.1573     0.0000     0.0000    -0.0000 </r>
     <r>     8.8277     0.1604     0.1604     0.1604    -0.0000     0.0000     0.0000 </r>
     <r>     8.8377     0.1635     0.1635     0.1635     0.0000     0.0000    -0.0000 </r>
     <r>     8.8478     0.1667     0.1667     0.1667    -0.0000     0.0000    -0.0000 </r>
     <r>     8.8578     0.1699     0.1699     0.1699     0.0000    -0.0000     0.0000 </r>
     <r>     8.8678     0.1800     0.1800     0.1800    -0.0000     0.0000    -0.0000 </r>
     <r>     8.8778     0.1824     0.1824     0.1824    -0.0000    -0.0000    -0.0000 </r>
     <r>     8.8878     0.1846     0.1846     0.1846    -0.0000     0.0000    -0.0000 </r>
     <r>     8.8978     0.1868     0.1868     0.1868     0.0000    -0.0000     0.0000 </r>
     <r>     8.9078     0.1937     0.1937     0.1937     0.0000     0.0000    -0.0000 </r>
     <r>     8.9178     0.1956     0.1956     0.1956     0.0000     0.0000    -0.0000 </r>
     <r>     8.9278     0.1972     0.1972     0.1972    -0.0000    -0.0000     0.0000 </r>
     <r>     8.9378     0.1987     0.1987     0.1987    -0.0000     0.0000    -0.0000 </r>
     <r>     8.9479     0.1999     0.1999     0.1999     0.0000     0.0000    -0.0000 </r>
     <r>     8.9579     0.2009     0.2009     0.2009    -0.0000    -0.0000    -0.0000 </r>
     <r>     8.9679     0.2018     0.2018     0.2018     0.0000     0.0000    -0.0000 </r>
     <r>     8.9779     0.2025     0.2025     0.2025     0.0000     0.0000     0.0000 </r>
     <r>     8.9879     0.2029     0.2029     0.2029    -0.0000    -0.0000    -0.0000 </r>
     <r>     8.9979     0.2032     0.2032     0.2032    -0.0000     0.0000    -0.0000 </r>
     <r>     9.0079     0.2033     0.2033     0.2033    -0.0000    -0.0000     0.0000 </r>
     <r>     9.0179     0.2032     0.2032     0.2032    -0.0000     0.0000    -0.0000 </r>
     <r>     9.0279     0.2028     0.2028     0.2028     0.0000     0.0000    -0.0000 </r>
     <r>     9.0379     0.2023     0.2023     0.2023    -0.0000     0.0000    -0.0000 </r>
     <r>     9.0480     0.2016     0.2016     0.2016    -0.0000    -0.0000     0.0000 </r>
     <r>     9.0580     0.2007     0.2007     0.2007     0.0000     0.0000     0.0000 </r>
    </set>
   </array>
  </conductivity>
  <dos>
   <i name="efermi">      4.05796945 </i>
   <total>
    <array>
     <dimension dim="1">gridpoints</dimension>
     <dimension dim="2">spin</dimension>
     <field>energy</field>
     <field>total</field>
     <field>integrated</field>
     <set>
      <set comment="spin 1">
       <r>   -10.8028     0.0000     0.0000 </r>
       <r>   -10.7324     0.0000     0.0000 </r>
       <r>   -10.6620     0.0000     0.0000 </r>
       <r>   -10.5916     0.0000     0.0000 </r>
       <r>   -10.5212     0.0000     0.0000 </r>
       <r>   -10.4507     0.0000     0.0000 </r>
       <r>   -10.3803     0.0000     0.0000 </r>
       <r>   -10.3099     0.0000     0.0000 </r>
       <r>   -10.2395     0.0000     0.0000 </r>
       <r>   -10.1691     0.0000     0.0000 </r>
       <r>   -10.0986     0.0000     0.0000 </r>
       <r>   -10.0282     0.0000     0.0000 </r>
       <r>    -9.9578     0.0000     0.0000 </r>
       <r>    -9.8874     0.0000     0.0000 </r>
       <r>    -9.8170     0.0000     0.0000 </r>
       <r>    -9.7465     0.0415     0.0008 </r>
       <r>    -9.6761     0.2104     0.0089 </r>
       <r>    -9.6057     0.4941     0.0333 </r>
       <r>    -9.5353     0.7023     0.0762 </r>
       <r>    -9.4649     0.7782     0.1291 </r>
       <r>    -9.3944     0.8058     0.1846 </r>
       <r>    -9.3240     0.8847     0.2438 </r>
       <r>    -9.2536     1.0044     0.3103 </r>
       <r>    -9.1832     1.1334     0.3855 </r>
       <r>    -9.1128     1.4082     0.4713 </r>
       <r>    -9.0423     1.9940     0.5920 </r>
       <r>    -8.9719     2.4165     0.7485 </r>
       <r>    -8.9015     2.0541     0.9055 </r>
       <r>    -8.8311     1.7563     1.0393 </r>
       <r>    -8.7607     1.7354     1.1619 </r>
       <r>    -8.6902     1.7096     1.2833 </r>
       <r>    -8.6198     1.6660     1.4023 </r>
       <r>    -8.5494     1.6046     1.5175 </r>
       <r>    -8.4790     1.9865     1.6580 </r>
       <r>    -8.4086     1.4625     1.7790 </r>
       <r>    -8.3381     0.8541     1.8454 </r>
       <r>    -8.2677     1.5893     1.9306 </r>
       <r>    -8.1973     2.4525     2.0733 </r>
       <r>    -8.1269     2.6362     2.2532 </r>
       <r>    -8.0565     2.7867     2.4512 </r>
       <r>    -7.9860     2.8653     2.6425 </r>
       <r>    -7.9156     3.1183     2.8535 </r>
       <r>    -7.8452     6.7837     3.1071 </r>
       <r>    -7.7748     6.1578     3.5673 </r>
       <r>    -7.7044     4.5081     3.9426 </r>
       <r>    -7.6339     3.7034     4.1973 </r>
       <r>    -7.5635     3.2425     4.4176 </r>
       <r>    -7.4931     3.5033     4.6549 </r>
       <r>    -7.4227     4.9904     4.9342 </r>
       <r>    -7.3523     5.8392     5.3382 </r>
       <r>    -7.2818     5.8434     5.7459 </r>
       <r>    -7.2114     6.6398     6.1899 </r>
       <r>    -7.1410     5.9420     6.6390 </r>
       <r>    -7.0706     4.4348     6.9738 </r>
       <r>    -7.0002     4.1119     7.2747 </r>
       <r>    -6.9297     3.9272     7.5554 </r>
       <r>    -6.8593     3.3212     7.8092 </r>
       <r>    -6.7889     1.1116     7.9987 </r>
       <r>    -6.7185     0.0000     8.0000 </r>
       <r>    -6.6481     0.0000     8.0000 </r>
       <r>    -6.5776     0.0000     8.0000 </r>
       <r>    -6.5072     0.0000     8.0000 </r>
       <r>    -6.4368     0.0000     8.0000 </r>
       <r>    -6.3664     0.0000     8.0000 </r>
       <r>    -6.2960     0.0000     8.0000 </r>
       <r>    -6.2255     0.0000     8.0000 </r>
       <r>    -6.1551     0.0000     8.0000 </r>
       <r>    -6.0847     0.0000     8.0000 </r>
       <r>    -6.0143     0.0000     8.0000 </r>
       <r>    -5.9439     0.0000     8.0000 </r>
       <r>    -5.8734     0.0000     8.0000 </r>
       <r>    -5.8030     0.0000     8.0000 </r>
       <r>    -5.7326     0.0000     8.0000 </r>
       <r>    -5.6622     0.0000     8.0000 </r>
       <r>    -5.5918     0.0000     8.0000 </r>
       <r>    -5.5213     0.0000     8.0000 </r>
       <r>    -5.4509     0.0000     8.0000 </r>
       <r>    -5.3805     0.0000     8.0000 </r>
       <r>    -5.3101     0.0000     8.0000 </r>
       <r>    -5.2397     0.0000     8.0000 </r>
       <r>    -5.1692     0.0000     8.0000 </r>
       <r>    -5.0988     0.0000     8.0000 </r>
       <r>    -5.0284     0.0000     8.0000 </r>
       <r>    -4.9580     0.0000     8.0000 </r>
       <r>    -4.8876     0.0000     8.0000 </r>
       <r>    -4.8171     0.0000     8.0000 </r>
       <r>    -4.7467     0.0000     8.0000 </r>
       <r>    -4.6763     0.0000     8.0000 </r>
       <r>    -4.6059     0.0000     8.0000 </r>
       <r>    -4.5355     0.0000     8.0000 </r>
       <r>    -4.4650     0.0000     8.0000 </r>
       <r>    -4.3946     0.0000     8.0000 </r>
       <r>    -4.3242     0.0000     8.0000 </r>
       <r>    -4.2538     0.0000     8.0000 </r>
       <r>    -4.1834     0.0000     8.0000 </r>
       <r>    -4.1129     0.0000     8.0000 </r>
       <r>    -4.0425     0.0000     8.0000 </r>
       <r>    -3.9721     0.0000     8.0000 </r>
       <r>    -3.9017     0.0000     8.0000 </r>
       <r>    -3.8313     0.0000     8.0000 </r>
       <r>    -3.7608     0.0000     8.0000 </r>
       <r>    -3.6904     0.0000     8.0000 </r>
       <r>    -3.6200     0.0000     8.0000 </r>
       <r>    -3.5496     0.0000     8.0000 </r>
       <r>    -3.4792     0.0073     8.0000 </r>
       <r>    -3.4087     0.6927     8.0181 </r>
       <r>    -3.3383     1.3879     8.0992 </r>
       <r>    -3.2679     3.8870     8.2938 </r>
       <r>    -3.1975     6.0597     8.6072 </r>
       <r>    -3.1271    11.0779     9.1533 </r>
       <r>    -3.0566     8.3894     9.9353 </r>
       <r>    -2.9862     7.3544    10.4490 </r>
       <r>    -2.9158     7.5630    10.9736 </r>
       <r>    -2.8454     5.3971    11.4122 </r>
       <r>    -2.7750     4.5123    11.7698 </r>
       <r>    -2.7045     3.3356    12.0489 </r>
       <r>    -2.6341     2.3779    12.2238 </r>
       <r>    -2.5637     2.3170    12.3890 </r>
       <r>    -2.4933     2.2597    12.5502 </r>
       <r>    -2.4229     2.2057    12.7074 </r>
       <r>    -2.3524     2.1552    12.8609 </r>
       <r>    -2.2820     2.1082    13.0110 </r>
       <r>    -2.2116     2.0645    13.1579 </r>
       <r>    -2.1412     2.0244    13.3018 </r>
       <r>    -2.0708     1.6571    13.4222 </r>
       <r>    -2.0003     1.6308    13.5380 </r>
       <r>    -1.9299     1.6004    13.6518 </r>
       <r>    -1.8595     1.5581    13.7629 </r>
       <r>    -1.7891     1.5096    13.8709 </r>
       <r>    -1.7187     1.4575    13.9754 </r>
       <r>    -1.6482     1.4019    14.0761 </r>
       <r>    -1.5778     1.3428    14.1728 </r>
       <r>    -1.5074     1.2801    14.2651 </r>
       <r>    -1.4370     1.2962    14.3532 </r>
       <r>    -1.3666     1.1990    14.4410 </r>
       <r>    -1.2961     1.1156    14.5224 </r>
       <r>    -1.2257     1.0460    14.5985 </r>
       <r>    -1.1553     0.9901    14.6701 </r>
       <r>    -1.0849     0.8436    14.7338 </r>
       <r>    -1.0145     0.9219    14.7959 </r>
       <r>    -0.9440     1.0110    14.8639 </r>
       <r>    -0.8736     1.1108    14.9386 </r>
       <r>    -0.8032     1.2214    15.0206 </r>
       <r>    -0.7328     1.7628    15.1227 </r>
       <r>    -0.6624     1.4788    15.2505 </r>
       <r>    -0.5919     1.5165    15.3522 </r>
       <r>    -0.5215     1.6613    15.4637 </r>
       <r>    -0.4511     1.8802    15.5879 </r>
       <r>    -0.3807     2.1497    15.7301 </r>
       <r>    -0.3103     2.3914    15.8897 </r>
       <r>    -0.2399     4.1026    16.1599 </r>
       <r>    -0.1694     3.5976    16.4647 </r>
       <r>    -0.0990     4.7574    16.7447 </r>
       <r>    -0.0286     6.6500    17.1441 </r>
       <r>     0.0418     5.8404    17.6642 </r>
       <r>     0.1122     4.8123    18.0152 </r>
       <r>     0.1827     4.4679    18.3420 </r>
       <r>     0.2531     3.9104    18.6443 </r>
       <r>     0.3235     3.7124    18.9124 </r>
       <r>     0.3939     3.5646    19.1683 </r>
       <r>     0.4643     3.8367    19.4458 </r>
       <r>     0.5348     3.7642    19.7166 </r>
       <r>     0.6052     3.4769    19.9558 </r>
       <r>     0.6756     3.6062    20.2054 </r>
       <r>     0.7460     3.6977    20.4628 </r>
       <r>     0.8164     4.7782    20.7488 </r>
       <r>     0.8869     6.7850    21.1552 </r>
       <r>     0.9573     7.3615    21.6666 </r>
       <r>     1.0277     6.1868    22.1351 </r>
       <r>     1.0981     7.3463    22.6215 </r>
       <r>     1.1685     6.2559    23.0985 </r>
       <r>     1.2390     5.4377    23.5107 </r>
       <r>     1.3094     4.4779    23.8622 </r>
       <r>     1.3798     3.7466    24.1428 </r>
       <r>     1.4502     3.5881    24.3990 </r>
       <r>     1.5206     3.7273    24.6560 </r>
       <r>     1.5911     4.1810    24.9287 </r>
       <r>     1.6615     4.8197    25.2466 </r>
       <r>     1.7319     5.3003    25.6038 </r>
       <r>     1.8023     5.1173    26.0261 </r>
       <r>     1.8727     4.8021    26.3533 </r>
       <r>     1.9432     5.0130    26.6990 </r>
       <r>     2.0136     6.0059    27.0757 </r>
       <r>     2.0840     7.7751    27.5395 </r>
       <r>     2.1544     4.9943    28.0143 </r>
       <r>     2.2248     4.4563    28.3470 </r>
       <r>     2.2953     3.9275    28.6421 </r>
       <r>     2.3657     3.4079    28.9003 </r>
       <r>     2.4361     2.9373    29.1355 </r>
       <r>     2.5065     2.1217    29.2898 </r>
       <r>     2.5769     1.9686    29.4336 </r>
       <r>     2.6474     2.4804    29.5865 </r>
       <r>     2.7178     3.1561    29.7847 </r>
       <r>     2.7882     4.4242    30.0724 </r>
       <r>     2.8586     4.4451    30.3691 </r>
       <r>     2.9290     4.8278    30.6962 </r>
       <r>     2.9995     4.8388    31.0332 </r>
       <r>     3.0699     2.8570    31.3036 </r>
       <r>     3.1403     1.4490    31.4164 </r>
       <r>     3.2107     1.2755    31.5123 </r>
       <r>     3.2811     1.1074    31.5962 </r>
       <r>     3.3516     0.9447    31.6684 </r>
       <r>     3.4220     0.7994    31.7295 </r>
       <r>     3.4924     0.8452    31.7869 </r>
       <r>     3.5628     0.8412    31.8467 </r>
       <r>     3.6332     0.7513    31.9033 </r>
       <r>     3.7037     0.5755    31.9505 </r>
       <r>     3.7741     0.3138    31.9823 </r>
       <r>     3.8445     0.0942    31.9947 </r>
       <r>     3.9149     0.0323    31.9989 </r>
       <r>     3.9853     0.0028    32.0000 </r>
       <r>     4.0558     0.0000    32.0000 </r>
       <r>     4.1262     0.0000    32.0000 </r>
       <r>     4.1966     0.0000    32.0000 </r>
       <r>     4.2670     0.0000    32.0000 </r>
       <r>     4.3374     0.0000    32.0000 </r>
       <r>     4.4079     0.0000    32.0000 </r>
       <r>     4.4783     0.0000    32.0000 </r>
       <r>     4.5487     0.0000    32.0000 </r>
       <r>     4.6191     0.0000    32.0000 </r>
       <r>     4.6895     0.0000    32.0000 </r>
       <r>     4.7600     0.0000    32.0000 </r>
       <r>     4.8304     0.0000    32.0000 </r>
       <r>     4.9008     0.0000    32.0000 </r>
       <r>     4.9712     0.0000    32.0000 </r>
       <r>     5.0416     0.0000    32.0000 </r>
       <r>     5.1121     0.0000    32.0000 </r>
       <r>     5.1825     0.0090    32.0000 </r>
       <r>     5.2529     0.2314    32.0117 </r>
       <r>     5.3233     0.2918    32.0300 </r>
       <r>     5.3937     0.3661    32.0531 </r>
       <r>     5.4642     0.4545    32.0819 </r>
       <r>     5.5346     0.5568    32.1174 </r>
       <r>     5.6050     1.0181    32.1805 </r>
       <r>     5.6754     0.9169    32.2408 </r>
       <r>     5.7458     1.0179    32.3087 </r>
       <r>     5.8163     1.1694    32.3854 </r>
       <r>     5.8867     1.3722    32.4746 </r>
       <r>     5.9571     1.7986    32.5836 </r>
       <r>     6.0275     2.7535    32.7386 </r>
       <r>     6.0979     3.7563    32.9947 </r>
       <r>     6.1684     2.9973    33.2110 </r>
       <r>     6.2388     3.2828    33.4319 </r>
       <r>     6.3092     4.8096    33.7246 </r>
       <r>     6.3796     4.7327    34.0366 </r>
       <r>     6.4500     5.3332    34.3909 </r>
       <r>     6.5205    19.4116    35.1838 </r>
       <r>     6.5909     4.5685    35.7558 </r>
       <r>     6.6613     6.7192    36.0959 </r>
       <r>     6.7317     5.6935    36.5537 </r>
       <r>     6.8021     5.2403    36.9374 </r>
       <r>     6.8726     4.2029    37.2754 </r>
       <r>     6.9430     4.1528    37.5694 </r>
       <r>     7.0134     4.1343    37.8610 </r>
       <r>     7.0838     7.0892    38.2707 </r>
       <r>     7.1542     7.7886    38.8035 </r>
       <r>     7.2247     4.1259    39.2155 </r>
       <r>     7.2951     3.8373    39.4958 </r>
       <r>     7.3655     3.5877    39.7517 </r>
       <r>     7.4359     3.5072    40.0015 </r>
       <r>     7.5063     3.4277    40.2457 </r>
       <r>     7.5768     3.3494    40.4843 </r>
       <r>     7.6472     3.3761    40.7179 </r>
       <r>     7.7176     2.6756    40.9300 </r>
       <r>     7.7880     1.9789    41.0923 </r>
       <r>     7.8584     2.8220    41.2548 </r>
       <r>     7.9289     2.8824    41.4550 </r>
       <r>     7.9993     3.2043    41.6650 </r>
       <r>     8.0697     4.2405    41.9278 </r>
       <r>     8.1401     4.0266    42.2121 </r>
       <r>     8.2105     6.7865    42.5493 </r>
       <r>     8.2810     8.5612    43.1386 </r>
       <r>     8.3514     7.3430    43.6989 </r>
       <r>     8.4218     5.9416    44.1964 </r>
       <r>     8.4922     4.7729    44.5489 </r>
       <r>     8.5626     4.2374    44.8667 </r>
       <r>     8.6331     3.5716    45.1425 </r>
       <r>     8.7035     2.7459    45.3506 </r>
       <r>     8.7739     4.2379    45.5864 </r>
       <r>     8.8443     5.1097    45.9073 </r>
       <r>     8.9147     5.2351    46.2988 </r>
       <r>     8.9852     5.1692    46.6663 </r>
       <r>     9.0556     4.9091    47.0223 </r>
       <r>     9.1260     4.4548    47.3531 </r>
       <r>     9.1964     2.8357    47.6328 </r>
       <r>     9.2668     3.1581    47.8423 </r>
       <r>     9.3373     0.0000    48.0000 </r>
       <r>     9.4077     0.0000    48.0000 </r>
       <r>     9.4781     0.0000    48.0000 </r>
       <r>     9.5485     0.0000    48.0000 </r>
       <r>     9.6189     0.0000    48.0000 </r>
       <r>     9.6894     0.0000    48.0000 </r>
       <r>     9.7598     0.0000    48.0000 </r>
       <r>     9.8302     0.0000    48.0000 </r>
       <r>     9.9006     0.0000    48.0000 </r>
       <r>     9.9710     0.0000    48.0000 </r>
       <r>    10.0415     0.0000    48.0000 </r>
       <r>    10.1119     0.0000    48.0000 </r>
       <r>    10.1823     0.0000    48.0000 </r>
       <r>    10.2527     0.0000    48.0000 </r>
       <r>    10.3231     0.0000    48.0000 </r>
      </set>
     </set>
    </array>
   </total>
  </dos>
 </calculation>
 <structure name="finalpos" >
  <crystal>
   <varray name="basis" >
    <v>       5.39458628       0.00000000       0.00000000 </v>
    <v>       0.00000000       5.39458628       0.00000000 </v>
    <v>       0.00000000       0.00000000       5.39458628 </v>
   </varray>
   <i name="volume">    156.99088209 </i>
   <varray name="rec_basis" >
    <v>       0.18537103       0.00000000       0.00000000 </v>
    <v>       0.00000000       0.18537103       0.00000000 </v>
    <v>       0.00000000       0.00000000       0.18537103 </v>
   </varray>
  </crystal>
  <varray name="positions" >
   <v>       0.00000000       0.00000000       0.00000000 </v>
   <v>       0.50000000       0.50000000       0.00000000 </v>
   <v>       0.50000000       0.00000000       0.50000000 </v>
   <v>       0.00000000       0.50000000       0.50000000 </v>
   <v>       0.25000000       0.25000000       0.25000000 </v>
   <v>       0.75000000       0.25000000       0.75000000 </v>
   <v>       0.75000000       0.75000000       0.25000000 </v>
   <v>       0.25000000       0.75000000       0.75000000 </v>
  </varray>
 </structure>
</modeling>
