 running    8 mpi-ranks, on    1 nodes
 distrk:  each k-point on    8 cores,    1 groups
 distr:  one band on    1 cores,    8 groups
 vasp.6.4.3 19Mar24 (build Aug 29 2024 15:27:20) complex                        
  
 POSCAR found type information on POSCAR AsGa
 POSCAR found :  2 types and       8 ions
 scaLAPACK will be used
 -----------------------------------------------------------------------------
|                                                                             |
|           W    W    AA    RRRRR   N    N  II  N    N   GGGG   !!!           |
|           W    W   A  A   R    R  NN   N  II  NN   N  G    G  !!!           |
|           W    W  A    A  R    R  N N  N  II  N N  N  G       !!!           |
|           W WW W  AAAAAA  RRRRR   N  N N  II  N  N N  G  GGG   !            |
|           WW  WW  A    A  R   R   N   NN  II  N   NN  G    G                |
|           W    W  A    A  R    R  N    N  II  N    N   GGGG   !!!           |
|                                                                             |
|     For optimal performance we recommend to set                             |
|       NCORE = 2 up to number-of-cores-per-socket                            |
|     NCORE specifies how many cores store one orbital (NPAR=cpu/NCORE).      |
|     This setting can greatly improve the performance of VASP for DFT.       |
|     The default, NCORE=1 might be grossly inefficient on modern             |
|     multi-core architectures or massively parallel machines. Do your        |
|     own testing! More info at https://www.vasp.at/wiki/index.php/NCORE      |
|     Unfortunately you need to use the default for GW and RPA                |
|     calculations (for HF NCORE is supported but not extensively tested      |
|     yet).                                                                   |
|                                                                             |
 -----------------------------------------------------------------------------

 LDA part: xc-table for (Slater+PW92), standard interpolation
 found WAVECAR, reading the header
 WAVECAR: different cutoff or change in lattice found
 POSCAR, INCAR and KPOINTS ok, starting setup
 FFT: planning ... GRIDC
 FFT: planning ... GRID_SOFT
 FFT: planning ... GRID
 reading WAVECAR
 the WAVECAR file was read successfully
 initial charge from wavefunction
 entering main loop
       N       E                     dE             d eps       ncg     rms          rms(c)
DAV:   1    -0.315659934905E+02   -0.31566E+02   -0.52467E+00   544   0.102E+01    0.334E+00
DAV:   2    -0.314457709906E+02    0.12022E+00   -0.29980E-01   512   0.242E+00    0.199E+00
DAV:   3    -0.314054985390E+02    0.40272E-01   -0.18909E-01   504   0.160E+00    0.272E-01
DAV:   4    -0.314033402269E+02    0.21583E-02   -0.93954E-03   480   0.458E-01    0.165E-01
DAV:   5    -0.314028465090E+02    0.49372E-03   -0.17474E-03   584   0.161E-01    0.698E-02
DAV:   6    -0.314028555783E+02   -0.90693E-05   -0.62868E-05   304   0.382E-02
   1 F= -.31402856E+02 E0= -.31402856E+02  d E =0.000000E+00
 writing wavefunctions
 optical routines
 imaginary and real dielectric function
 recalculating local potential from charge density
 direction            1
 direction            2
 direction            3
