  64  64   0   0
  0.2396187E+02  0.1156714E-08  0.1151429E-08  0.1151429E-08  0.1000000E-15
  1.000000000000000E-004
  CAR 
 GaAs                                    
      7.65238396    -11.02215309  301      2.31457879      1.00000000
    -11.022  0.0000E+00  0.0000E+00
    -10.960  0.0000E+00  0.0000E+00
    -10.898  0.0000E+00  0.0000E+00
    -10.835  0.0000E+00  0.0000E+00
    -10.773  0.0000E+00  0.0000E+00
    -10.711  0.0000E+00  0.0000E+00
    -10.649  0.0000E+00  0.0000E+00
    -10.586  0.0000E+00  0.0000E+00
    -10.524  0.0000E+00  0.0000E+00
    -10.462  0.0000E+00  0.0000E+00
    -10.400  0.0000E+00  0.0000E+00
    -10.337  0.0000E+00  0.0000E+00
    -10.275  0.0000E+00  0.0000E+00
    -10.213  0.0000E+00  0.0000E+00
    -10.151  0.0000E+00  0.0000E+00
    -10.088  0.0000E+00  0.0000E+00
    -10.026  0.0000E+00  0.0000E+00
     -9.964  0.3713E-01  0.9498E-03
     -9.902  0.5345E-01  0.3635E-02
     -9.839  0.1024E+00  0.9008E-02
     -9.777  0.7332E-01  0.1394E-01
     -9.715  0.6681E-01  0.1823E-01
     -9.653  0.1136E+00  0.2394E-01
     -9.590  0.1684E+00  0.3120E-01
     -9.528  0.1153E+00  0.3952E-01
     -9.466  0.1236E+00  0.4715E-01
     -9.404  0.1948E+00  0.5752E-01
     -9.341  0.9899E-01  0.6669E-01
     -9.279  0.1577E+00  0.7509E-01
     -9.217  0.1440E+00  0.8426E-01
     -9.155  0.2837E+00  0.9904E-01
     -9.092  0.3081E+00  0.1171E+00
     -9.030  0.9464E-01  0.1280E+00
     -8.968  0.4852E+00  0.1381E+00
     -8.906  0.2279E+00  0.1542E+00
     -8.843  0.1899E+00  0.1657E+00
     -8.781  0.4053E+00  0.1874E+00
     -8.719  0.2750E+00  0.2072E+00
     -8.657  0.3227E+00  0.2262E+00
     -8.594  0.3775E+00  0.2484E+00
     -8.532  0.5669E+00  0.2756E+00
     -8.470  0.5668E+00  0.3121E+00
     -8.408  0.1346E+01  0.3458E+00
     -8.345  0.6375E+00  0.3798E+00
     -8.283  0.4078E+00  0.4083E+00
     -8.221  0.5151E+00  0.4310E+00
     -8.159  0.6075E+00  0.4641E+00
     -8.096  0.6672E+00  0.5035E+00
     -8.034  0.5405E+00  0.5339E+00
     -7.972  0.7434E+00  0.5684E+00
     -7.910  0.7447E+00  0.6174E+00
     -7.847  0.7711E-01  0.6400E+00
     -7.785  0.0000E+00  0.6400E+00
     -7.723  0.0000E+00  0.6400E+00
     -7.661  0.0000E+00  0.6400E+00
     -7.598  0.0000E+00  0.6400E+00
     -7.536  0.0000E+00  0.6400E+00
     -7.474  0.0000E+00  0.6400E+00
     -7.412  0.0000E+00  0.6400E+00
     -7.349  0.0000E+00  0.6400E+00
     -7.287  0.0000E+00  0.6400E+00
     -7.225  0.0000E+00  0.6400E+00
     -7.163  0.0000E+00  0.6400E+00
     -7.101  0.0000E+00  0.6400E+00
     -7.038  0.0000E+00  0.6400E+00
     -6.976  0.0000E+00  0.6400E+00
     -6.914  0.0000E+00  0.6400E+00
     -6.852  0.0000E+00  0.6400E+00
     -6.789  0.0000E+00  0.6400E+00
     -6.727  0.0000E+00  0.6400E+00
     -6.665  0.0000E+00  0.6400E+00
     -6.603  0.0000E+00  0.6400E+00
     -6.540  0.0000E+00  0.6400E+00
     -6.478  0.0000E+00  0.6400E+00
     -6.416  0.0000E+00  0.6400E+00
     -6.354  0.0000E+00  0.6400E+00
     -6.291  0.0000E+00  0.6400E+00
     -6.229  0.0000E+00  0.6400E+00
     -6.167  0.0000E+00  0.6400E+00
     -6.105  0.0000E+00  0.6400E+00
     -6.042  0.0000E+00  0.6400E+00
     -5.980  0.0000E+00  0.6400E+00
     -5.918  0.0000E+00  0.6400E+00
     -5.856  0.0000E+00  0.6400E+00
     -5.793  0.0000E+00  0.6400E+00
     -5.731  0.0000E+00  0.6400E+00
     -5.669  0.0000E+00  0.6400E+00
     -5.607  0.0000E+00  0.6400E+00
     -5.544  0.0000E+00  0.6400E+00
     -5.482  0.0000E+00  0.6400E+00
     -5.420  0.0000E+00  0.6400E+00
     -5.358  0.0000E+00  0.6400E+00
     -5.295  0.0000E+00  0.6400E+00
     -5.233  0.0000E+00  0.6400E+00
     -5.171  0.0000E+00  0.6400E+00
     -5.109  0.0000E+00  0.6400E+00
     -5.046  0.0000E+00  0.6400E+00
     -4.984  0.0000E+00  0.6400E+00
     -4.922  0.0000E+00  0.6400E+00
     -4.860  0.0000E+00  0.6400E+00
     -4.797  0.0000E+00  0.6400E+00
     -4.735  0.0000E+00  0.6400E+00
     -4.673  0.0000E+00  0.6400E+00
     -4.611  0.0000E+00  0.6400E+00
     -4.548  0.0000E+00  0.6400E+00
     -4.486  0.0000E+00  0.6400E+00
     -4.424  0.0000E+00  0.6400E+00
     -4.362  0.0000E+00  0.6400E+00
     -4.299  0.0000E+00  0.6400E+00
     -4.237  0.2932E-01  0.6403E+00
     -4.175  0.1326E+00  0.6449E+00
     -4.113  0.2823E+00  0.6564E+00
     -4.050  0.6982E+00  0.6898E+00
     -3.988  0.7641E+00  0.7288E+00
     -3.926  0.1192E+01  0.7807E+00
     -3.864  0.1084E+01  0.8461E+00
     -3.801  0.5258E+00  0.8780E+00
     -3.739  0.1183E+01  0.9282E+00
     -3.677  0.1964E+00  0.9450E+00
     -3.615  0.1938E+00  0.9556E+00
     -3.552  0.5421E+00  0.9764E+00
     -3.490  0.3006E+00  0.9992E+00
     -3.428  0.1981E+00  0.1014E+01
     -3.366  0.1476E+00  0.1024E+01
     -3.303  0.3142E+00  0.1036E+01
     -3.241  0.3035E+00  0.1064E+01
     -3.179  0.1554E+00  0.1073E+01
     -3.117  0.1133E+00  0.1082E+01
     -3.054  0.7533E-01  0.1087E+01
     -2.992  0.1192E+00  0.1093E+01
     -2.930  0.1240E+00  0.1101E+01
     -2.868  0.1775E+00  0.1111E+01
     -2.805  0.1403E+00  0.1120E+01
     -2.743  0.1338E+00  0.1129E+01
     -2.681  0.1291E+00  0.1137E+01
     -2.619  0.1310E+00  0.1145E+01
     -2.556  0.1224E+00  0.1153E+01
     -2.494  0.6359E-01  0.1158E+01
     -2.432  0.6354E-01  0.1162E+01
     -2.370  0.7142E-01  0.1166E+01
     -2.307  0.8173E-01  0.1171E+01
     -2.245  0.1172E+00  0.1177E+01
     -2.183  0.1081E+00  0.1184E+01
     -2.121  0.7158E-01  0.1190E+01
     -2.058  0.8076E-01  0.1195E+01
     -1.996  0.6225E-01  0.1200E+01
     -1.934  0.4814E-01  0.1202E+01
     -1.872  0.4198E-01  0.1205E+01
     -1.809  0.3698E-01  0.1208E+01
     -1.747  0.3780E-01  0.1210E+01
     -1.685  0.4024E-01  0.1212E+01
     -1.623  0.7742E-01  0.1216E+01
     -1.560  0.9756E-01  0.1222E+01
     -1.498  0.8470E-01  0.1228E+01
     -1.436  0.6985E-01  0.1232E+01
     -1.374  0.6898E-01  0.1236E+01
     -1.311  0.1503E+00  0.1242E+01
     -1.249  0.2842E+00  0.1256E+01
     -1.187  0.4782E+00  0.1278E+01
     -1.125  0.4452E+00  0.1308E+01
     -1.062  0.4456E+00  0.1335E+01
     -1.000  0.5035E+00  0.1368E+01
     -0.938  0.3785E+00  0.1394E+01
     -0.876  0.4203E+00  0.1419E+01
     -0.813  0.3565E+00  0.1440E+01
     -0.751  0.2459E+00  0.1462E+01
     -0.689  0.3324E+00  0.1479E+01
     -0.627  0.2782E+00  0.1499E+01
     -0.564  0.4669E+00  0.1524E+01
     -0.502  0.4575E+00  0.1548E+01
     -0.440  0.4608E+00  0.1574E+01
     -0.378  0.5062E+00  0.1604E+01
     -0.315  0.5033E+00  0.1635E+01
     -0.253  0.4774E+00  0.1667E+01
     -0.191  0.4495E+00  0.1695E+01
     -0.129  0.5496E+00  0.1725E+01
     -0.066  0.6122E+00  0.1761E+01
     -0.004  0.4558E+00  0.1795E+01
      0.058  0.5488E+00  0.1830E+01
      0.120  0.5192E+00  0.1859E+01
      0.183  0.5554E+00  0.1893E+01
      0.245  0.4958E+00  0.1926E+01
      0.307  0.4392E+00  0.1949E+01
      0.369  0.4149E+00  0.1977E+01
      0.432  0.6426E+00  0.2013E+01
      0.494  0.6833E+00  0.2046E+01
      0.556  0.7539E+00  0.2083E+01
      0.618  0.3937E+00  0.2114E+01
      0.681  0.5183E+00  0.2140E+01
      0.743  0.5721E+00  0.2171E+01
      0.805  0.4306E+00  0.2200E+01
      0.867  0.6100E+00  0.2226E+01
      0.930  0.4273E+00  0.2257E+01
      0.992  0.3541E+00  0.2280E+01
      1.054  0.4428E+00  0.2304E+01
      1.116  0.4605E+00  0.2332E+01
      1.179  0.4095E+00  0.2360E+01
      1.241  0.5437E+00  0.2391E+01
      1.303  0.4259E+00  0.2420E+01
      1.365  0.2511E+00  0.2439E+01
      1.428  0.1905E+00  0.2453E+01
      1.490  0.2345E+00  0.2467E+01
      1.552  0.2231E+00  0.2481E+01
      1.614  0.1977E+00  0.2495E+01
      1.677  0.1169E+00  0.2503E+01
      1.739  0.1306E+00  0.2511E+01
      1.801  0.1286E+00  0.2519E+01
      1.863  0.2023E+00  0.2532E+01
      1.926  0.5865E-01  0.2537E+01
      1.988  0.1175E+00  0.2541E+01
      2.050  0.1162E+00  0.2550E+01
      2.112  0.5619E-01  0.2556E+01
      2.175  0.3386E-01  0.2558E+01
      2.237  0.8893E-02  0.2560E+01
      2.299  0.0000E+00  0.2560E+01
      2.361  0.0000E+00  0.2560E+01
      2.424  0.3567E-06  0.2560E+01
      2.486  0.1626E-04  0.2560E+01
      2.548  0.5576E-04  0.2560E+01
      2.610  0.1189E-03  0.2560E+01
      2.673  0.2056E-03  0.2560E+01
      2.735  0.3159E-03  0.2560E+01
      2.797  0.4498E-03  0.2560E+01
      2.859  0.6073E-03  0.2560E+01
      2.922  0.7884E-03  0.2560E+01
      2.984  0.9931E-03  0.2560E+01
      3.046  0.1221E-02  0.2560E+01
      3.108  0.1473E-02  0.2560E+01
      3.170  0.1826E-02  0.2560E+01
      3.233  0.5613E-02  0.2561E+01
      3.295  0.1361E-01  0.2561E+01
      3.357  0.2122E-01  0.2562E+01
      3.419  0.2877E-01  0.2564E+01
      3.482  0.6388E-01  0.2567E+01
      3.544  0.6950E-01  0.2571E+01
      3.606  0.8513E-01  0.2576E+01
      3.668  0.6866E-01  0.2580E+01
      3.731  0.8448E-01  0.2585E+01
      3.793  0.1120E+00  0.2591E+01
      3.855  0.1375E+00  0.2599E+01
      3.917  0.2348E+00  0.2613E+01
      3.980  0.3050E+00  0.2625E+01
      4.042  0.3403E+00  0.2645E+01
      4.104  0.2690E+00  0.2666E+01
      4.166  0.2027E+00  0.2679E+01
      4.229  0.2563E+00  0.2692E+01
      4.291  0.3277E+00  0.2710E+01
      4.353  0.5404E+00  0.2738E+01
      4.415  0.3976E+00  0.2766E+01
      4.478  0.5347E+00  0.2790E+01
      4.540  0.6354E+00  0.2822E+01
      4.602  0.5104E+00  0.2859E+01
      4.664  0.7772E+00  0.2897E+01
      4.727  0.9620E+00  0.2939E+01
      4.789  0.6918E+00  0.2982E+01
      4.851  0.4098E+00  0.3017E+01
      4.913  0.3864E+00  0.3042E+01
      4.976  0.3862E+00  0.3067E+01
      5.038  0.4076E+00  0.3090E+01
      5.100  0.3714E+00  0.3116E+01
      5.162  0.3106E+00  0.3136E+01
      5.225  0.3388E+00  0.3156E+01
      5.287  0.2866E+00  0.3177E+01
      5.349  0.1813E+00  0.3189E+01
      5.411  0.3568E+00  0.3206E+01
      5.474  0.3204E+00  0.3227E+01
      5.536  0.2408E+00  0.3245E+01
      5.598  0.3982E+00  0.3264E+01
      5.660  0.1829E+00  0.3278E+01
      5.723  0.1926E+00  0.3290E+01
      5.785  0.2252E+00  0.3303E+01
      5.847  0.1943E+00  0.3317E+01
      5.909  0.1522E+00  0.3327E+01
      5.972  0.1247E+00  0.3336E+01
      6.034  0.1022E+00  0.3343E+01
      6.096  0.8408E-01  0.3348E+01
      6.158  0.6367E-01  0.3353E+01
      6.221  0.3320E-01  0.3356E+01
      6.283  0.1870E-01  0.3358E+01
      6.345  0.1227E-01  0.3359E+01
      6.407  0.8895E-02  0.3359E+01
      6.470  0.5856E-02  0.3360E+01
      6.532  0.2904E-03  0.3360E+01
      6.594  0.5519E-04  0.3360E+01
      6.656  0.0000E+00  0.3360E+01
      6.719  0.0000E+00  0.3360E+01
      6.781  0.0000E+00  0.3360E+01
      6.843  0.0000E+00  0.3360E+01
      6.905  0.0000E+00  0.3360E+01
      6.968  0.0000E+00  0.3360E+01
      7.030  0.0000E+00  0.3360E+01
      7.092  0.0000E+00  0.3360E+01
      7.154  0.0000E+00  0.3360E+01
      7.217  0.0000E+00  0.3360E+01
      7.279  0.0000E+00  0.3360E+01
      7.341  0.0000E+00  0.3360E+01
      7.403  0.0000E+00  0.3360E+01
      7.466  0.0000E+00  0.3360E+01
      7.528  0.0000E+00  0.3360E+01
      7.590  0.0000E+00  0.3360E+01
      7.652  0.0000E+00  0.3360E+01
