       N       E                     dE             d eps       ncg     rms          rms(c)
DAV:   1     0.937119697012E+03    0.93712E+03   -0.80963E+04  6048   0.101E+03
DAV:   2    -0.166886397814E+03   -0.11040E+04   -0.10515E+04  7184   0.169E+02
DAV:   3    -0.267632293677E+03   -0.10075E+03   -0.99347E+02  7408   0.522E+01
DAV:   4    -0.270164032001E+03   -0.25317E+01   -0.25030E+01  7264   0.865E+00
DAV:   5    -0.270238986870E+03   -0.74955E-01   -0.74697E-01  7400   0.130E+00    0.201E+01
DAV:   6    -0.266047913237E+03    0.41911E+01   -0.65228E+00  7080   0.358E+00    0.118E+01
DAV:   7    -0.265217054569E+03    0.83086E+00   -0.43097E+00  7344   0.299E+00    0.245E+00
DAV:   8    -0.265175986659E+03    0.41068E-01   -0.50220E-01  7056   0.109E+00    0.616E-01
DAV:   9    -0.265187839777E+03   -0.11853E-01   -0.35533E-02  6928   0.391E-01    0.232E-01
DAV:  10    -0.265188879501E+03   -0.10397E-02   -0.95049E-04  7616   0.583E-02    0.109E-01
DAV:  11    -0.265190196778E+03   -0.13173E-02   -0.21881E-03  6512   0.873E-02    0.497E-02
DAV:  12    -0.265190204308E+03   -0.75296E-05   -0.28749E-05  7408   0.110E-02    0.225E-02
DAV:  13    -0.265190213634E+03   -0.93265E-05   -0.77451E-05  6952   0.133E-02    0.990E-03
DAV:  14    -0.265190213005E+03    0.62966E-06   -0.40566E-06  5984   0.388E-03
 Linear response reoptimize wavefunctions
DAV:   1    -0.265190213531E+03   -0.52582E-06   -0.22495E-06  7192   0.199E-03
DAV:   2    -0.265190213540E+03   -0.90740E-08   -0.90849E-08  6080   0.558E-04
DAV:   3    -0.265190213540E+03   -0.40836E-09   -0.17029E-09  3736   0.803E-05
 Linear response G [H, r] |phi>, progress :
  Direction:   1
       N       E                     dE             d eps       ncg     rms
RMM:   1    -0.127666512441E+04   -0.12767E+04    0.18099E+03 14195   0.841E+01
RMM:   2    -0.109961126908E+04    0.17705E+03   -0.20742E+02  9793   0.227E+01
RMM:   3    -0.110190601117E+04   -0.22947E+01   -0.10221E+01 10088   0.379E+00
RMM:   4    -0.110203085393E+04   -0.12484E+00   -0.36989E-01 10484   0.667E-01
RMM:   5    -0.110202929868E+04    0.15553E-02   -0.38212E-02 10499   0.143E-01
RMM:   6    -0.110202819153E+04    0.11071E-02   -0.81184E-03 11107   0.385E-02
RMM:   7    -0.110202784605E+04    0.34548E-03   -0.35499E-03 11722   0.194E-02
RMM:   8    -0.110202776953E+04    0.76526E-04   -0.26198E-03 12378   0.163E-02
RMM:   9    -0.110202772807E+04    0.41456E-04   -0.25193E-03 12595   0.159E-02
RMM:  10    -0.110202773311E+04   -0.50385E-05   -0.22870E-03 12867   0.159E-02
RMM:  11    -0.110202774172E+04   -0.86127E-05   -0.23093E-03 13151   0.159E-02
 Linear response G [H, r] |phi>, progress :
  Direction:   2
       N       E                     dE             d eps       ncg     rms
RMM:   1    -0.126464499899E+04   -0.12646E+04    0.17244E+03 14271   0.837E+01
RMM:   2    -0.109849122618E+04    0.16615E+03   -0.20661E+02  9760   0.226E+01
RMM:   3    -0.110028142764E+04   -0.17902E+01   -0.99555E+00 10084   0.376E+00
RMM:   4    -0.110038967029E+04   -0.10824E+00   -0.47200E-01 10474   0.659E-01
RMM:   5    -0.110037997345E+04    0.96968E-02   -0.63662E-02 10508   0.142E-01
RMM:   6    -0.110037710527E+04    0.28682E-02   -0.16208E-02 11163   0.384E-02
RMM:   7    -0.110037607374E+04    0.10315E-02   -0.46311E-03 11777   0.193E-02
RMM:   8    -0.110037588808E+04    0.18567E-03   -0.30633E-03 12551   0.163E-02
RMM:   9    -0.110037579034E+04    0.97738E-04   -0.10375E-03 12695   0.159E-02
RMM:  10    -0.110037579201E+04   -0.16728E-05   -0.22214E-03 13000   0.159E-02
RMM:  11    -0.110037578495E+04    0.70564E-05   -0.17538E-03 13264   0.159E-02
 Linear response G [H, r] |phi>, progress :
  Direction:   3
       N       E                     dE             d eps       ncg     rms
RMM:   1    -0.137955966899E+04   -0.13796E+04    0.14178E+03 14612   0.857E+01
RMM:   2    -0.110373530786E+04    0.27582E+03   -0.23567E+02  9820   0.240E+01
RMM:   3    -0.110581196110E+04   -0.20767E+01   -0.11307E+01 10074   0.399E+00
RMM:   4    -0.110593443337E+04   -0.12247E+00   -0.50903E-01 10517   0.694E-01
RMM:   5    -0.110592314459E+04    0.11289E-01   -0.66994E-02 10490   0.149E-01
RMM:   6    -0.110592019117E+04    0.29534E-02   -0.16763E-02 11127   0.404E-02
RMM:   7    -0.110591909453E+04    0.10966E-02   -0.47680E-03 11735   0.206E-02
RMM:   8    -0.110591888846E+04    0.20607E-03   -0.24272E-03 12487   0.174E-02
RMM:   9    -0.110591881707E+04    0.71393E-04   -0.19406E-03 12618   0.170E-02
RMM:  10    -0.110591882499E+04   -0.79255E-05   -0.27123E-03 12939   0.170E-02
RMM:  11    -0.110591881075E+04    0.14246E-04   -0.21506E-03 13219   0.170E-02
 Linear response to external field, progress :
  Direction:   1
       N       E                     dE             d eps       ncg     rms          rms(c)
RMM:   1    -0.115896271034E+03   -0.11590E+03   -0.87891E+02 15504   0.666E+00
RMM:   2    -0.322886029162E+03   -0.20699E+03   -0.98646E+00 14761   0.146E+00    0.126E+01
RMM:   3    -0.319909050641E+03    0.29770E+01   -0.97319E-01 14744   0.160E+00    0.737E+00
RMM:   4    -0.311448251934E+03    0.84608E+01   -0.14995E+00 14225   0.224E+00    0.751E-01
RMM:   5    -0.310761541643E+03    0.68671E+00   -0.68606E-02 15078   0.449E-01    0.118E-01
RMM:   6    -0.310685904517E+03    0.75637E-01   -0.25969E-03 15197   0.835E-02    0.667E-02
RMM:   7    -0.310632195823E+03    0.53709E-01   -0.11461E-03 15073   0.601E-02    0.257E-02
RMM:   8    -0.310618310547E+03    0.13885E-01   -0.55197E-04 15858   0.101E-02    0.678E-03
RMM:   9    -0.310623971773E+03   -0.56612E-02   -0.19970E-04 15935   0.645E-03    0.134E-03
RMM:  10    -0.310623642725E+03    0.32905E-03   -0.49031E-05 16163   0.218E-03    0.420E-04
RMM:  11    -0.310623430522E+03    0.21220E-03   -0.10746E-04 15939   0.200E-03    0.744E-05
RMM:  12    -0.310623456690E+03   -0.26168E-04   -0.76762E-05 14673   0.188E-03    0.357E-05
RMM:  13    -0.310623447000E+03    0.96895E-05   -0.10117E-04 14813   0.188E-03    0.726E-06
 Linear response to external field, progress :
  Direction:   2
       N       E                     dE             d eps       ncg     rms          rms(c)
RMM:   1    -0.131329306354E+03   -0.13133E+03   -0.10178E+03 22604   0.676E+00
RMM:   2    -0.501143569781E+03   -0.36981E+03   -0.97639E+00 21375   0.151E+00    0.137E+01
RMM:   3    -0.498108376008E+03    0.30352E+01   -0.90701E-01 21434   0.160E+00    0.803E+00
RMM:   4    -0.488448243862E+03    0.96601E+01   -0.13946E+00 20635   0.230E+00    0.740E-01
RMM:   5    -0.487632885060E+03    0.81536E+00   -0.86464E-02 21926   0.482E-01    0.862E-02
RMM:   6    -0.487582571842E+03    0.50313E-01   -0.35417E-03 22469   0.628E-02    0.558E-02
RMM:   7    -0.487585578450E+03   -0.30066E-02   -0.34628E-03 22153   0.439E-02    0.249E-02
RMM:   8    -0.487567129109E+03    0.18449E-01   -0.19613E-03 22618   0.700E-03    0.400E-03
RMM:   9    -0.487568002880E+03   -0.87377E-03   -0.25621E-04 23568   0.466E-03    0.772E-04
RMM:  10    -0.487568534593E+03   -0.53171E-03    0.11268E-04 23624   0.215E-03    0.405E-04
RMM:  11    -0.487568029806E+03    0.50479E-03   -0.17581E-04 23376   0.203E-03    0.670E-05
RMM:  12    -0.487568059638E+03   -0.29832E-04    0.78625E-05 22687   0.196E-03    0.304E-05
RMM:  13    -0.487568070801E+03   -0.11163E-04   -0.12514E-04 22719   0.196E-03    0.729E-06
 Linear response to external field, progress :
  Direction:   3
       N       E                     dE             d eps       ncg     rms          rms(c)
RMM:   1    -0.131329077212E+03   -0.13133E+03   -0.10177E+03 22604   0.676E+00
RMM:   2    -0.501143632091E+03   -0.36981E+03   -0.97640E+00 21360   0.151E+00    0.137E+01
RMM:   3    -0.498192280733E+03    0.29514E+01   -0.17436E+00 21431   0.160E+00    0.803E+00
RMM:   4    -0.488449224818E+03    0.97431E+01   -0.14089E+00 20627   0.230E+00    0.740E-01
RMM:   5    -0.487633525166E+03    0.81570E+00   -0.86608E-02 21920   0.481E-01    0.862E-02
RMM:   6    -0.487582990426E+03    0.50535E-01   -0.32079E-03 22473   0.628E-02    0.558E-02
RMM:   7    -0.487585865997E+03   -0.28756E-02   -0.40913E-04 22152   0.440E-02    0.249E-02
RMM:   8    -0.487567370444E+03    0.18496E-01   -0.20369E-04 22608   0.700E-03    0.400E-03
RMM:   9    -0.487568237483E+03   -0.86704E-03   -0.18367E-04 23571   0.466E-03    0.770E-04
RMM:  10    -0.487568775878E+03   -0.53839E-03    0.14106E-04 23642   0.216E-03    0.405E-04
RMM:  11    -0.487568263500E+03    0.51238E-03   -0.50250E-05 23351   0.203E-03    0.668E-05
RMM:  12    -0.487568298160E+03   -0.34660E-04   -0.29631E-04 22689   0.197E-03    0.302E-05
RMM:  13    -0.487568306286E+03   -0.81261E-05   -0.91292E-05 22734   0.196E-03    0.715E-06
   1 F= -.26519021E+03 E0= -.26519021E+03  d E =-.265190E+03
 imaginary and real dielectric function
