 vasp.6.4.3 19Mar24 (build Aug 29 2024 15:27:20) complex                        
  
 executed on             LinuxIFC date 2025.03.24  12:04:17
 running    8 mpi-ranks, on    1 nodes
 distrk:  each k-point on    8 cores,    1 groups
 distr:  one band on NCORE=   1 cores,    8 groups


--------------------------------------------------------------------------------------------------------


 INCAR:
   SYSTEM = GaAs
   PREC = Normal
   ENCUT = 400
   ISMEAR = -5
   SIGMA = 0.1
   IBRION = 2
   POTIM = 0.1
   NFREE = 2
   NSW = 100
   ISIF = 2
   LEPSILON = .TRUE.
   LOPTICS = .TRUE.

 POTCAR:    PAW_PBE As 22Sep2009                  
 POTCAR:    PAW_PBE Ga 08Apr2002                  
 -----------------------------------------------------------------------------
|                                                                             |
|           W    W    AA    RRRRR   N    N  II  N    N   GGGG   !!!           |
|           W    W   A  A   R    R  NN   N  II  NN   N  G    G  !!!           |
|           W    W  A    A  R    R  N N  N  II  N N  N  G       !!!           |
|           W WW W  AAAAAA  RRRRR   N  N N  II  N  N N  G  GGG   !            |
|           WW  WW  A    A  R   R   N   NN  II  N   NN  G    G                |
|           W    W  A    A  R    R  N    N  II  N    N   GGGG   !!!           |
|                                                                             |
|     For optimal performance we recommend to set                             |
|       NCORE = 2 up to number-of-cores-per-socket                            |
|     NCORE specifies how many cores store one orbital (NPAR=cpu/NCORE).      |
|     This setting can greatly improve the performance of VASP for DFT.       |
|     The default, NCORE=1 might be grossly inefficient on modern             |
|     multi-core architectures or massively parallel machines. Do your        |
|     own testing! More info at https://www.vasp.at/wiki/index.php/NCORE      |
|     Unfortunately you need to use the default for GW and RPA                |
|     calculations (for HF NCORE is supported but not extensively tested      |
|     yet).                                                                   |
|                                                                             |
 -----------------------------------------------------------------------------

 POTCAR:    PAW_PBE As 22Sep2009                  
   VRHFIN =As: s2p3                                                                                 
   LEXCH  = PE                                                                                      
   EATOM  =   170.1867 eV,   12.5084 Ry                                                             
                                                                                                    
   TITEL  = PAW_PBE As 22Sep2009                                                                    
   LULTRA =        F    use ultrasoft PP ?                                                          
   IUNSCR =        1    unscreen: 0-lin 1-nonlin 2-no                                               
   RPACOR =    1.900    partial core radius                                                         
   POMASS =   74.922; ZVAL   =    5.000    mass and valenz                                          
   RCORE  =    2.100    outmost cutoff radius                                                       
   RWIGS  =    2.300; RWIGS  =    1.217    wigner-seitz radius (au A)                               
   ENMAX  =  208.702; ENMIN  =  156.526 eV                                                          
   ICORE  =        3    local potential                                                             
   LCOR   =        T    correct aug charges                                                         
   LPAW   =        T    paw PP                                                                      
   EAUG   =  462.758                                                                                
   DEXC   =    0.000                                                                                
   RMAX   =    2.144    core radius for proj-oper                                                   
   RAUG   =    1.300    factor for augmentation sphere                                              
   RDEP   =    2.140    radius for radial grids                                                     
   RDEPT  =    1.956    core radius for aug-charge                                                  
                                                                                                    
   Atomic configuration                                                                             
   10 entries                                                                                       
     n  l   j            E        occ.                                                              
     1  0  0.50    -11718.0418   2.0000                                                             
     2  0  0.50     -1486.5454   2.0000                                                             
     2  1  1.50     -1303.3889   6.0000                                                             
     3  0  0.50      -190.2849   2.0000                                                             
     3  1  1.50      -133.6555   6.0000                                                             
     3  2  2.50       -40.6443  10.0000                                                             
     4  0  0.50       -14.4936   2.0000                                                             
     4  1  0.50        -5.1947   3.0000                                                             
     4  2  1.50        -5.4423   0.0000                                                             
     4  3  2.50        -5.4423   0.0000                                                             
   Description                                                                                      
     l       E           TYP  RCUT    TYP  RCUT                                                     
     0    -14.4935570     23  2.100                                                                 
     0    -11.9212055     23  2.100                                                                 
     1     -5.1947127     23  2.100                                                                 
     1     27.2116520     23  2.100                                                                 
     2     -5.4423304     23  2.100                                                                 
     3     -1.3605826      7  2.100                                                                 
  local pseudopotential read in
  partial core-charges read in
  partial kinetic energy density read in
  atomic valenz-charges read in
  non local Contribution for L=           0  read in
    real space projection operators read in
  non local Contribution for L=           0  read in
    real space projection operators read in
  non local Contribution for L=           1  read in
    real space projection operators read in
  non local Contribution for L=           1  read in
    real space projection operators read in
  non local Contribution for L=           2  read in
    real space projection operators read in
    PAW grid and wavefunctions read in
 
   number of l-projection  operators is LMAX  =           5
   number of lm-projection operators is LMMAX =          13
 
 POTCAR:    PAW_PBE Ga 08Apr2002                  
   VRHFIN =Ga: s2p1                                                                                 
   LEXCH  = PE                                                                                      
   EATOM  =    58.8688 eV,    4.3267 Ry                                                             
                                                                                                    
   TITEL  = PAW_PBE Ga 08Apr2002                                                                    
   LULTRA =        F    use ultrasoft PP ?                                                          
   IUNSCR =        1    unscreen: 0-lin 1-nonlin 2-no                                               
   RPACOR =    2.170    partial core radius                                                         
   POMASS =   69.723; ZVAL   =    3.000    mass and valenz                                          
   RCORE  =    2.600    outmost cutoff radius                                                       
   RWIGS  =    2.650; RWIGS  =    1.402    wigner-seitz radius (au A)                               
   ENMAX  =  134.678; ENMIN  =  101.009 eV                                                          
   ICORE  =        3    local potential                                                             
   LCOR   =        T    correct aug charges                                                         
   LPAW   =        T    paw PP                                                                      
   EAUG   =  320.264                                                                                
   DEXC   =    0.000                                                                                
   RMAX   =    2.658    core radius for proj-oper                                                   
   RAUG   =    1.300    factor for augmentation sphere                                              
   RDEP   =    2.684    radius for radial grids                                                     
   RDEPT  =    2.308    core radius for aug-charge                                                  
                                                                                                    
   Atomic configuration                                                                             
   10 entries                                                                                       
     n  l   j            E        occ.                                                              
     1  0  0.50    -10228.7830   2.0000                                                             
     2  0  0.50     -1262.1604   2.0000                                                             
     2  1  1.50     -1098.6333   6.0000                                                             
     3  0  0.50      -148.1110   2.0000                                                             
     3  1  1.50       -98.8436   6.0000                                                             
     3  2  2.50       -19.1549  10.0000                                                             
     4  0  0.50        -8.9483   2.0000                                                             
     4  1  0.50        -2.5791   1.0000                                                             
     4  2  1.50         5.4423   0.0000                                                             
     4  3  2.50        -2.7416   0.0000                                                             
   Description                                                                                      
     l       E           TYP  RCUT    TYP  RCUT                                                     
     0     -8.9483097     23  2.600                                                                 
     0     -5.8232215     23  2.600                                                                 
     1     -2.5790793     23  2.600                                                                 
     1      5.2230115     23  2.600                                                                 
     2      1.3605826     23  2.600                                                                 
     3     -1.3605826      7  2.600                                                                 
  local pseudopotential read in
  partial core-charges read in
  partial kinetic energy density read in
  atomic valenz-charges read in
  non local Contribution for L=           0  read in
    real space projection operators read in
  non local Contribution for L=           0  read in
    real space projection operators read in
  non local Contribution for L=           1  read in
    real space projection operators read in
  non local Contribution for L=           1  read in
    real space projection operators read in
  non local Contribution for L=           2  read in
    real space projection operators read in
    PAW grid and wavefunctions read in
 
   number of l-projection  operators is LMAX  =           5
   number of lm-projection operators is LMMAX =          13
 
 -----------------------------------------------------------------------------
|                                                                             |
|               ----> ADVICE to this user running VASP <----                  |
|                                                                             |
|     You have a (more or less) 'large supercell' and for larger cells it     |
|     might be more efficient to use real-space projection operators.         |
|     Therefore, try LREAL= Auto in the INCAR file.                           |
|     Mind: For very accurate calculation, you might also keep the            |
|     reciprocal projection scheme (i.e. LREAL=.FALSE.).                      |
|                                                                             |
 -----------------------------------------------------------------------------

  PAW_PBE As 22Sep2009                  :
 energy of atom  1       EATOM= -170.1867
 kinetic energy error for atom=    0.0013 (will be added to EATOM!!)
  PAW_PBE Ga 08Apr2002                  :
 energy of atom  2       EATOM=  -58.8688
 kinetic energy error for atom=    0.0001 (will be added to EATOM!!)
 
 
 POSCAR: cubic gallium arsenide
  positions in direct lattice
  velocities in cartesian coordinates


 exchange-correlation table for PE
   RHO(1)=    0.500       N(1)  =     2000
   RHO(2)=  100.500       N(2)  =     4000
 


--------------------------------------------------------------------------------------------------------


 ion  position               nearest neighbor table
   1  0.000  0.000  0.000-  33 2.50  46 2.50  55 2.50  60 2.50
   2  0.000  0.000  0.500-  34 2.50  45 2.50  56 2.50  59 2.50
   3  0.000  0.500  0.000-  35 2.50  48 2.50  53 2.50  58 2.50
   4  0.000  0.500  0.500-  36 2.50  47 2.50  54 2.50  57 2.50
   5  0.500  0.000  0.000-  37 2.50  42 2.50  51 2.50  64 2.50
   6  0.500  0.000  0.500-  38 2.50  41 2.50  52 2.50  63 2.50
   7  0.500  0.500  0.000-  39 2.50  44 2.50  49 2.50  62 2.50
   8  0.500  0.500  0.500-  40 2.50  43 2.50  50 2.50  61 2.50
   9  0.250  0.250  0.000-  33 2.50  42 2.50  49 2.50  58 2.50
  10  0.250  0.250  0.500-  34 2.50  41 2.50  50 2.50  57 2.50
  11  0.250  0.750  0.000-  35 2.50  44 2.50  51 2.50  60 2.50
  12  0.250  0.750  0.500-  36 2.50  43 2.50  52 2.50  59 2.50
  13  0.750  0.250  0.000-  37 2.50  46 2.50  53 2.50  62 2.50
  14  0.750  0.250  0.500-  38 2.50  45 2.50  54 2.50  61 2.50
  15  0.750  0.750  0.000-  39 2.50  48 2.50  55 2.50  64 2.50
  16  0.750  0.750  0.500-  40 2.50  47 2.50  56 2.50  63 2.50
  17  0.250  0.000  0.250-  33 2.50  41 2.50  51 2.50  59 2.50
  18  0.250  0.000  0.750-  34 2.50  42 2.50  52 2.50  60 2.50
  19  0.250  0.500  0.250-  35 2.50  43 2.50  49 2.50  57 2.50
  20  0.250  0.500  0.750-  36 2.50  44 2.50  50 2.50  58 2.50
  21  0.750  0.000  0.250-  37 2.50  45 2.50  55 2.50  63 2.50
  22  0.750  0.000  0.750-  38 2.50  46 2.50  56 2.50  64 2.50
  23  0.750  0.500  0.250-  39 2.50  47 2.50  53 2.50  61 2.50
  24  0.750  0.500  0.750-  40 2.50  48 2.50  54 2.50  62 2.50
  25  0.000  0.250  0.250-  33 2.50  45 2.50  53 2.50  57 2.50
  26  0.000  0.250  0.750-  34 2.50  46 2.50  54 2.50  58 2.50
  27  0.000  0.750  0.250-  35 2.50  47 2.50  55 2.50  59 2.50
  28  0.000  0.750  0.750-  36 2.50  48 2.50  56 2.50  60 2.50
  29  0.500  0.250  0.250-  37 2.50  41 2.50  49 2.50  61 2.50
  30  0.500  0.250  0.750-  38 2.50  42 2.50  50 2.50  62 2.50
  31  0.500  0.750  0.250-  39 2.50  43 2.50  51 2.50  63 2.50
  32  0.500  0.750  0.750-  40 2.50  44 2.50  52 2.50  64 2.50
  33  0.125  0.125  0.125-   1 2.50   9 2.50  17 2.50  25 2.50
  34  0.125  0.125  0.625-   2 2.50  10 2.50  18 2.50  26 2.50
  35  0.125  0.625  0.125-   3 2.50  11 2.50  19 2.50  27 2.50
  36  0.125  0.625  0.625-   4 2.50  12 2.50  20 2.50  28 2.50
  37  0.625  0.125  0.125-   5 2.50  13 2.50  21 2.50  29 2.50
  38  0.625  0.125  0.625-   6 2.50  14 2.50  22 2.50  30 2.50
  39  0.625  0.625  0.125-   7 2.50  15 2.50  23 2.50  31 2.50
  40  0.625  0.625  0.625-   8 2.50  16 2.50  24 2.50  32 2.50
  41  0.375  0.125  0.375-   6 2.50  10 2.50  17 2.50  29 2.50
  42  0.375  0.125  0.875-   5 2.50   9 2.50  18 2.50  30 2.50
  43  0.375  0.625  0.375-   8 2.50  12 2.50  19 2.50  31 2.50
  44  0.375  0.625  0.875-   7 2.50  11 2.50  20 2.50  32 2.50
  45  0.875  0.125  0.375-   2 2.50  14 2.50  21 2.50  25 2.50
  46  0.875  0.125  0.875-   1 2.50  13 2.50  22 2.50  26 2.50
  47  0.875  0.625  0.375-   4 2.50  16 2.50  23 2.50  27 2.50
  48  0.875  0.625  0.875-   3 2.50  15 2.50  24 2.50  28 2.50
  49  0.375  0.375  0.125-   7 2.50   9 2.50  19 2.50  29 2.50
  50  0.375  0.375  0.625-   8 2.50  10 2.50  20 2.50  30 2.50
  51  0.375  0.875  0.125-   5 2.50  11 2.50  17 2.50  31 2.50
  52  0.375  0.875  0.625-   6 2.50  12 2.50  18 2.50  32 2.50
  53  0.875  0.375  0.125-   3 2.50  13 2.50  23 2.50  25 2.50
  54  0.875  0.375  0.625-   4 2.50  14 2.50  24 2.50  26 2.50
  55  0.875  0.875  0.125-   1 2.50  15 2.50  21 2.50  27 2.50
  56  0.875  0.875  0.625-   2 2.50  16 2.50  22 2.50  28 2.50
  57  0.125  0.375  0.375-   4 2.50  10 2.50  19 2.50  25 2.50
  58  0.125  0.375  0.875-   3 2.50   9 2.50  20 2.50  26 2.50
  59  0.125  0.875  0.375-   2 2.50  12 2.50  17 2.50  27 2.50
  60  0.125  0.875  0.875-   1 2.50  11 2.50  18 2.50  28 2.50
  61  0.625  0.375  0.375-   8 2.50  14 2.50  23 2.50  29 2.50
  62  0.625  0.375  0.875-   7 2.50  13 2.50  24 2.50  30 2.50
  63  0.625  0.875  0.375-   6 2.50  16 2.50  21 2.50  31 2.50
  64  0.625  0.875  0.875-   5 2.50  15 2.50  22 2.50  32 2.50
 
  LATTYP: Found a simple tetragonal cell.
 ALAT       =    11.5142932557
 C/A-ratio  =     1.0045899801
  
  Lattice vectors:
  
 A1 = (   0.0000000000,  11.5142932557,   0.0000000000)
 A2 = (   0.0000000000,   0.0000000000,  11.5142932557)
 A3 = (  11.5671436330,   0.0000000000,   0.0000000000)


Analysis of symmetry for initial positions (statically):
=====================================================================
 Subroutine PRICEL returns following result:
 
  LATTYP: Found a body centered tetragonal cell.
 ALAT       =     4.0709174209
 C/A-ratio  =     1.4207047745
  
  Lattice vectors:
  
 A1 = (   2.8917859082,   0.0000000000,   2.8785733139)
 A2 = (   2.8917859082,   0.0000000000,  -2.8785733139)
 A3 = (  -2.8917859082,   2.8785733139,   0.0000000000)
 
  32 primitive cells build up your supercell.
 

 Routine SETGRP: Setting up the symmetry group for a 
 simple tetragonal supercell.


 Subroutine GETGRP returns: Found  8 space group operations
 (whereof  8 operations were pure point group operations)
 out of a pool of 16 trial point group operations.


The static configuration has the point symmetry D_2d.


Analysis of symmetry for dynamics (positions and initial velocities):
=====================================================================
 Subroutine PRICEL returns following result:
 
  LATTYP: Found a body centered tetragonal cell.
 ALAT       =     4.0709174209
 C/A-ratio  =     1.4207047745
  
  Lattice vectors:
  
 A1 = (   2.8917859082,   0.0000000000,   2.8785733139)
 A2 = (   2.8917859082,   0.0000000000,  -2.8785733139)
 A3 = (  -2.8917859082,   2.8785733139,   0.0000000000)
 
  32 primitive cells build up your supercell.
 

 Routine SETGRP: Setting up the symmetry group for a 
 simple tetragonal supercell.


 Subroutine GETGRP returns: Found  8 space group operations
 (whereof  8 operations were pure point group operations)
 out of a pool of 16 trial point group operations.


The dynamic configuration has the point symmetry D_2d.


 Subroutine INISYM returns: Found  8 space group operations
 (whereof  8 operations are pure point group operations),
 and found    32 'primitive' translations


----------------------------------------------------------------------------------------

                                     Primitive cell                                     

  volume of cell :      47.9237

  direct lattice vectors                    reciprocal lattice vectors
     2.891785908  0.000000000  2.878573314     0.172903533  0.173697157  0.173697157
     2.891785908  0.000000000 -2.878573314     0.172903533  0.173697157 -0.173697157
    -2.891785908  2.878573314  0.000000000     0.000000000  0.347394313  0.000000000

  length of vectors
     4.080270832  4.080270832  4.080270832     0.300394801  0.300394801  0.347394313

  position of ions in fractional coordinates (direct lattice)
     0.000000000  0.000000000  0.000000000
     0.750000000  0.250000000  0.500000000

  ion indices of the primitive-cell ions
   primitive index   ion index
                 1           1
                 2          33

----------------------------------------------------------------------------------------

 
 
 KPOINTS: Automatic mesh                          

Automatic generation of k-mesh.
 Grid dimensions read from file:
 generate k-points for:    5    5    5

 Generating k-lattice:

  Cartesian coordinates                     Fractional coordinates (reciprocal lattice)
     0.017290353  0.000000000  0.000000000     0.200000000  0.000000000  0.000000000
     0.000000000  0.017369716  0.000000000     0.000000000  0.200000000  0.000000000
     0.000000000  0.000000000  0.017369716     0.000000000  0.000000000  0.200000000

  Length of vectors
     0.017290353  0.017369716  0.017369716

  Shift w.r.t. Gamma in fractional coordinates (k-lattice)
     0.000000000  0.000000000  0.000000000

 TETIRR: Found    177 inequivalent tetrahedra from      750
 
 Subroutine IBZKPT returns following result:
 ===========================================
 
 Found     18 irreducible k-points:
 
 Following reciprocal coordinates:
            Coordinates               Weight
  0.000000  0.000000  0.000000      1.000000
  0.200000  0.000000  0.000000      2.000000
  0.400000  0.000000  0.000000      2.000000
  0.000000  0.200000  0.000000      4.000000
  0.200000  0.200000  0.000000      8.000000
  0.400000  0.200000  0.000000      8.000000
  0.000000  0.400000  0.000000      4.000000
  0.200000  0.400000  0.000000      8.000000
  0.400000  0.400000  0.000000      8.000000
  0.000000  0.200000  0.200000      4.000000
  0.200000  0.200000  0.200000      8.000000
  0.400000  0.200000  0.200000      8.000000
  0.000000  0.400000  0.200000      8.000000
  0.200000  0.400000  0.200000     16.000000
  0.400000  0.400000  0.200000     16.000000
  0.000000  0.400000  0.400000      4.000000
  0.200000  0.400000  0.400000      8.000000
  0.400000  0.400000  0.400000      8.000000
 
 Following cartesian coordinates:
            Coordinates               Weight
  0.000000  0.000000  0.000000      1.000000
  0.017290  0.000000  0.000000      2.000000
  0.034581  0.000000  0.000000      2.000000
  0.000000  0.017370  0.000000      4.000000
  0.017290  0.017370  0.000000      8.000000
  0.034581  0.017370  0.000000      8.000000
  0.000000  0.034739  0.000000      4.000000
  0.017290  0.034739  0.000000      8.000000
  0.034581  0.034739  0.000000      8.000000
  0.000000  0.017370  0.017370      4.000000
  0.017290  0.017370  0.017370      8.000000
  0.034581  0.017370  0.017370      8.000000
  0.000000  0.034739  0.017370      8.000000
  0.017290  0.034739  0.017370     16.000000
  0.034581  0.034739  0.017370     16.000000
  0.000000  0.034739  0.034739      4.000000
  0.017290  0.034739  0.034739      8.000000
  0.034581  0.034739  0.034739      8.000000
 
 
 Subroutine IBZKPT_HF returns following result:
 ==============================================
 
 Found    125 k-points in 1st BZ
 the following    125 k-points will be used (e.g. in the exchange kernel)
 Following reciprocal coordinates:   # in IRBZ
  0.000000  0.000000  0.000000    0.00800000   1 t-inv F
  0.200000  0.000000  0.000000    0.00800000   2 t-inv F
  0.400000  0.000000  0.000000    0.00800000   3 t-inv F
  0.000000  0.200000  0.000000    0.00800000   4 t-inv F
  0.200000  0.200000  0.000000    0.00800000   5 t-inv F
  0.400000  0.200000  0.000000    0.00800000   6 t-inv F
  0.000000  0.400000  0.000000    0.00800000   7 t-inv F
  0.200000  0.400000  0.000000    0.00800000   8 t-inv F
  0.400000  0.400000  0.000000    0.00800000   9 t-inv F
  0.000000  0.200000  0.200000    0.00800000  10 t-inv F
  0.200000  0.200000  0.200000    0.00800000  11 t-inv F
  0.400000  0.200000  0.200000    0.00800000  12 t-inv F
  0.000000  0.400000  0.200000    0.00800000  13 t-inv F
  0.200000  0.400000  0.200000    0.00800000  14 t-inv F
  0.400000  0.400000  0.200000    0.00800000  15 t-inv F
  0.000000  0.400000  0.400000    0.00800000  16 t-inv F
  0.200000  0.400000  0.400000    0.00800000  17 t-inv F
  0.400000  0.400000  0.400000    0.00800000  18 t-inv F
 -0.200000  0.000000  0.000000    0.00800000   2 t-inv F
 -0.400000  0.000000  0.000000    0.00800000   3 t-inv F
  0.000000  0.000000 -0.200000    0.00800000   4 t-inv F
  0.000000 -0.200000  0.000000    0.00800000   4 t-inv F
  0.000000  0.000000  0.200000    0.00800000   4 t-inv F
 -0.200000  0.000000 -0.200000    0.00800000   5 t-inv F
  0.200000 -0.200000  0.000000    0.00800000   5 t-inv F
 -0.200000  0.000000  0.200000    0.00800000   5 t-inv F
 -0.200000 -0.200000  0.000000    0.00800000   5 t-inv F
  0.200000  0.000000 -0.200000    0.00800000   5 t-inv F
 -0.200000  0.200000  0.000000    0.00800000   5 t-inv F
  0.200000  0.000000  0.200000    0.00800000   5 t-inv F
 -0.400000  0.000000 -0.200000    0.00800000   6 t-inv F
  0.400000 -0.200000  0.000000    0.00800000   6 t-inv F
 -0.400000  0.000000  0.200000    0.00800000   6 t-inv F
 -0.400000 -0.200000  0.000000    0.00800000   6 t-inv F
  0.400000  0.000000 -0.200000    0.00800000   6 t-inv F
 -0.400000  0.200000  0.000000    0.00800000   6 t-inv F
  0.400000  0.000000  0.200000    0.00800000   6 t-inv F
  0.000000  0.000000 -0.400000    0.00800000   7 t-inv F
  0.000000 -0.400000  0.000000    0.00800000   7 t-inv F
  0.000000  0.000000  0.400000    0.00800000   7 t-inv F
 -0.200000  0.000000 -0.400000    0.00800000   8 t-inv F
  0.200000 -0.400000  0.000000    0.00800000   8 t-inv F
 -0.200000  0.000000  0.400000    0.00800000   8 t-inv F
 -0.200000 -0.400000  0.000000    0.00800000   8 t-inv F
  0.200000  0.000000 -0.400000    0.00800000   8 t-inv F
 -0.200000  0.400000  0.000000    0.00800000   8 t-inv F
  0.200000  0.000000  0.400000    0.00800000   8 t-inv F
 -0.400000  0.000000 -0.400000    0.00800000   9 t-inv F
  0.400000 -0.400000  0.000000    0.00800000   9 t-inv F
 -0.400000  0.000000  0.400000    0.00800000   9 t-inv F
 -0.400000 -0.400000  0.000000    0.00800000   9 t-inv F
  0.400000  0.000000 -0.400000    0.00800000   9 t-inv F
 -0.400000  0.400000  0.000000    0.00800000   9 t-inv F
  0.400000  0.000000  0.400000    0.00800000   9 t-inv F
  0.000000  0.200000 -0.200000    0.00800000  10 t-inv F
  0.000000 -0.200000 -0.200000    0.00800000  10 t-inv F
  0.000000 -0.200000  0.200000    0.00800000  10 t-inv F
 -0.200000  0.200000 -0.200000    0.00800000  11 t-inv F
  0.200000 -0.200000 -0.200000    0.00800000  11 t-inv F
 -0.200000 -0.200000  0.200000    0.00800000  11 t-inv F
 -0.400000  0.200000 -0.200000    0.00800000  12 t-inv F
  0.400000 -0.200000 -0.200000    0.00800000  12 t-inv F
 -0.400000 -0.200000  0.200000    0.00800000  12 t-inv F
  0.000000  0.200000 -0.400000    0.00800000  13 t-inv F
  0.000000 -0.400000 -0.200000    0.00800000  13 t-inv F
  0.000000 -0.200000  0.400000    0.00800000  13 t-inv F
  0.000000 -0.400000  0.200000    0.00800000  13 t-inv F
  0.000000 -0.200000 -0.400000    0.00800000  13 t-inv F
  0.000000  0.400000 -0.200000    0.00800000  13 t-inv F
  0.000000  0.200000  0.400000    0.00800000  13 t-inv F
 -0.200000  0.200000 -0.400000    0.00800000  14 t-inv F
  0.200000 -0.400000 -0.200000    0.00800000  14 t-inv F
 -0.200000 -0.200000  0.400000    0.00800000  14 t-inv F
 -0.200000 -0.400000  0.200000    0.00800000  14 t-inv F
  0.200000 -0.200000 -0.400000    0.00800000  14 t-inv F
 -0.200000  0.400000 -0.200000    0.00800000  14 t-inv F
  0.200000  0.200000  0.400000    0.00800000  14 t-inv F
 -0.400000  0.200000 -0.400000    0.00800000  15 t-inv F
  0.400000 -0.400000 -0.200000    0.00800000  15 t-inv F
 -0.400000 -0.200000  0.400000    0.00800000  15 t-inv F
 -0.400000 -0.400000  0.200000    0.00800000  15 t-inv F
  0.400000 -0.200000 -0.400000    0.00800000  15 t-inv F
 -0.400000  0.400000 -0.200000    0.00800000  15 t-inv F
  0.400000  0.200000  0.400000    0.00800000  15 t-inv F
  0.000000  0.400000 -0.400000    0.00800000  16 t-inv F
  0.000000 -0.400000 -0.400000    0.00800000  16 t-inv F
  0.000000 -0.400000  0.400000    0.00800000  16 t-inv F
 -0.200000  0.400000 -0.400000    0.00800000  17 t-inv F
  0.200000 -0.400000 -0.400000    0.00800000  17 t-inv F
 -0.200000 -0.400000  0.400000    0.00800000  17 t-inv F
 -0.400000  0.400000 -0.400000    0.00800000  18 t-inv F
  0.400000 -0.400000 -0.400000    0.00800000  18 t-inv F
 -0.400000 -0.400000  0.400000    0.00800000  18 t-inv F
 -0.200000 -0.200000 -0.200000    0.00800000  11 t-inv T
  0.200000 -0.200000  0.200000    0.00800000  11 t-inv T
 -0.200000  0.200000  0.200000    0.00800000  11 t-inv T
  0.200000  0.200000 -0.200000    0.00800000  11 t-inv T
 -0.400000 -0.200000 -0.200000    0.00800000  12 t-inv T
  0.400000 -0.200000  0.200000    0.00800000  12 t-inv T
 -0.400000  0.200000  0.200000    0.00800000  12 t-inv T
  0.400000  0.200000 -0.200000    0.00800000  12 t-inv T
 -0.200000 -0.400000 -0.200000    0.00800000  14 t-inv T
  0.200000 -0.200000  0.400000    0.00800000  14 t-inv T
 -0.200000  0.400000  0.200000    0.00800000  14 t-inv T
  0.200000  0.200000 -0.400000    0.00800000  14 t-inv T
  0.200000  0.400000 -0.200000    0.00800000  14 t-inv T
 -0.200000  0.200000  0.400000    0.00800000  14 t-inv T
  0.200000 -0.400000  0.200000    0.00800000  14 t-inv T
 -0.200000 -0.200000 -0.400000    0.00800000  14 t-inv T
 -0.400000 -0.400000 -0.200000    0.00800000  15 t-inv T
  0.400000 -0.200000  0.400000    0.00800000  15 t-inv T
 -0.400000  0.400000  0.200000    0.00800000  15 t-inv T
  0.400000  0.200000 -0.400000    0.00800000  15 t-inv T
  0.400000  0.400000 -0.200000    0.00800000  15 t-inv T
 -0.400000  0.200000  0.400000    0.00800000  15 t-inv T
  0.400000 -0.400000  0.200000    0.00800000  15 t-inv T
 -0.400000 -0.200000 -0.400000    0.00800000  15 t-inv T
 -0.200000 -0.400000 -0.400000    0.00800000  17 t-inv T
  0.200000 -0.400000  0.400000    0.00800000  17 t-inv T
 -0.200000  0.400000  0.400000    0.00800000  17 t-inv T
  0.200000  0.400000 -0.400000    0.00800000  17 t-inv T
 -0.400000 -0.400000 -0.400000    0.00800000  18 t-inv T
  0.400000 -0.400000  0.400000    0.00800000  18 t-inv T
 -0.400000  0.400000  0.400000    0.00800000  18 t-inv T
  0.400000  0.400000 -0.400000    0.00800000  18 t-inv T


--------------------------------------------------------------------------------------------------------




 Dimension of arrays:
   k-points           NKPTS =     18   k-points in BZ     NKDIM =     18   number of bands    NBANDS=    168
   number of dos      NEDOS =    301   number of ions     NIONS =     64
   non local maximal  LDIM  =      5   non local SUM 2l+1 LMDIM =     13
   total plane-waves  NPLWV = 188160
   max r-space proj   IRMAX =      1   max aug-charges    IRDMAX=   9017
   dimension x,y,z NGX =    60 NGY =   56 NGZ =   56
   dimension x,y,z NGXF=   120 NGYF=  112 NGZF=  112
   support grid    NGXF=   120 NGYF=  112 NGZF=  112
   ions per type =              32  32
   NGX,Y,Z   is equivalent  to a cutoff of   8.62,  8.09,  8.09 a.u.
   NGXF,Y,Z  is equivalent  to a cutoff of  17.25, 16.17, 16.17 a.u.

 SYSTEM =  GaAs                                    
 POSCAR =  cubic gallium arsenide                  

 Startparameter for this run:
   NWRITE =      2    write-flag & timer
   PREC   = normal    normal or accurate (medium, high low for compatibility)
   ISTART =      0    job   : 0-new  1-cont  2-samecut
   ICHARG =      2    charge: 1-file 2-atom 10-const
   ISPIN  =      1    spin polarized calculation?
   LNONCOLLINEAR =      F non collinear calculations
   LSORBIT =      F    spin-orbit coupling
   INIWAV =      1    electr: 0-lowe 1-rand  2-diag
   LASPH  =      F    aspherical Exc in radial PAW
 Electronic Relaxation 1
   ENCUT  =  400.0 eV  29.40 Ry    5.42 a.u.  18.86 18.78 18.78*2*pi/ulx,y,z
   ENINI  =  400.0     initial cutoff
   ENAUG  =  462.8 eV  augmentation charge cutoff
   NELM   =     60;   NELMIN=  2; NELMDL= -5     # of ELM steps 
   EDIFF  = 0.1E-05   stopping-criterion for ELM
   LREAL  =      F    real-space projection
   NLSPLINE    = F    spline interpolate recip. space projectors
   LCOMPAT=      F    compatible to vasp.4.4
   GGA_COMPAT  = T    GGA compatible to vasp.4.4-vasp.4.6
   LMAXPAW     = -100 max onsite density
   LMAXMIX     =    2 max onsite mixed and CHGCAR
   VOSKOWN=      0    Vosko Wilk Nusair interpolation
   ROPT   =    0.00000   0.00000
 Ionic relaxation
   EDIFFG = 0.1E-02   stopping-criterion for IOM
   NSW    =    100    number of steps for IOM
   NBLOCK =      1;   KBLOCK =    100    inner block; outer block 
   IBRION =      2    ionic relax: 0-MD 1-quasi-New 2-CG
   NFREE  =      2    steps in history (QN), initial steepest desc. (CG)
   ISIF   =      2    stress and relaxation
   IWAVPR =     11    prediction:  0-non 1-charg 2-wave 3-comb
   ISYM   =      2    0-nonsym 1-usesym 2-fastsym
   LCORR  =      T    Harris-Foulkes like correction to forces

   POTIM  = 0.1000    time-step for ionic-motion
   TEIN   =    0.0    initial temperature
   TEBEG  =    0.0;   TEEND  =   0.0 temperature during run
   SMASS  =  -3.00    Nose mass-parameter (am)
   estimated Nose-frequenzy (Omega)   =  0.10E-29 period in steps = 0.63E+47 mass=  -0.306E-26a.u.
   SCALEE = 1.0000    scale energy and forces
   NPACO  =    256;   APACO  = 10.0  distance and # of slots for P.C.
   PSTRESS=    0.0 pullay stress

  Mass of Ions in am
   POMASS =  74.92 69.72
  Ionic Valenz
   ZVAL   =   5.00  3.00
  Atomic Wigner-Seitz radii
   RWIGS  =  -1.00 -1.00
  virtual crystal weights 
   VCA    =   1.00  1.00
   NELECT =     256.0000    total number of electrons
   NUPDOWN=      -1.0000    fix difference up-down

 DOS related values:
   EMIN   =  10.00;   EMAX   =-10.00  energy-range for DOS
   EFERMI =   0.00;   METHOD = LEGACY      
   ISMEAR =    -5;   SIGMA  =   0.10  broadening in eV -4-tet -1-fermi 0-gaus

 Electronic relaxation 2 (details)
   IALGO  =     38    algorithm
   LDIAG  =      T    sub-space diagonalisation (order eigenvalues)
   LSUBROT=      F    optimize rotation matrix (better conditioning)
   TURBO    =      0    0=normal 1=particle mesh
   IRESTART =      0    0=no restart 2=restart with 2 vectors
   NREBOOT  =      0    no. of reboots
   NMIN     =      0    reboot dimension
   EREF     =   0.00    reference energy to select bands
   IMIX   =      4    mixing-type and parameters
     AMIX     =   0.40;   BMIX     =  1.00
     AMIX_MAG =   1.60;   BMIX_MAG =  1.00
     AMIN     =   0.10
     WC   =   100.;   INIMIX=   1;  MIXPRE=   1;  MAXMIX= -45

 Intra band minimization:
   WEIMIN = 0.0010     energy-eigenvalue tresh-hold
   EBREAK =  0.15E-08  absolut break condition
   DEPER  =   0.30     relativ break condition  

   TIME   =   0.40     timestep for ELM

  volume/ion in A,a.u.               =      23.96       161.70
  Fermi-wavevector in a.u.,A,eV,Ry     =   0.901408  1.703414 11.055221  0.812536
  Thomas-Fermi vector in A             =   2.024485
 
 Write flags
   LWAVE        =      T    write WAVECAR
   LDOWNSAMPLE  =      F    k-point downsampling of WAVECAR
   LCHARG       =      T    write CHGCAR
   LVTOT        =      F    write LOCPOT, total local potential
   LVHAR        =      F    write LOCPOT, Hartree potential only
   WRT_POTENTIAL= false  ! write potential to hdf5 file
   LELF         =      F    write electronic localiz. function (ELF)
   LORBIT       =      0    0 simple, 1 ext, 2 COOP (PROOUT), +10 PAW based schemes


 Dipole corrections
   LMONO      =      F    monopole corrections only (constant potential shift)
   LDIPOL     =      F    correct potential (dipole corrections)
   IDIPOL     =      0    1-x, 2-y, 3-z, 4-all directions 
   EPSILON    =  1.0000000 bulk dielectric constant
   LVACPOTAV  =      F  vacuum potentials using an averaging scheme for the charge density
   VACPOTFLAT =  0.1000000 required flatness to determine vacuum potential
 Exchange correlation treatment:
   GGA     = PE    functional components
   XC_C    = 1    coefficients multiplying the functional components
   LIBXC   =     F    Libxc                    
   VOSKOWN =     0    Vosko Wilk Nusair interpolation
   LHFCALC =     F    Hartree Fock is set to
   LHFONE  =     F    Hartree Fock one center treatment
   AEXX    =    0.0000 exact exchange contribution

 Parameters of functionals:
   PE:
     No parameter
 
 Van der Waals corrections
   IVDW    =     0    specifies the selected vdW correction

 Linear response parameters
   LEPSILON=     T    determine dielectric tensor
   LRPA    =     F    only Hartree local field effects (RPA)
   LNABLA  =     F    use nabla operator in PAW spheres
   LVEL    =     F    velocity operator in full k-point grid
   CSHIFT  =0.1000    complex shift for real part using Kramers Kronig
   OMEGAMAX=  -1.0    maximum frequency
   DEG_THRESHOLD= 0.2000000E-02 threshold for treating states as degnerate
   RTIME   =   -0.100 relaxation time in fs
  (WPLASMAI=    0.000 imaginary part of plasma frequency in eV, 0.658/RTIME)
   DFIELD  = 0.0000000 0.0000000 0.0000000 field for delta impulse in time
 
  Optional k-point grid parameters
   LKPOINTS_OPT  =     F    use optional k-point grid
   KPOINTS_OPT_MODE=     1    mode for optional k-point grid
 
 Orbital magnetization related:
   ORBITALMAG=     F  switch on orbital magnetization
   LCHIMAG   =     F  perturbation theory with respect to B field
   DQ        =  0.001000  dq finite difference perturbation B field
   LLRAUG    =     F  two centre corrections for induced B field
   LBONE     =     F  B-component reconstruction in AE one-centre
   LVGVCALC  =     T  calculate vGv susceptibility
   LVGVAPPL  =     F  apply vGv susceptibility instead of pGv for G=0

 Random number generation:
   RANDOM_GENERATOR = DEFAULT
   PCG_SEED         = not used


--------------------------------------------------------------------------------------------------------


 conjugate gradient relaxation of ions
 charge density and potential will be updated during run
 non-spin polarized calculation
 Variant of blocked Davidson
 Davidson routine will perform the subspace rotation
 perform sub-space diagonalisation
    after iterative eigenvector-optimisation
 modified Broyden-mixing scheme, WC =      100.0
 initial mixing is a Kerker type mixing with AMIX =  0.4000 and BMIX =      1.0000
 Hartree-type preconditioning will be used
 using additional bands           40
 reciprocal scheme for non local part
 use partial core corrections
 calculate Harris-corrections to forces 
   (improved forces if not selfconsistent)
 use gradient corrections 
 use of overlap-Matrix (Vanderbilt PP)
 Fermi weights with tetrahedron method with Bloechl corrections


--------------------------------------------------------------------------------------------------------


  energy-cutoff  :      400.00
  volume of cell :     1533.56
      direct lattice vectors                 reciprocal lattice vectors
    11.567143633  0.000000000  0.000000000     0.086451766  0.000000000  0.000000000
     0.000000000 11.514293256  0.000000000     0.000000000  0.086848578  0.000000000
     0.000000000  0.000000000 11.514293256     0.000000000  0.000000000  0.086848578

  length of vectors
    11.567143633 11.514293256 11.514293256     0.086451766  0.086848578  0.086848578


 
 k-points in units of 2pi/SCALE and weight: Automatic mesh                          
   0.00000000  0.00000000  0.00000000       0.008
   0.01729035  0.00000000  0.00000000       0.016
   0.03458071  0.00000000  0.00000000       0.016
   0.00000000  0.01736972  0.00000000       0.032
   0.01729035  0.01736972  0.00000000       0.064
   0.03458071  0.01736972  0.00000000       0.064
   0.00000000  0.03473943  0.00000000       0.032
   0.01729035  0.03473943  0.00000000       0.064
   0.03458071  0.03473943  0.00000000       0.064
   0.00000000  0.01736972  0.01736972       0.032
   0.01729035  0.01736972  0.01736972       0.064
   0.03458071  0.01736972  0.01736972       0.064
   0.00000000  0.03473943  0.01736972       0.064
   0.01729035  0.03473943  0.01736972       0.128
   0.03458071  0.03473943  0.01736972       0.128
   0.00000000  0.03473943  0.03473943       0.032
   0.01729035  0.03473943  0.03473943       0.064
   0.03458071  0.03473943  0.03473943       0.064
 
 k-points in reciprocal lattice and weights: Automatic mesh                          
   0.00000000  0.00000000  0.00000000       0.008
   0.20000000  0.00000000  0.00000000       0.016
   0.40000000  0.00000000  0.00000000       0.016
   0.00000000  0.20000000  0.00000000       0.032
   0.20000000  0.20000000  0.00000000       0.064
   0.40000000  0.20000000  0.00000000       0.064
   0.00000000  0.40000000  0.00000000       0.032
   0.20000000  0.40000000  0.00000000       0.064
   0.40000000  0.40000000  0.00000000       0.064
   0.00000000  0.20000000  0.20000000       0.032
   0.20000000  0.20000000  0.20000000       0.064
   0.40000000  0.20000000  0.20000000       0.064
   0.00000000  0.40000000  0.20000000       0.064
   0.20000000  0.40000000  0.20000000       0.128
   0.40000000  0.40000000  0.20000000       0.128
   0.00000000  0.40000000  0.40000000       0.032
   0.20000000  0.40000000  0.40000000       0.064
   0.40000000  0.40000000  0.40000000       0.064
 
 position of ions in fractional coordinates (direct lattice) 
   0.00000000  0.00000000  0.00000000
   0.00000000  0.00000000  0.50000000
   0.00000000  0.50000000  0.00000000
   0.00000000  0.50000000  0.50000000
   0.50000000  0.00000000  0.00000000
   0.50000000  0.00000000  0.50000000
   0.50000000  0.50000000  0.00000000
   0.50000000  0.50000000  0.50000000
   0.25000000  0.25000000  0.00000000
   0.25000000  0.25000000  0.50000000
   0.25000000  0.75000000  0.00000000
   0.25000000  0.75000000  0.50000000
   0.75000000  0.25000000  0.00000000
   0.75000000  0.25000000  0.50000000
   0.75000000  0.75000000  0.00000000
   0.75000000  0.75000000  0.50000000
   0.25000000  0.00000000  0.25000000
   0.25000000  0.00000000  0.75000000
   0.25000000  0.50000000  0.25000000
   0.25000000  0.50000000  0.75000000
   0.75000000  0.00000000  0.25000000
   0.75000000  0.00000000  0.75000000
   0.75000000  0.50000000  0.25000000
   0.75000000  0.50000000  0.75000000
   0.00000000  0.25000000  0.25000000
   0.00000000  0.25000000  0.75000000
   0.00000000  0.75000000  0.25000000
   0.00000000  0.75000000  0.75000000
   0.50000000  0.25000000  0.25000000
   0.50000000  0.25000000  0.75000000
   0.50000000  0.75000000  0.25000000
   0.50000000  0.75000000  0.75000000
   0.12500000  0.12500000  0.12500000
   0.12500000  0.12500000  0.62500000
   0.12500000  0.62500000  0.12500000
   0.12500000  0.62500000  0.62500000
   0.62500000  0.12500000  0.12500000
   0.62500000  0.12500000  0.62500000
   0.62500000  0.62500000  0.12500000
   0.62500000  0.62500000  0.62500000
   0.37500000  0.12500000  0.37500000
   0.37500000  0.12500000  0.87500000
   0.37500000  0.62500000  0.37500000
   0.37500000  0.62500000  0.87500000
   0.87500000  0.12500000  0.37500000
   0.87500000  0.12500000  0.87500000
   0.87500000  0.62500000  0.37500000
   0.87500000  0.62500000  0.87500000
   0.37500000  0.37500000  0.12500000
   0.37500000  0.37500000  0.62500000
   0.37500000  0.87500000  0.12500000
   0.37500000  0.87500000  0.62500000
   0.87500000  0.37500000  0.12500000
   0.87500000  0.37500000  0.62500000
   0.87500000  0.87500000  0.12500000
   0.87500000  0.87500000  0.62500000
   0.12500000  0.37500000  0.37500000
   0.12500000  0.37500000  0.87500000
   0.12500000  0.87500000  0.37500000
   0.12500000  0.87500000  0.87500000
   0.62500000  0.37500000  0.37500000
   0.62500000  0.37500000  0.87500000
   0.62500000  0.87500000  0.37500000
   0.62500000  0.87500000  0.87500000
 
 position of ions in cartesian coordinates  (Angst):
   0.00000000  0.00000000  0.00000000
   0.00000000  0.00000000  5.75714663
   0.00000000  5.75714663  0.00000000
   0.00000000  5.75714663  5.75714663
   5.78357182  0.00000000  0.00000000
   5.78357182  0.00000000  5.75714663
   5.78357182  5.75714663  0.00000000
   5.78357182  5.75714663  5.75714663
   2.89178591  2.87857331  0.00000000
   2.89178591  2.87857331  5.75714663
   2.89178591  8.63571994  0.00000000
   2.89178591  8.63571994  5.75714663
   8.67535772  2.87857331  0.00000000
   8.67535772  2.87857331  5.75714663
   8.67535772  8.63571994  0.00000000
   8.67535772  8.63571994  5.75714663
   2.89178591  0.00000000  2.87857331
   2.89178591  0.00000000  8.63571994
   2.89178591  5.75714663  2.87857331
   2.89178591  5.75714663  8.63571994
   8.67535772  0.00000000  2.87857331
   8.67535772  0.00000000  8.63571994
   8.67535772  5.75714663  2.87857331
   8.67535772  5.75714663  8.63571994
   0.00000000  2.87857331  2.87857331
   0.00000000  2.87857331  8.63571994
   0.00000000  8.63571994  2.87857331
   0.00000000  8.63571994  8.63571994
   5.78357182  2.87857331  2.87857331
   5.78357182  2.87857331  8.63571994
   5.78357182  8.63571994  2.87857331
   5.78357182  8.63571994  8.63571994
   1.44589295  1.43928666  1.43928666
   1.44589295  1.43928666  7.19643328
   1.44589295  7.19643328  1.43928666
   1.44589295  7.19643328  7.19643328
   7.22946477  1.43928666  1.43928666
   7.22946477  1.43928666  7.19643328
   7.22946477  7.19643328  1.43928666
   7.22946477  7.19643328  7.19643328
   4.33767886  1.43928666  4.31785997
   4.33767886  1.43928666 10.07500660
   4.33767886  7.19643328  4.31785997
   4.33767886  7.19643328 10.07500660
  10.12125068  1.43928666  4.31785997
  10.12125068  1.43928666 10.07500660
  10.12125068  7.19643328  4.31785997
  10.12125068  7.19643328 10.07500660
   4.33767886  4.31785997  1.43928666
   4.33767886  4.31785997  7.19643328
   4.33767886 10.07500660  1.43928666
   4.33767886 10.07500660  7.19643328
  10.12125068  4.31785997  1.43928666
  10.12125068  4.31785997  7.19643328
  10.12125068 10.07500660  1.43928666
  10.12125068 10.07500660  7.19643328
   1.44589295  4.31785997  4.31785997
   1.44589295  4.31785997 10.07500660
   1.44589295 10.07500660  4.31785997
   1.44589295 10.07500660 10.07500660
   7.22946477  4.31785997  4.31785997
   7.22946477  4.31785997 10.07500660
   7.22946477 10.07500660  4.31785997
   7.22946477 10.07500660 10.07500660
 


--------------------------------------------------------------------------------------------------------


 k-point     1 :   0.0000 0.0000 0.0000  plane waves:   27825
 k-point     2 :   0.2000 0.0000 0.0000  plane waves:   27854
 k-point     3 :   0.4000 0.0000 0.0000  plane waves:   27878
 k-point     4 :   0.0000 0.2000 0.0000  plane waves:   27859
 k-point     5 :   0.2000 0.2000 0.0000  plane waves:   27878
 k-point     6 :   0.4000 0.2000 0.0000  plane waves:   27850
 k-point     7 :   0.0000 0.4000 0.0000  plane waves:   27836
 k-point     8 :   0.2000 0.4000 0.0000  plane waves:   27862
 k-point     9 :   0.4000 0.4000 0.0000  plane waves:   27868
 k-point    10 :   0.0000 0.2000 0.2000  plane waves:   27867
 k-point    11 :   0.2000 0.2000 0.2000  plane waves:   27856
 k-point    12 :   0.4000 0.2000 0.2000  plane waves:   27831
 k-point    13 :   0.0000 0.4000 0.2000  plane waves:   27837
 k-point    14 :   0.2000 0.4000 0.2000  plane waves:   27831
 k-point    15 :   0.4000 0.4000 0.2000  plane waves:   27885
 k-point    16 :   0.0000 0.4000 0.4000  plane waves:   27848
 k-point    17 :   0.2000 0.4000 0.4000  plane waves:   27863
 k-point    18 :   0.4000 0.4000 0.4000  plane waves:   27878

 maximum and minimum number of plane-waves per node :     27885    27825

 maximum number of plane-waves:     27885
 maximum index in each direction: 
   IXMAX=   18   IYMAX=   18   IZMAX=   18
   IXMIN=  -19   IYMIN=  -19   IZMIN=  -19


 serial   3D FFT for wavefunctions
 parallel 3D FFT for charge:
    minimum data exchange during FFTs selected (reduces bandwidth)


 total amount of memory used by VASP MPI-rank0   362649. kBytes
=======================================================================

   base      :      30000. kBytes
   nonl-proj :     132969. kBytes
   fftplans  :       7212. kBytes
   grid      :      18251. kBytes
   one-center:        519. kBytes
   wavefun   :     173698. kBytes
 
     INWAV:  cpu time      0.0001: real time      0.0011
 Broyden mixing: mesh for mixing (old mesh)
   NGX = 37   NGY = 37   NGZ = 37
  (NGX  =120   NGY  =112   NGZ  =112)
  gives a total of  50653 points

 initial charge density was supplied:
 charge density of overlapping atoms calculated
 number of electron     256.0000000 magnetization 
 keeping initial charge density in first step


--------------------------------------------------------------------------------------------------------


 Maximum index for augmentation-charges         1099 (set IRDMAX)


--------------------------------------------------------------------------------------------------------


 First call to EWALD:  gamma=   0.154
 Maximum number of real-space cells 3x 3x 3
 Maximum number of reciprocal cells 3x 3x 3

    FEWALD:  cpu time      0.0024: real time      0.0024


--------------------------------------- Ionic step        1  -------------------------------------------




--------------------------------------- Iteration      1(   1)  ---------------------------------------


    POTLOK:  cpu time      0.1156: real time      0.1186
    SETDIJ:  cpu time      0.0112: real time      0.0113
     EDDAV:  cpu time     93.4389: real time     94.7453
 BZINTS: Fermi energy:    9.793133;  256.000000 electrons
         Band energy: 0.381277E+03;  BLOECHL correction:   -0.016463
       DOS:  cpu time      0.0123: real time      0.0123
    --------------------------------------------
      LOOP:  cpu time     93.5779: real time     94.8876

 eigenvalue-minimisations  :  6048
 total energy-change (2. order) : 0.9371197E+03  (-0.8096334E+04)
 number of electron     256.0000000 magnetization 
 augmentation part      256.0000000 magnetization 

 Free energy of the ion-electron system (eV)
  ---------------------------------------------------
  alpha Z        PSCENC =       571.06777603
  Ewald energy   TEWEN  =     -7190.23401092
  -Hartree energ DENC   =      -602.61806370
  -exchange      EXHF   =         0.00000000
  -V(xc)+E(xc)   XCENC  =      -996.33234962
  PAW double counting   =      6692.16565901    -5247.93935635
  entropy T*S    EENTRO =         0.00000000
  eigenvalues    EBANDS =       381.27697909
  atomic energy  EATOM  =      7329.73306348
  Solvation  Ediel_sol  =         0.00000000
  ---------------------------------------------------
  free energy    TOTEN  =       937.11969701 eV

  energy without entropy =      937.11969701  energy(sigma->0) =      937.11969701


--------------------------------------------------------------------------------------------------------




--------------------------------------- Iteration      1(   2)  ---------------------------------------


     EDDAV:  cpu time    108.0238: real time    109.6000
 BZINTS: Fermi energy:    3.002559;  256.000000 electrons
         Band energy:-0.722729E+03;  BLOECHL correction:    0.000000
       DOS:  cpu time      0.0074: real time      0.0075
    --------------------------------------------
      LOOP:  cpu time    108.0312: real time    109.6075

 eigenvalue-minimisations  :  7184
 total energy-change (2. order) :-0.1104006E+04  (-0.1051538E+04)
 number of electron     256.0000000 magnetization 
 augmentation part      256.0000000 magnetization 

 Free energy of the ion-electron system (eV)
  ---------------------------------------------------
  alpha Z        PSCENC =       571.06777603
  Ewald energy   TEWEN  =     -7190.23401092
  -Hartree energ DENC   =      -602.61806370
  -exchange      EXHF   =         0.00000000
  -V(xc)+E(xc)   XCENC  =      -996.33234962
  PAW double counting   =      6692.16565901    -5247.93935635
  entropy T*S    EENTRO =         0.00000000
  eigenvalues    EBANDS =      -722.72911573
  atomic energy  EATOM  =      7329.73306348
  Solvation  Ediel_sol  =         0.00000000
  ---------------------------------------------------
  free energy    TOTEN  =      -166.88639781 eV

  energy without entropy =     -166.88639781  energy(sigma->0) =     -166.88639781


--------------------------------------------------------------------------------------------------------




--------------------------------------- Iteration      1(   3)  ---------------------------------------


     EDDAV:  cpu time    111.5600: real time    113.2137
 BZINTS: Fermi energy:    1.865930;  256.000000 electrons
         Band energy:-0.823475E+03;  BLOECHL correction:    0.000000
       DOS:  cpu time      0.0076: real time      0.0077
    --------------------------------------------
      LOOP:  cpu time    111.5676: real time    113.2214

 eigenvalue-minimisations  :  7408
 total energy-change (2. order) :-0.1007459E+03  (-0.9934736E+02)
 number of electron     256.0000000 magnetization 
 augmentation part      256.0000000 magnetization 

 Free energy of the ion-electron system (eV)
  ---------------------------------------------------
  alpha Z        PSCENC =       571.06777603
  Ewald energy   TEWEN  =     -7190.23401092
  -Hartree energ DENC   =      -602.61806370
  -exchange      EXHF   =         0.00000000
  -V(xc)+E(xc)   XCENC  =      -996.33234962
  PAW double counting   =      6692.16565901    -5247.93935635
  entropy T*S    EENTRO =         0.00000000
  eigenvalues    EBANDS =      -823.47501160
  atomic energy  EATOM  =      7329.73306348
  Solvation  Ediel_sol  =         0.00000000
  ---------------------------------------------------
  free energy    TOTEN  =      -267.63229368 eV

  energy without entropy =     -267.63229368  energy(sigma->0) =     -267.63229368


--------------------------------------------------------------------------------------------------------




--------------------------------------- Iteration      1(   4)  ---------------------------------------


     EDDAV:  cpu time    109.1340: real time    110.7866
 BZINTS: Fermi energy:    1.814515;  256.000000 electrons
         Band energy:-0.826007E+03;  BLOECHL correction:    0.000000
       DOS:  cpu time      0.0076: real time      0.0077
    --------------------------------------------
      LOOP:  cpu time    109.1417: real time    110.7943

 eigenvalue-minimisations  :  7264
 total energy-change (2. order) :-0.2531738E+01  (-0.2503033E+01)
 number of electron     256.0000000 magnetization 
 augmentation part      256.0000000 magnetization 

 Free energy of the ion-electron system (eV)
  ---------------------------------------------------
  alpha Z        PSCENC =       571.06777603
  Ewald energy   TEWEN  =     -7190.23401092
  -Hartree energ DENC   =      -602.61806370
  -exchange      EXHF   =         0.00000000
  -V(xc)+E(xc)   XCENC  =      -996.33234962
  PAW double counting   =      6692.16565901    -5247.93935635
  entropy T*S    EENTRO =         0.00000000
  eigenvalues    EBANDS =      -826.00674992
  atomic energy  EATOM  =      7329.73306348
  Solvation  Ediel_sol  =         0.00000000
  ---------------------------------------------------
  free energy    TOTEN  =      -270.16403200 eV

  energy without entropy =     -270.16403200  energy(sigma->0) =     -270.16403200


--------------------------------------------------------------------------------------------------------




--------------------------------------- Iteration      1(   5)  ---------------------------------------


     EDDAV:  cpu time    110.0611: real time    111.5294
 BZINTS: Fermi energy:    1.817552;  256.000000 electrons
         Band energy:-0.826082E+03;  BLOECHL correction:    0.000000
       DOS:  cpu time      0.0076: real time      0.0076
    CHARGE:  cpu time      0.7853: real time      0.7907
    MIXING:  cpu time      0.0031: real time      0.0031
    --------------------------------------------
      LOOP:  cpu time    110.8572: real time    112.3309

 eigenvalue-minimisations  :  7400
 total energy-change (2. order) :-0.7495487E-01  (-0.7469738E-01)
 number of electron     255.9999518 magnetization 
 augmentation part      -41.5279695 magnetization 

 Broyden mixing:
  rms(total) = 0.20148E+01    rms(broyden)= 0.20148E+01
  rms(prec ) = 0.22963E+01
  weight for this iteration     100.00

 Free energy of the ion-electron system (eV)
  ---------------------------------------------------
  alpha Z        PSCENC =       571.06777603
  Ewald energy   TEWEN  =     -7190.23401092
  -Hartree energ DENC   =      -602.61806370
  -exchange      EXHF   =         0.00000000
  -V(xc)+E(xc)   XCENC  =      -996.33234962
  PAW double counting   =      6692.16565901    -5247.93935635
  entropy T*S    EENTRO =         0.00000000
  eigenvalues    EBANDS =      -826.08170479
  atomic energy  EATOM  =      7329.73306348
  Solvation  Ediel_sol  =         0.00000000
  ---------------------------------------------------
  free energy    TOTEN  =      -270.23898687 eV

  energy without entropy =     -270.23898687  energy(sigma->0) =     -270.23898687


--------------------------------------------------------------------------------------------------------




--------------------------------------- Iteration      1(   6)  ---------------------------------------


    POTLOK:  cpu time      0.1128: real time      0.1181
    SETDIJ:  cpu time      0.0109: real time      0.0110
     EDDAV:  cpu time    105.8121: real time    107.1145
 BZINTS: Fermi energy:    2.069624;  256.000000 electrons
         Band energy:-0.774457E+03;  BLOECHL correction:    0.000000
       DOS:  cpu time      0.0075: real time      0.0075
    CHARGE:  cpu time      0.7840: real time      0.7890
    MIXING:  cpu time      0.0034: real time      0.0034
    --------------------------------------------
      LOOP:  cpu time    106.7306: real time    108.0435

 eigenvalue-minimisations  :  7080
 total energy-change (2. order) : 0.4191074E+01  (-0.6522761E+00)
 number of electron     255.9999525 magnetization 
 augmentation part      -41.4030621 magnetization 

 Broyden mixing:
  rms(total) = 0.11829E+01    rms(broyden)= 0.11829E+01
  rms(prec ) = 0.13073E+01
  weight for this iteration     100.00

 eigenvalues of (default mixing * dielectric matrix)
  average eigenvalue GAMMA=   2.2606
  2.2606

 Free energy of the ion-electron system (eV)
  ---------------------------------------------------
  alpha Z        PSCENC =       571.06777603
  Ewald energy   TEWEN  =     -7190.23401092
  -Hartree energ DENC   =      -653.34507004
  -exchange      EXHF   =         0.00000000
  -V(xc)+E(xc)   XCENC  =      -987.52700826
  PAW double counting   =      9407.21428721    -7968.49969148
  entropy T*S    EENTRO =         0.00000000
  eigenvalues    EBANDS =      -774.45725925
  atomic energy  EATOM  =      7329.73306348
  Solvation  Ediel_sol  =         0.00000000
  ---------------------------------------------------
  free energy    TOTEN  =      -266.04791324 eV

  energy without entropy =     -266.04791324  energy(sigma->0) =     -266.04791324


--------------------------------------------------------------------------------------------------------




--------------------------------------- Iteration      1(   7)  ---------------------------------------


    POTLOK:  cpu time      0.1132: real time      0.1168
    SETDIJ:  cpu time      0.0109: real time      0.0109
     EDDAV:  cpu time    109.0673: real time    110.4700
 BZINTS: Fermi energy:    2.324568;  256.000000 electrons
         Band energy:-0.725656E+03;  BLOECHL correction:    0.000000
       DOS:  cpu time      0.0077: real time      0.0077
    CHARGE:  cpu time      0.7879: real time      0.7926
    MIXING:  cpu time      0.0034: real time      0.0034
    --------------------------------------------
      LOOP:  cpu time    109.9904: real time    111.4014

 eigenvalue-minimisations  :  7344
 total energy-change (2. order) : 0.8308587E+00  (-0.4309718E+00)
 number of electron     255.9999532 magnetization 
 augmentation part      -41.2753927 magnetization 

 Broyden mixing:
  rms(total) = 0.24468E+00    rms(broyden)= 0.24468E+00
  rms(prec ) = 0.28734E+00
  weight for this iteration     100.00

 eigenvalues of (default mixing * dielectric matrix)
  average eigenvalue GAMMA=   1.9354
  1.6129  2.2579

 Free energy of the ion-electron system (eV)
  ---------------------------------------------------
  alpha Z        PSCENC =       571.06777603
  Ewald energy   TEWEN  =     -7190.23401092
  -Hartree energ DENC   =      -706.34256794
  -exchange      EXHF   =         0.00000000
  -V(xc)+E(xc)   XCENC  =      -976.69766374
  PAW double counting   =     13928.16782179   -12495.25544551
  entropy T*S    EENTRO =         0.00000000
  eigenvalues    EBANDS =      -725.65602775
  atomic energy  EATOM  =      7329.73306348
  Solvation  Ediel_sol  =         0.00000000
  ---------------------------------------------------
  free energy    TOTEN  =      -265.21705457 eV

  energy without entropy =     -265.21705457  energy(sigma->0) =     -265.21705457


--------------------------------------------------------------------------------------------------------




--------------------------------------- Iteration      1(   8)  ---------------------------------------


    POTLOK:  cpu time      0.1121: real time      0.1153
    SETDIJ:  cpu time      0.0109: real time      0.0110
     EDDAV:  cpu time    104.6984: real time    106.0252
 BZINTS: Fermi energy:    2.295135;  256.000000 electrons
         Band energy:-0.727350E+03;  BLOECHL correction:    0.000000
       DOS:  cpu time      0.0076: real time      0.0076
    CHARGE:  cpu time      0.7790: real time      0.7843
    MIXING:  cpu time      0.0034: real time      0.0034
    --------------------------------------------
      LOOP:  cpu time    105.6114: real time    106.9469

 eigenvalue-minimisations  :  7056
 total energy-change (2. order) : 0.4106791E-01  (-0.5022024E-01)
 number of electron     255.9999530 magnetization 
 augmentation part      -41.2843333 magnetization 

 Broyden mixing:
  rms(total) = 0.61605E-01    rms(broyden)= 0.61605E-01
  rms(prec ) = 0.71663E-01
  weight for this iteration     100.00

 eigenvalues of (default mixing * dielectric matrix)
  average eigenvalue GAMMA=   1.9492
  2.6812  1.5832  1.5832

 Free energy of the ion-electron system (eV)
  ---------------------------------------------------
  alpha Z        PSCENC =       571.06777603
  Ewald energy   TEWEN  =     -7190.23401092
  -Hartree energ DENC   =      -705.66007737
  -exchange      EXHF   =         0.00000000
  -V(xc)+E(xc)   XCENC  =      -975.34518547
  PAW double counting   =     14592.20380502   -13159.59127993
  entropy T*S    EENTRO =         0.00000000
  eigenvalues    EBANDS =      -727.35007748
  atomic energy  EATOM  =      7329.73306348
  Solvation  Ediel_sol  =         0.00000000
  ---------------------------------------------------
  free energy    TOTEN  =      -265.17598666 eV

  energy without entropy =     -265.17598666  energy(sigma->0) =     -265.17598666


--------------------------------------------------------------------------------------------------------




--------------------------------------- Iteration      1(   9)  ---------------------------------------


    POTLOK:  cpu time      0.1123: real time      0.1181
    SETDIJ:  cpu time      0.0107: real time      0.0108
     EDDAV:  cpu time    102.8668: real time    104.2414
 BZINTS: Fermi energy:    2.285282;  256.000000 electrons
         Band energy:-0.723459E+03;  BLOECHL correction:    0.000000
       DOS:  cpu time      0.0077: real time      0.0078
    CHARGE:  cpu time      0.7778: real time      0.7832
    MIXING:  cpu time      0.0039: real time      0.0039
    --------------------------------------------
      LOOP:  cpu time    103.7792: real time    105.1653

 eigenvalue-minimisations  :  6928
 total energy-change (2. order) :-0.1185312E-01  (-0.3553305E-02)
 number of electron     255.9999530 magnetization 
 augmentation part      -41.2854908 magnetization 

 Broyden mixing:
  rms(total) = 0.23176E-01    rms(broyden)= 0.23176E-01
  rms(prec ) = 0.24610E-01
  weight for this iteration     100.00

 eigenvalues of (default mixing * dielectric matrix)
  average eigenvalue GAMMA=   1.6579
  2.5836  1.6619  1.6619  0.7242

 Free energy of the ion-electron system (eV)
  ---------------------------------------------------
  alpha Z        PSCENC =       571.06777603
  Ewald energy   TEWEN  =     -7190.23401092
  -Hartree energ DENC   =      -710.26614358
  -exchange      EXHF   =         0.00000000
  -V(xc)+E(xc)   XCENC  =      -974.44097010
  PAW double counting   =     14783.74118527   -13351.32977401
  entropy T*S    EENTRO =         0.00000000
  eigenvalues    EBANDS =      -723.45896594
  atomic energy  EATOM  =      7329.73306348
  Solvation  Ediel_sol  =         0.00000000
  ---------------------------------------------------
  free energy    TOTEN  =      -265.18783978 eV

  energy without entropy =     -265.18783978  energy(sigma->0) =     -265.18783978


--------------------------------------------------------------------------------------------------------




--------------------------------------- Iteration      1(  10)  ---------------------------------------


    POTLOK:  cpu time      0.1133: real time      0.1164
    SETDIJ:  cpu time      0.0109: real time      0.0110
     EDDAV:  cpu time    110.8772: real time    112.3023
 BZINTS: Fermi energy:    2.325842;  256.000000 electrons
         Band energy:-0.723401E+03;  BLOECHL correction:    0.000000
       DOS:  cpu time      0.0078: real time      0.0079
    CHARGE:  cpu time      0.7751: real time      0.7802
    MIXING:  cpu time      0.0037: real time      0.0038
    --------------------------------------------
      LOOP:  cpu time    111.7879: real time    113.2215

 eigenvalue-minimisations  :  7616
 total energy-change (2. order) :-0.1039724E-02  (-0.9504854E-04)
 number of electron     255.9999530 magnetization 
 augmentation part      -41.2858886 magnetization 

 Broyden mixing:
  rms(total) = 0.10899E-01    rms(broyden)= 0.10899E-01
  rms(prec ) = 0.12641E-01
  weight for this iteration     100.00

 eigenvalues of (default mixing * dielectric matrix)
  average eigenvalue GAMMA=   1.9224
  3.1102  2.4966  1.0343  1.4854  1.4854

 Free energy of the ion-electron system (eV)
  ---------------------------------------------------
  alpha Z        PSCENC =       571.06777603
  Ewald energy   TEWEN  =     -7190.23401092
  -Hartree energ DENC   =      -710.35841133
  -exchange      EXHF   =         0.00000000
  -V(xc)+E(xc)   XCENC  =      -974.48404665
  PAW double counting   =     14702.35698450   -13269.86953208
  entropy T*S    EENTRO =         0.00000000
  eigenvalues    EBANDS =      -723.40070252
  atomic energy  EATOM  =      7329.73306348
  Solvation  Ediel_sol  =         0.00000000
  ---------------------------------------------------
  free energy    TOTEN  =      -265.18887950 eV

  energy without entropy =     -265.18887950  energy(sigma->0) =     -265.18887950


--------------------------------------------------------------------------------------------------------




--------------------------------------- Iteration      1(  11)  ---------------------------------------


    POTLOK:  cpu time      0.1115: real time      0.1147
    SETDIJ:  cpu time      0.0109: real time      0.0110
     EDDAV:  cpu time     98.0057: real time     99.5645
 BZINTS: Fermi energy:    2.319358;  256.000000 electrons
         Band energy:-0.722966E+03;  BLOECHL correction:    0.000000
       DOS:  cpu time      0.0077: real time      0.0078
    CHARGE:  cpu time      0.7727: real time      0.7782
    MIXING:  cpu time      0.0046: real time      0.0046
    --------------------------------------------
      LOOP:  cpu time     98.9131: real time    100.4808

 eigenvalue-minimisations  :  6512
 total energy-change (2. order) :-0.1317277E-02  (-0.2188108E-03)
 number of electron     255.9999530 magnetization 
 augmentation part      -41.2831624 magnetization 

 Broyden mixing:
  rms(total) = 0.49696E-02    rms(broyden)= 0.49696E-02
  rms(prec ) = 0.52049E-02
  weight for this iteration     100.00

 eigenvalues of (default mixing * dielectric matrix)
  average eigenvalue GAMMA=   1.7865
  3.0724  2.4858  1.6556  1.6556  0.9588  0.8908

 Free energy of the ion-electron system (eV)
  ---------------------------------------------------
  alpha Z        PSCENC =       571.06777603
  Ewald energy   TEWEN  =     -7190.23401092
  -Hartree energ DENC   =      -710.93205337
  -exchange      EXHF   =         0.00000000
  -V(xc)+E(xc)   XCENC  =      -974.40282039
  PAW double counting   =     14651.78122090   -13219.23731811
  entropy T*S    EENTRO =         0.00000000
  eigenvalues    EBANDS =      -722.96605438
  atomic energy  EATOM  =      7329.73306348
  Solvation  Ediel_sol  =         0.00000000
  ---------------------------------------------------
  free energy    TOTEN  =      -265.19019678 eV

  energy without entropy =     -265.19019678  energy(sigma->0) =     -265.19019678


--------------------------------------------------------------------------------------------------------




--------------------------------------- Iteration      1(  12)  ---------------------------------------


    POTLOK:  cpu time      0.1136: real time      0.1188
    SETDIJ:  cpu time      0.0109: real time      0.0110
     EDDAV:  cpu time    108.7888: real time    110.2069
 BZINTS: Fermi energy:    2.314807;  256.000000 electrons
         Band energy:-0.722925E+03;  BLOECHL correction:    0.000000
       DOS:  cpu time      0.0076: real time      0.0076
    CHARGE:  cpu time      0.7694: real time      0.7746
    MIXING:  cpu time      0.0038: real time      0.0039
    --------------------------------------------
      LOOP:  cpu time    109.6941: real time    111.1228

 eigenvalue-minimisations  :  7408
 total energy-change (2. order) :-0.7529576E-05  (-0.2874925E-05)
 number of electron     255.9999530 magnetization 
 augmentation part      -41.2831040 magnetization 

 Broyden mixing:
  rms(total) = 0.22517E-02    rms(broyden)= 0.22517E-02
  rms(prec ) = 0.25081E-02
  weight for this iteration     100.00

 eigenvalues of (default mixing * dielectric matrix)
  average eigenvalue GAMMA=   1.8873
  3.2498  2.6144  2.6144  1.3477  1.3477  1.0186  1.0186

 Free energy of the ion-electron system (eV)
  ---------------------------------------------------
  alpha Z        PSCENC =       571.06777603
  Ewald energy   TEWEN  =     -7190.23401092
  -Hartree energ DENC   =      -710.96058554
  -exchange      EXHF   =         0.00000000
  -V(xc)+E(xc)   XCENC  =      -974.40866632
  PAW double counting   =     14657.67282569   -13225.13582944
  entropy T*S    EENTRO =         0.00000000
  eigenvalues    EBANDS =      -722.92477728
  atomic energy  EATOM  =      7329.73306348
  Solvation  Ediel_sol  =         0.00000000
  ---------------------------------------------------
  free energy    TOTEN  =      -265.19020431 eV

  energy without entropy =     -265.19020431  energy(sigma->0) =     -265.19020431


--------------------------------------------------------------------------------------------------------




--------------------------------------- Iteration      1(  13)  ---------------------------------------


    POTLOK:  cpu time      0.1125: real time      0.1164
    SETDIJ:  cpu time      0.0108: real time      0.0109
     EDDAV:  cpu time    104.7565: real time    106.2029
 BZINTS: Fermi energy:    2.312467;  256.000000 electrons
         Band energy:-0.722798E+03;  BLOECHL correction:    0.000000
       DOS:  cpu time      0.0078: real time      0.0078
    CHARGE:  cpu time      0.7766: real time      0.7818
    MIXING:  cpu time      0.0039: real time      0.0039
    --------------------------------------------
      LOOP:  cpu time    105.6680: real time    107.1238

 eigenvalue-minimisations  :  6952
 total energy-change (2. order) :-0.9326548E-05  (-0.7745059E-05)
 number of electron     255.9999530 magnetization 
 augmentation part      -41.2823935 magnetization 

 Broyden mixing:
  rms(total) = 0.99003E-03    rms(broyden)= 0.99003E-03
  rms(prec ) = 0.11072E-02
  weight for this iteration     100.00

 eigenvalues of (default mixing * dielectric matrix)
  average eigenvalue GAMMA=   1.8440
  3.3888  2.7748  2.4408  1.6279  1.6279  1.0994  0.8963  0.8963

 Free energy of the ion-electron system (eV)
  ---------------------------------------------------
  alpha Z        PSCENC =       571.06777603
  Ewald energy   TEWEN  =     -7190.23401092
  -Hartree energ DENC   =      -711.08573307
  -exchange      EXHF   =         0.00000000
  -V(xc)+E(xc)   XCENC  =      -974.40392684
  PAW double counting   =     14661.46223988   -13228.93135375
  entropy T*S    EENTRO =         0.00000000
  eigenvalues    EBANDS =      -722.79826843
  atomic energy  EATOM  =      7329.73306348
  Solvation  Ediel_sol  =         0.00000000
  ---------------------------------------------------
  free energy    TOTEN  =      -265.19021363 eV

  energy without entropy =     -265.19021363  energy(sigma->0) =     -265.19021363


--------------------------------------------------------------------------------------------------------




--------------------------------------- Iteration      1(  14)  ---------------------------------------


    POTLOK:  cpu time      0.1116: real time      0.1205
    SETDIJ:  cpu time      0.0108: real time      0.0109
     EDDAV:  cpu time     90.0469: real time     91.2294
 BZINTS: Fermi energy:    2.310591;  256.000000 electrons
         Band energy:-0.722811E+03;  BLOECHL correction:    0.000000
       DOS:  cpu time      0.0075: real time      0.0075
    --------------------------------------------
      LOOP:  cpu time     90.1768: real time     91.3682

 eigenvalue-minimisations  :  5984
 total energy-change (2. order) : 0.6296614E-06  (-0.4056619E-06)
 number of electron     255.9999530 magnetization 
 augmentation part      -41.2823935 magnetization 

 Free energy of the ion-electron system (eV)
  ---------------------------------------------------
  alpha Z        PSCENC =       571.06777603
  Ewald energy   TEWEN  =     -7190.23401092
  -Hartree energ DENC   =      -711.07366751
  -exchange      EXHF   =         0.00000000
  -V(xc)+E(xc)   XCENC  =      -974.40402675
  PAW double counting   =     14661.50083577   -13228.96870798
  entropy T*S    EENTRO =         0.00000000
  eigenvalues    EBANDS =      -722.81147512
  atomic energy  EATOM  =      7329.73306348
  Solvation  Ediel_sol  =         0.00000000
  ---------------------------------------------------
  free energy    TOTEN  =      -265.19021300 eV

  energy without entropy =     -265.19021300  energy(sigma->0) =     -265.19021300


--------------------------------------------------------------------------------------------------------




 average (electrostatic) potential at core
  the test charge radii are     1.0621  1.2767
  (the norm of the test charge is              1.0000)
       1 -51.9053       2 -51.9053       3 -51.9053       4 -51.9053       5 -51.9053
       6 -51.9053       7 -51.9053       8 -51.9053       9 -51.9053      10 -51.9053
      11 -51.9053      12 -51.9053      13 -51.9053      14 -51.9053      15 -51.9053
      16 -51.9053      17 -51.9053      18 -51.9053      19 -51.9053      20 -51.9053
      21 -51.9053      22 -51.9053      23 -51.9053      24 -51.9053      25 -51.9053
      26 -51.9053      27 -51.9053      28 -51.9053      29 -51.9053      30 -51.9053
      31 -51.9053      32 -51.9053      33 -15.0795      34 -15.0795      35 -15.0795
      36 -15.0795      37 -15.0795      38 -15.0795      39 -15.0795      40 -15.0795
      41 -15.0795      42 -15.0795      43 -15.0795      44 -15.0795      45 -15.0795
      46 -15.0795      47 -15.0795      48 -15.0795      49 -15.0795      50 -15.0795
      51 -15.0795      52 -15.0795      53 -15.0795      54 -15.0795      55 -15.0795
      56 -15.0795      57 -15.0795      58 -15.0795      59 -15.0795      60 -15.0795
      61 -15.0795      62 -15.0795      63 -15.0795      64 -15.0795
 
 
 
 E-fermi :   2.3106     XC(G=0):  -8.9454     alpha+bet : -8.0693

 val. band max:        2.2831723760   @ k =   0.0000   0.0000   0.0000
 cond. band min:       2.4127202876   @ k =   0.0000   0.0000   0.0000
 fundamental gap:      0.1295479116
 Fermi energy:         2.3105905755

 k-point     1 :       0.0000    0.0000    0.0000
  band No.  band energies     occupation 
      1     -10.0221      2.00000
      2      -9.2252      2.00000
      3      -9.2252      2.00000
      4      -9.2195      2.00000
      5      -9.2195      2.00000
      6      -9.2195      2.00000
      7      -9.2195      2.00000
      8      -8.6215      2.00000
      9      -8.6215      2.00000
     10      -8.6215      2.00000
     11      -8.6215      2.00000
     12      -8.6215      2.00000
     13      -8.6215      2.00000
     14      -8.6215      2.00000
     15      -8.6215      2.00000
     16      -8.6193      2.00000
     17      -8.6193      2.00000
     18      -8.6193      2.00000
     19      -8.6193      2.00000
     20      -8.5345      2.00000
     21      -8.5345      2.00000
     22      -8.5345      2.00000
     23      -8.5345      2.00000
     24      -7.8984      2.00000
     25      -7.8843      2.00000
     26      -7.8843      2.00000
     27      -7.8562      2.00000
     28      -7.8562      2.00000
     29      -7.8562      2.00000
     30      -7.8562      2.00000
     31      -7.8504      2.00000
     32      -7.8504      2.00000
     33      -4.2629      2.00000
     34      -4.2374      2.00000
     35      -4.2374      2.00000
     36      -4.0752      2.00000
     37      -4.0752      2.00000
     38      -4.0752      2.00000
     39      -4.0752      2.00000
     40      -4.0663      2.00000
     41      -4.0663      2.00000
     42      -4.0244      2.00000
     43      -4.0244      2.00000
     44      -4.0244      2.00000
     45      -4.0244      2.00000
     46      -3.1844      2.00000
     47      -3.1844      2.00000
     48      -3.1844      2.00000
     49      -3.1844      2.00000
     50      -3.1767      2.00000
     51      -3.1767      2.00000
     52      -3.1767      2.00000
     53      -3.1767      2.00000
     54      -3.1767      2.00000
     55      -3.1767      2.00000
     56      -3.1767      2.00000
     57      -3.1767      2.00000
     58      -1.7888      2.00000
     59      -1.7888      2.00000
     60      -1.7671      2.00000
     61      -1.7671      2.00000
     62      -1.7671      2.00000
     63      -1.7671      2.00000
[...]
   15.663049    0.401563    0.406568    0.406568   -0.000000    0.000000   -0.000000
   15.683079    0.403127    0.408159    0.408159   -0.000000    0.000000   -0.000000
   15.703108    0.404719    0.409771    0.409771   -0.000000    0.000000   -0.000000
   15.723138    0.406338    0.411414    0.411414   -0.000000    0.000000   -0.000000
   15.743167    0.407981    0.413093    0.413093   -0.000000    0.000000   -0.000000
   15.763197    0.409645    0.414800    0.414800   -0.000000    0.000000   -0.000000
   15.783226    0.411326    0.416528    0.416528   -0.000000    0.000000   -0.000000
   15.803256    0.413022    0.418266    0.418266   -0.000000    0.000000   -0.000000
   15.823285    0.414730    0.420008    0.420008   -0.000000    0.000000   -0.000000
   15.843315    0.416446    0.421748    0.421748   -0.000000    0.000000   -0.000000
   15.863344    0.418170    0.423483    0.423483   -0.000000    0.000000   -0.000000
   15.883373    0.419898    0.425212    0.425212   -0.000000    0.000000   -0.000000
   15.903403    0.421629    0.426933    0.426933   -0.000000    0.000000   -0.000000
   15.923432    0.423363    0.428647    0.428647   -0.000000    0.000000   -0.000000
   15.943462    0.425100    0.430360    0.430360   -0.000000    0.000000   -0.000000
   15.963491    0.426842    0.432078    0.432078   -0.000000    0.000000   -0.000000
   15.983521    0.428586    0.433805    0.433805   -0.000000    0.000000   -0.000000
   16.003550    0.430329    0.435538    0.435538   -0.000000    0.000000   -0.000000
   16.023580    0.432062    0.437270    0.437270   -0.000000    0.000000   -0.000000
   16.043609    0.433782    0.438995    0.438995   -0.000000    0.000000   -0.000000
   16.063639    0.435485    0.440709    0.440709   -0.000000    0.000000   -0.000000
   16.083668    0.437172    0.442411    0.442411   -0.000000    0.000000   -0.000000
   16.103698    0.438849    0.444105    0.444105   -0.000000    0.000000   -0.000000
   16.123727    0.440521    0.445793    0.445793   -0.000000    0.000000   -0.000000
   16.143757    0.442196    0.447479    0.447479   -0.000000    0.000000   -0.000000
   16.163786    0.443875    0.449165    0.449165   -0.000000    0.000000   -0.000000
   16.183816    0.445558    0.450849    0.450849   -0.000000    0.000000   -0.000000
   16.203845    0.447242    0.452530    0.452530   -0.000000    0.000000   -0.000000
   16.223875    0.448923    0.454203    0.454203   -0.000000    0.000000   -0.000000
   16.243904    0.450596    0.455867    0.455867   -0.000000    0.000000   -0.000000
   16.263933    0.452260    0.457519    0.457519   -0.000000    0.000000   -0.000000
   16.283963    0.453912    0.459160    0.459160   -0.000000    0.000000   -0.000000
   16.303992    0.455553    0.460788    0.460788   -0.000000    0.000000   -0.000000
   16.324022    0.457182    0.462404    0.462404   -0.000000    0.000000   -0.000000
   16.344051    0.458799    0.464008    0.464008   -0.000000    0.000000   -0.000000
   16.364081    0.460404    0.465601    0.465601   -0.000000    0.000000   -0.000000
   16.384110    0.461999    0.467182    0.467182   -0.000000    0.000000   -0.000000
   16.404140    0.463582    0.468752    0.468752   -0.000000    0.000000   -0.000000
   16.424169    0.465154    0.470311    0.470311   -0.000000    0.000000   -0.000000
   16.444199    0.466716    0.471860    0.471860   -0.000000    0.000000   -0.000000
   16.464228    0.468268    0.473399    0.473399   -0.000000    0.000000   -0.000000
   16.484258    0.469810    0.474928    0.474928   -0.000000    0.000000   -0.000000
   16.504287    0.471342    0.476447    0.476447   -0.000000    0.000000   -0.000000
   16.524317    0.472864    0.477957    0.477957   -0.000000    0.000000   -0.000000
   16.544346    0.474377    0.479457    0.479457   -0.000000    0.000000   -0.000000
   16.564376    0.475881    0.480948    0.480948   -0.000000    0.000000   -0.000000
   16.584405    0.477376    0.482430    0.482430   -0.000000    0.000000   -0.000000
   16.604435    0.478862    0.483904    0.483904   -0.000000    0.000000   -0.000000
   16.624464    0.480339    0.485368    0.485368   -0.000000    0.000000   -0.000000
   16.644494    0.481808    0.486824    0.486824   -0.000000    0.000000   -0.000000
   16.664523    0.483268    0.488272    0.488272   -0.000000    0.000000   -0.000000
   16.684552    0.484719    0.489711    0.489711   -0.000000    0.000000   -0.000000
   16.704582    0.486162    0.491142    0.491142   -0.000000    0.000000   -0.000000
   16.724611    0.487597    0.492565    0.492565   -0.000000    0.000000   -0.000000
   16.744641    0.489024    0.493980    0.493980   -0.000000    0.000000   -0.000000
   16.764670    0.490443    0.495387    0.495387   -0.000000    0.000000   -0.000000
   16.784700    0.491854    0.496787    0.496787   -0.000000    0.000000   -0.000000
   16.804729    0.493258    0.498179    0.498179   -0.000000    0.000000   -0.000000
   16.824759    0.494654    0.499563    0.499563   -0.000000    0.000000   -0.000000
   16.844788    0.496042    0.500940    0.500940   -0.000000    0.000000   -0.000000
   16.864818    0.497424    0.502310    0.502310   -0.000000    0.000000   -0.000000
   16.884847    0.498798    0.503673    0.503673   -0.000000    0.000000   -0.000000
   16.904877    0.500165    0.505029    0.505029   -0.000000    0.000000   -0.000000
   16.924906    0.501525    0.506377    0.506377   -0.000000    0.000000   -0.000000
   16.944936    0.502878    0.507719    0.507719   -0.000000    0.000000   -0.000000
   16.964965    0.504224    0.509055    0.509055   -0.000000    0.000000   -0.000000
   16.984995    0.505563    0.510383    0.510383   -0.000000    0.000000   -0.000000
   17.005024    0.506896    0.511705    0.511705   -0.000000    0.000000   -0.000000
   17.025054    0.508222    0.513020    0.513020   -0.000000    0.000000   -0.000000
   17.045083    0.509542    0.514329    0.514329   -0.000000    0.000000   -0.000000
   17.065112    0.510855    0.515631    0.515631   -0.000000    0.000000   -0.000000
   17.085142    0.512162    0.516928    0.516928   -0.000000    0.000000   -0.000000
   17.105171    0.513463    0.518217    0.518217   -0.000000    0.000000   -0.000000
   17.125201    0.514757    0.519501    0.519501   -0.000000    0.000000   -0.000000
   17.145230    0.516045    0.520779    0.520779   -0.000000    0.000000   -0.000000
   17.165260    0.517327    0.522050    0.522050   -0.000000    0.000000   -0.000000
   17.185289    0.518603    0.523316    0.523316   -0.000000    0.000000   -0.000000
   17.205319    0.519873    0.524575    0.524575   -0.000000    0.000000   -0.000000
   17.225348    0.521137    0.525829    0.525829   -0.000000    0.000000   -0.000000
   17.245378    0.522396    0.527077    0.527077   -0.000000    0.000000   -0.000000
   17.265407    0.523648    0.528319    0.528319   -0.000000    0.000000   -0.000000
   17.285437    0.524895    0.529555    0.529555   -0.000000    0.000000   -0.000000
   17.305466    0.526136    0.530786    0.530786   -0.000000    0.000000   -0.000000
   17.325496    0.527371    0.532011    0.532011   -0.000000    0.000000   -0.000000
   17.345525    0.528601    0.533231    0.533231   -0.000000    0.000000   -0.000000
   17.365555    0.529825    0.534445    0.534445   -0.000000    0.000000   -0.000000
   17.385584    0.531044    0.535653    0.535653   -0.000000    0.000000   -0.000000
   17.405614    0.532257    0.536856    0.536856   -0.000000    0.000000   -0.000000
   17.425643    0.533465    0.538054    0.538054   -0.000000    0.000000   -0.000000
   17.445672    0.534667    0.539246    0.539246   -0.000000    0.000000   -0.000000
   17.465702    0.535865    0.540433    0.540433   -0.000000    0.000000   -0.000000
   17.485731    0.537057    0.541615    0.541615   -0.000000    0.000000   -0.000000
   17.505761    0.538243    0.542792    0.542792   -0.000000    0.000000   -0.000000
   17.525790    0.539425    0.543963    0.543963   -0.000000    0.000000   -0.000000
   17.545820    0.540601    0.545130    0.545130   -0.000000    0.000000   -0.000000
   17.565849    0.541772    0.546291    0.546291   -0.000000    0.000000   -0.000000
   17.585879    0.542938    0.547447    0.547447   -0.000000    0.000000   -0.000000
   17.605908    0.544099    0.548599    0.548599   -0.000000    0.000000   -0.000000
   17.625938    0.545256    0.549745    0.549745   -0.000000    0.000000   -0.000000
   17.645967    0.546407    0.550886    0.550886   -0.000000    0.000000   -0.000000
   17.665997    0.547553    0.552023    0.552023   -0.000000    0.000000   -0.000000
   17.686026    0.548694    0.553155    0.553155   -0.000000    0.000000   -0.000000
   17.706056    0.549831    0.554282    0.554282   -0.000000    0.000000   -0.000000
   17.726085    0.550963    0.555404    0.555404   -0.000000    0.000000   -0.000000
   17.746115    0.552090    0.556521    0.556521   -0.000000    0.000000   -0.000000
   17.766144    0.553212    0.557634    0.557634   -0.000000    0.000000   -0.000000
   17.786174    0.554330    0.558742    0.558742   -0.000000    0.000000   -0.000000
   17.806203    0.555443    0.559845    0.559845   -0.000000    0.000000   -0.000000
   17.826233    0.556551    0.560944    0.560944   -0.000000    0.000000   -0.000000
   17.846262    0.557654    0.562038    0.562038   -0.000000    0.000000   -0.000000
   17.866291    0.558754    0.563128    0.563128   -0.000000    0.000000   -0.000000
   17.886321    0.559848    0.564213    0.564213   -0.000000    0.000000   -0.000000
   17.906350    0.560938    0.565293    0.565293   -0.000000    0.000000   -0.000000
   17.926380    0.562024    0.566370    0.566370   -0.000000    0.000000   -0.000000
   17.946409    0.563105    0.567441    0.567441   -0.000000    0.000000   -0.000000
   17.966439    0.564182    0.568509    0.568509   -0.000000    0.000000   -0.000000
   17.986468    0.565254    0.569572    0.569572   -0.000000    0.000000   -0.000000
   18.006498    0.566322    0.570631    0.570631   -0.000000    0.000000   -0.000000
   18.026527    0.567386    0.571685    0.571685   -0.000000    0.000000   -0.000000
   18.046557    0.568445    0.572735    0.572735   -0.000000    0.000000   -0.000000
   18.066586    0.569500    0.573781    0.573781   -0.000000    0.000000   -0.000000
   18.086616    0.570551    0.574823    0.574823   -0.000000    0.000000   -0.000000
   18.106645    0.571598    0.575860    0.575860   -0.000000    0.000000   -0.000000
   18.126675    0.572640    0.576894    0.576894   -0.000000    0.000000   -0.000000
   18.146704    0.573679    0.577923    0.577923   -0.000000    0.000000   -0.000000
   18.166734    0.574713    0.578948    0.578948   -0.000000    0.000000   -0.000000
   18.186763    0.575743    0.579969    0.579969   -0.000000    0.000000   -0.000000
   18.206793    0.576769    0.580986    0.580986   -0.000000    0.000000   -0.000000
   18.226822    0.577791    0.581999    0.581999   -0.000000    0.000000   -0.000000
   18.246851    0.578809    0.583008    0.583008   -0.000000    0.000000   -0.000000
   18.266881    0.579823    0.584013    0.584013   -0.000000    0.000000   -0.000000
   18.286910    0.580833    0.585014    0.585014   -0.000000    0.000000   -0.000000
   18.306940    0.581839    0.586012    0.586012   -0.000000    0.000000   -0.000000
   18.326969    0.582841    0.587005    0.587005   -0.000000    0.000000   -0.000000
   18.346999    0.583839    0.587994    0.587994   -0.000000    0.000000   -0.000000
   18.367028    0.584834    0.588980    0.588980   -0.000000    0.000000   -0.000000
   18.387058    0.585824    0.589962    0.589962   -0.000000    0.000000   -0.000000
   18.407087    0.586811    0.590940    0.590940   -0.000000    0.000000   -0.000000
   18.427117    0.587794    0.591914    0.591914   -0.000000    0.000000   -0.000000
   18.447146    0.588773    0.592884    0.592884   -0.000000    0.000000   -0.000000
   18.467176    0.589748    0.593851    0.593851   -0.000000    0.000000   -0.000000
   18.487205    0.590720    0.594814    0.594814   -0.000000    0.000000   -0.000000
   18.507235    0.591688    0.595773    0.595773   -0.000000    0.000000   -0.000000
   18.527264    0.592652    0.596728    0.596728   -0.000000    0.000000   -0.000000
   18.547294    0.593612    0.597680    0.597680   -0.000000    0.000000   -0.000000
   18.567323    0.594569    0.598629    0.598629   -0.000000    0.000000   -0.000000
   18.587353    0.595523    0.599573    0.599573   -0.000000    0.000000   -0.000000
   18.607382    0.596472    0.600515    0.600515   -0.000000    0.000000   -0.000000
   18.627412    0.597418    0.601452    0.601452   -0.000000    0.000000   -0.000000
   18.647441    0.598361    0.602386    0.602386   -0.000000    0.000000   -0.000000
   18.667470    0.599300    0.603317    0.603317   -0.000000    0.000000   -0.000000
   18.687500    0.600235    0.604244    0.604244   -0.000000    0.000000   -0.000000
   18.707529    0.601167    0.605167    0.605167   -0.000000    0.000000   -0.000000
   18.727559    0.602095    0.606087    0.606087   -0.000000    0.000000   -0.000000
   18.747588    0.603020    0.607004    0.607004   -0.000000    0.000000   -0.000000
   18.767618    0.603942    0.607917    0.607917   -0.000000    0.000000   -0.000000
   18.787647    0.604860    0.608827    0.608827   -0.000000    0.000000   -0.000000
   18.807677    0.605775    0.609733    0.609733   -0.000000    0.000000   -0.000000
   18.827706    0.606686    0.610636    0.610636   -0.000000    0.000000   -0.000000
   18.847736    0.607594    0.611536    0.611536   -0.000000    0.000000   -0.000000
   18.867765    0.608498    0.612432    0.612432   -0.000000    0.000000   -0.000000
   18.887795    0.609400    0.613326    0.613326   -0.000000    0.000000   -0.000000
   18.907824    0.610298    0.614215    0.614215   -0.000000    0.000000   -0.000000
   18.927854    0.611192    0.615102    0.615102   -0.000000    0.000000   -0.000000
   18.947883    0.612084    0.615985    0.615985   -0.000000    0.000000   -0.000000
   18.967913    0.612972    0.616865    0.616865   -0.000000    0.000000   -0.000000
   18.987942    0.613857    0.617742    0.617742   -0.000000    0.000000   -0.000000
   19.007972    0.614738    0.618616    0.618616   -0.000000    0.000000   -0.000000
   19.028001    0.615617    0.619486    0.619486   -0.000000    0.000000   -0.000000
   19.048030    0.616492    0.620353    0.620353   -0.000000    0.000000   -0.000000
   19.068060    0.617364    0.621218    0.621218   -0.000000    0.000000   -0.000000
   19.088089    0.618233    0.622079    0.622079   -0.000000    0.000000   -0.000000
   19.108119    0.619099    0.622936    0.622936   -0.000000    0.000000   -0.000000
   19.128148    0.619962    0.623791    0.623791   -0.000000    0.000000   -0.000000
   19.148178    0.620821    0.624643    0.624643   -0.000000    0.000000   -0.000000
   19.168207    0.621678    0.625492    0.625492   -0.000000    0.000000   -0.000000
   19.188237    0.622531    0.626337    0.626337   -0.000000    0.000000   -0.000000
   19.208266    0.623382    0.627180    0.627180   -0.000000    0.000000   -0.000000
   19.228296    0.624229    0.628019    0.628019   -0.000000    0.000000   -0.000000
   19.248325    0.625073    0.628856    0.628856   -0.000000    0.000000   -0.000000
   19.268355    0.625915    0.629690    0.629690   -0.000000    0.000000   -0.000000
   19.288384    0.626753    0.630520    0.630520   -0.000000    0.000000   -0.000000
   19.308414    0.627588    0.631348    0.631348   -0.000000    0.000000   -0.000000
   19.328443    0.628421    0.632173    0.632173   -0.000000    0.000000   -0.000000
   19.348473    0.629250    0.632995    0.632995   -0.000000    0.000000   -0.000000
   19.368502    0.630077    0.633814    0.633814   -0.000000    0.000000   -0.000000
   19.388532    0.630901    0.634630    0.634630   -0.000000    0.000000   -0.000000
   19.408561    0.631721    0.635443    0.635443   -0.000000    0.000000   -0.000000
   19.428590    0.632539    0.636253    0.636253   -0.000000    0.000000   -0.000000
   19.448620    0.633354    0.637061    0.637061   -0.000000    0.000000   -0.000000
   19.468649    0.634166    0.637865    0.637865   -0.000000    0.000000   -0.000000
   19.488679    0.634976    0.638667    0.638667   -0.000000    0.000000   -0.000000
   19.508708    0.635782    0.639466    0.639466   -0.000000    0.000000   -0.000000
   19.528738    0.636586    0.640262    0.640262   -0.000000    0.000000   -0.000000
   19.548767    0.637387    0.641056    0.641056   -0.000000    0.000000   -0.000000
   19.568797    0.638185    0.641846    0.641846   -0.000000    0.000000   -0.000000
   19.588826    0.638980    0.642634    0.642634   -0.000000    0.000000   -0.000000
   19.608856    0.639773    0.643420    0.643420   -0.000000    0.000000   -0.000000
   19.628885    0.640563    0.644202    0.644202   -0.000000    0.000000   -0.000000
   19.648915    0.641350    0.644982    0.644982   -0.000000    0.000000   -0.000000
   19.668944    0.642134    0.645759    0.645759   -0.000000    0.000000   -0.000000
   19.688974    0.642916    0.646533    0.646533   -0.000000    0.000000   -0.000000
   19.709003    0.643695    0.647305    0.647305   -0.000000    0.000000   -0.000000
   19.729033    0.644471    0.648074    0.648074   -0.000000    0.000000   -0.000000
   19.749062    0.645245    0.648841    0.648841   -0.000000    0.000000   -0.000000
   19.769092    0.646016    0.649605    0.649605   -0.000000    0.000000   -0.000000
   19.789121    0.646784    0.650366    0.650366   -0.000000    0.000000   -0.000000
   19.809151    0.647550    0.651125    0.651125   -0.000000    0.000000   -0.000000
   19.829180    0.648314    0.651881    0.651881   -0.000000    0.000000   -0.000000
   19.849209    0.649074    0.652634    0.652634   -0.000000    0.000000   -0.000000
   19.869239    0.649832    0.653385    0.653385   -0.000000    0.000000   -0.000000
   19.889268    0.650588    0.654134    0.654134   -0.000000    0.000000   -0.000000
   19.909298    0.651341    0.654879    0.654879   -0.000000    0.000000   -0.000000
   19.929327    0.652091    0.655623    0.655623   -0.000000    0.000000   -0.000000
   19.949357    0.652839    0.656364    0.656364   -0.000000    0.000000   -0.000000
   19.969386    0.653584    0.657102    0.657102   -0.000000    0.000000   -0.000000
   19.989416    0.654327    0.657838    0.657838   -0.000000    0.000000   -0.000000
   20.009445    0.655067    0.658571    0.658571   -0.000000    0.000000   -0.000000
 
 The outermost node in the dielectric function lies at epsilon=  12.1


--------------------------------------------------------------------------------------------------------


    OPTICS:  cpu time     50.4379: real time     51.1289
    4ORBIT:  cpu time      0.0000: real time      0.0000
 BZINTS: Fermi energy:    2.314579;  256.000000 electrons
         Band energy:-0.722825E+03;  BLOECHL correction:    0.000000

 total amount of memory used by VASP MPI-rank0   362649. kBytes
=======================================================================

   base      :      30000. kBytes
   nonl-proj :     132969. kBytes
   fftplans  :       7212. kBytes
   grid      :      18251. kBytes
   one-center:        519. kBytes
   wavefun   :     173698. kBytes
 
  
  
 General timing and accounting informations for this job:
 ========================================================
  
                  Total CPU time used (sec):    15472.993
                            User time (sec):    15143.211
                          System time (sec):      329.782
                         Elapsed time (sec):    15688.801
  
                   Maximum memory used (kb):     1861044.
                   Average memory used (kb):          N/A
  
                          Minor page faults:      2294783
                          Major page faults:          222
                 Voluntary context switches:        25087
