<?xml version="1.0" encoding="ISO-8859-1"?>
<modeling>
 <generator>
  <i name="program" type="string">vasp </i>
  <i name="version" type="string">6.4.3  </i>
  <i name="subversion" type="string">19Mar24 (build Aug 29 2024 15:27:20) complex                          parallel </i>
  <i name="platform" type="string">LinuxIFC </i>
  <i name="date" type="string">2025 03 24 </i>
  <i name="time" type="string">12:04:17 </i>
 </generator>
 <incar>
  <i type="string" name="SYSTEM">GaAs</i>
  <i type="string" name="PREC">Normal</i>
  <i type="int" name="IBRION">     2</i>
  <i type="int" name="NFREE">     2</i>
  <i type="int" name="NSW">   100</i>
  <i type="int" name="ISIF">     2</i>
  <i name="ENCUT">    400.00000000</i>
  <i name="POTIM">      0.10000000</i>
  <i type="int" name="ISMEAR">    -5</i>
  <i name="SIGMA">      0.10000000</i>
  <i type="logical" name="LOPTICS"> T  </i>
  <i type="logical" name="LEPSILON"> T  </i>
 </incar>
 <primitive_cell>
  <structure name="primitive_cell" >
   <crystal>
    <varray name="basis" >
     <v>       2.89178591       0.00000000       2.87857331 </v>
     <v>       2.89178591       0.00000000      -2.87857331 </v>
     <v>      -2.89178591       2.87857331       0.00000000 </v>
    </varray>
    <i name="volume">     47.92374212 </i>
    <varray name="rec_basis" >
     <v>       0.17290353       0.17369716       0.17369716 </v>
     <v>       0.17290353       0.17369716      -0.17369716 </v>
     <v>       0.00000000       0.34739431       0.00000000 </v>
    </varray>
   </crystal>
   <varray name="positions" >
    <v>       0.00000000       0.00000000       0.00000000 </v>
    <v>       0.75000000       0.25000000       0.50000000 </v>
   </varray>
  </structure>
  <varray name="primitive_index" >
   <v type="int" >        1 </v>
   <v type="int" >       33 </v>
  </varray>
 </primitive_cell>
 <kpoints>
  <generation param="Gamma">
   <v type="int" name="divisions">       5        5        5 </v>
   <v name="usershift">      0.00000000       0.00000000       0.00000000 </v>
   <v name="genvec1">      0.20000000       0.00000000       0.00000000 </v>
   <v name="genvec2">      0.00000000       0.20000000       0.00000000 </v>
   <v name="genvec3">      0.00000000       0.00000000       0.20000000 </v>
   <v name="shift">      0.00000000       0.00000000       0.00000000 </v>
  </generation>
  <varray name="kpointlist" >
   <v>       0.00000000       0.00000000       0.00000000 </v>
   <v>       0.20000000       0.00000000       0.00000000 </v>
   <v>       0.40000000       0.00000000       0.00000000 </v>
   <v>       0.00000000       0.20000000       0.00000000 </v>
   <v>       0.20000000       0.20000000       0.00000000 </v>
   <v>       0.40000000       0.20000000       0.00000000 </v>
   <v>       0.00000000       0.40000000       0.00000000 </v>
   <v>       0.20000000       0.40000000       0.00000000 </v>
   <v>       0.40000000       0.40000000       0.00000000 </v>
   <v>       0.00000000       0.20000000       0.20000000 </v>
   <v>       0.20000000       0.20000000       0.20000000 </v>
   <v>       0.40000000       0.20000000       0.20000000 </v>
   <v>       0.00000000       0.40000000       0.20000000 </v>
   <v>       0.20000000       0.40000000       0.20000000 </v>
   <v>       0.40000000       0.40000000       0.20000000 </v>
   <v>       0.00000000       0.40000000       0.40000000 </v>
   <v>       0.20000000       0.40000000       0.40000000 </v>
   <v>       0.40000000       0.40000000       0.40000000 </v>
  </varray>
  <varray name="weights" >
   <v>       0.00800000 </v>
   <v>       0.01600000 </v>
   <v>       0.01600000 </v>
   <v>       0.03200000 </v>
   <v>       0.06400000 </v>
   <v>       0.06400000 </v>
   <v>       0.03200000 </v>
   <v>       0.06400000 </v>
   <v>       0.06400000 </v>
   <v>       0.03200000 </v>
   <v>       0.06400000 </v>
   <v>       0.06400000 </v>
   <v>       0.06400000 </v>
   <v>       0.12800000 </v>
   <v>       0.12800000 </v>
   <v>       0.03200000 </v>
   <v>       0.06400000 </v>
   <v>       0.06400000 </v>
  </varray>
  <varray name="tetrahedronlist"  type="int" >
   <v type="int" >        4       11       12       14       15 </v>
   <v type="int" >        4       11       14       14       15 </v>
   <v type="int" >        8       14       14       15       17 </v>
   <v type="int" >        4       12       14       15       15 </v>
   <v type="int" >        8       14       15       15       18 </v>
   <v type="int" >        4       14       15       17       18 </v>
   <v type="int" >        2       12       12       15       15 </v>
   <v type="int" >        4       12       15       15       15 </v>
   <v type="int" >       12       15       15       15       18 </v>
   <v type="int" >       10       15       15       18       18 </v>
   <v type="int" >        4       10       11       13       14 </v>
   <v type="int" >        4       11       13       14       14 </v>
   <v type="int" >        8       13       14       14       17 </v>
   <v type="int" >        4       10       13       13       14 </v>
   <v type="int" >        8       13       13       14       16 </v>
   <v type="int" >        4       13       14       16       17 </v>
   <v type="int" >        4       14       15       15       17 </v>
   <v type="int" >        4       14       15       17       17 </v>
   <v type="int" >        4       15       15       17       18 </v>
   <v type="int" >        4       15       17       18       18 </v>
   <v type="int" >        4       15       17       17       18 </v>
   <v type="int" >        8       15       18       18       18 </v>
   <v type="int" >        4       14       14       15       18 </v>
   <v type="int" >        4       14       15       18       18 </v>
   <v type="int" >        4       14       14       17       18 </v>
   <v type="int" >        4       14       17       17       18 </v>
   <v type="int" >        4       14       17       18       18 </v>
   <v type="int" >        4       13       13       14       17 </v>
   <v type="int" >        4       13       14       17       17 </v>
   <v type="int" >        4       13       13       16       17 </v>
   <v type="int" >        4       13       16       16       17 </v>
   <v type="int" >        4       13       16       17       17 </v>
   <v type="int" >        4       13       14       14       16 </v>
   <v type="int" >        4       13       14       16       16 </v>
   <v type="int" >        4       14       14       16       17 </v>
   <v type="int" >        4       14       16       17       17 </v>
   <v type="int" >        4       14       16       16       17 </v>
   <v type="int" >        4       12       14       15       17 </v>
   <v type="int" >        4       11       12       14       17 </v>
   <v type="int" >        4       12       15       17       18 </v>
   <v type="int" >        4       12       15       15       18 </v>
   <v type="int" >        4       12       12       15       18 </v>
   <v type="int" >        4       12       15       18       18 </v>
   <v type="int" >        4       11       14       15       18 </v>
   <v type="int" >        4       11       12       15       18 </v>
   <v type="int" >        4       11       14       17       18 </v>
   <v type="int" >        4       10       13       14       17 </v>
   <v type="int" >        4       10       11       14       17 </v>
   <v type="int" >        4       10       13       16       17 </v>
   <v type="int" >        4       11       13       14       16 </v>
   <v type="int" >        4       10       11       13       16 </v>
   <v type="int" >        4       11       14       16       17 </v>
   <v type="int" >        4        6       11       12       14 </v>
   <v type="int" >        4        5        6       11       14 </v>
   <v type="int" >        4        5        6        8       14 </v>
   <v type="int" >        4        6       12       14       15 </v>
   <v type="int" >        4        6        9       14       15 </v>
   <v type="int" >        4        6        8        9       14 </v>
   <v type="int" >        4        6       12       12       15 </v>
   <v type="int" >        4        6        6       12       15 </v>
   <v type="int" >        4        6        6        9       15 </v>
   <v type="int" >        4        6       12       15       15 </v>
   <v type="int" >        4        6        9       15       15 </v>
   <v type="int" >        4        6        9        9       15 </v>
   <v type="int" >        4        5       11       12       15 </v>
   <v type="int" >        4        5        6       12       15 </v>
   <v type="int" >        4        5        6        9       15 </v>
   <v type="int" >        4        5       11       14       15 </v>
   <v type="int" >        4        5        8       14       15 </v>
   <v type="int" >        4        5        8        9       15 </v>
   <v type="int" >        4        4       10       11       14 </v>
   <v type="int" >        4        4        5       11       14 </v>
   <v type="int" >        4        4        5        8       14 </v>
   <v type="int" >        4        4       10       13       14 </v>
   <v type="int" >        4        4        7       13       14 </v>
   <v type="int" >        4        4        7        8       14 </v>
   <v type="int" >        4        5       10       11       13 </v>
   <v type="int" >        4        4        5       10       13 </v>
   <v type="int" >        4        4        5        7       13 </v>
   <v type="int" >        4        5       11       13       14 </v>
   <v type="int" >        4        5        8       13       14 </v>
   <v type="int" >        4        5        7        8       13 </v>
   <v type="int" >        4        5        6        8       12 </v>
   <v type="int" >        4        5        8       11       12 </v>
   <v type="int" >        4        8       11       12       14 </v>
   <v type="int" >        4        6        8        9       12 </v>
   <v type="int" >        4        8        9       12       15 </v>
   <v type="int" >        4        8       12       14       15 </v>
   <v type="int" >        4        6        6        9       12 </v>
   <v type="int" >        4        6        9       12       12 </v>
   <v type="int" >        4        9       12       12       15 </v>
   <v type="int" >        4        6        9        9       12 </v>
   <v type="int" >        4        9        9       12       15 </v>
   <v type="int" >        4        9       12       15       15 </v>
   <v type="int" >        4        5        6        9       11 </v>
   <v type="int" >        4        6        9       11       12 </v>
   <v type="int" >        4        9       11       12       15 </v>
   <v type="int" >        4        5        8        9       11 </v>
   <v type="int" >        4        8        9       11       14 </v>
   <v type="int" >        4        9       11       14       15 </v>
   <v type="int" >        4        4        5        8       10 </v>
   <v type="int" >        4        5        8       10       11 </v>
   <v type="int" >        4        8       10       11       14 </v>
   <v type="int" >        4        4        7        8       10 </v>
   <v type="int" >        4        7        8       10       13 </v>
   <v type="int" >        4        8       10       13       14 </v>
   <v type="int" >        4        4        5        7       11 </v>
   <v type="int" >        4        4        7       10       11 </v>
   <v type="int" >        4        7       10       11       13 </v>
   <v type="int" >        4        5        7        8       11 </v>
   <v type="int" >        4        7        8       11       14 </v>
   <v type="int" >        4        7       11       13       14 </v>
   <v type="int" >        4       17       17       18       18 </v>
   <v type="int" >        4       17       17       17       18 </v>
   <v type="int" >        4       17       18       18       18 </v>
   <v type="int" >        6       18       18       18       18 </v>
   <v type="int" >        4       16       16       17       17 </v>
   <v type="int" >        4       16       17       17       17 </v>
   <v type="int" >        4       16       16       16       17 </v>
   <v type="int" >        4        9       14       14       15 </v>
   <v type="int" >        4        8        9       14       14 </v>
   <v type="int" >        4        8        8        9       14 </v>
   <v type="int" >        4        9       14       15       15 </v>
   <v type="int" >        4        9        9       14       15 </v>
   <v type="int" >        4        8        9        9       14 </v>
   <v type="int" >        8        9       15       15       15 </v>
   <v type="int" >        8        9        9       15       15 </v>
   <v type="int" >        8        9        9        9       15 </v>
   <v type="int" >        4        8       14       15       15 </v>
   <v type="int" >        4        8        9       15       15 </v>
   <v type="int" >        4        8        9        9       15 </v>
   <v type="int" >        4        8       14       14       15 </v>
   <v type="int" >        4        8        8       14       15 </v>
   <v type="int" >        4        8        8        9       15 </v>
   <v type="int" >        4        7       13       14       14 </v>
   <v type="int" >        4        7        8       14       14 </v>
   <v type="int" >        4        7        8        8       14 </v>
   <v type="int" >        4        7       13       13       14 </v>
   <v type="int" >        4        7        7       13       14 </v>
   <v type="int" >        4        7        7        8       14 </v>
   <v type="int" >        4        8       13       13       14 </v>
   <v type="int" >        4        7        8       13       13 </v>
   <v type="int" >        4        7        7        8       13 </v>
   <v type="int" >        4        8       13       14       14 </v>
   <v type="int" >        4        8        8       13       14 </v>
   <v type="int" >        4        7        8        8       13 </v>
   <v type="int" >        4        5        6       11       12 </v>
   <v type="int" >        4        5        5        6       11 </v>
   <v type="int" >        4        2        5        5        6 </v>
   <v type="int" >        4        5        6        6       12 </v>
   <v type="int" >        4        3        5        6        6 </v>
   <v type="int" >        4        2        3        5        6 </v>
   <v type="int" >        2        6        6       12       12 </v>
   <v type="int" >        4        6        6        6       12 </v>
   <v type="int" >        4        3        6        6        6 </v>
   <v type="int" >        2        3        3        6        6 </v>
   <v type="int" >        4        4        5       10       11 </v>
   <v type="int" >        4        4        5        5       11 </v>
   <v type="int" >        4        2        4        5        5 </v>
   <v type="int" >        4        4        4        5       10 </v>
   <v type="int" >        4        1        4        4        5 </v>
   <v type="int" >        4        1        2        4        5 </v>
   <v type="int" >        4        2        5        6       12 </v>
   <v type="int" >        4        2        5       11       12 </v>
   <v type="int" >        4        2        3        6       12 </v>
   <v type="int" >        4        3        6        6       12 </v>
   <v type="int" >        4        3        6       12       12 </v>
   <v type="int" >        4        3        3        6       12 </v>
   <v type="int" >        4        3        5        6       11 </v>
   <v type="int" >        4        3        6       11       12 </v>
   <v type="int" >        4        2        3        5       11 </v>
   <v type="int" >        4        2        4        5       10 </v>
   <v type="int" >        4        2        5       10       11 </v>
   <v type="int" >        4        1        2        4       10 </v>
   <v type="int" >        4        1        4        5       11 </v>
   <v type="int" >        4        1        4       10       11 </v>
   <v type="int" >        4        1        2        5       11 </v>
  </varray>
  <i name="volumeweight">      0.00133333 </i>
 </kpoints>
 <parameters>
  <separator name="general" >
   <i type="string" name="SYSTEM">GaAs</i>
   <i type="logical" name="LCOMPAT"> F  </i>
  </separator>
  <separator name="electronic" >
   <i type="string" name="PREC">normal</i>
   <i name="ENMAX">    400.00000000</i>
   <i name="ENAUG">    462.75800000</i>
   <i name="EDIFF">      0.00000100</i>
   <i type="int" name="IALGO">    38</i>
   <i type="int" name="IWAVPR">    11</i>
   <i type="int" name="NBANDS">   168</i>
   <i type="int" name="NBANDSLOW">    -1</i>
   <i type="int" name="NBANDSHIGH">    -1</i>
   <i name="NELECT">    256.00000000</i>
   <i type="int" name="TURBO">     0</i>
   <i type="int" name="IRESTART">     0</i>
   <i type="int" name="NREBOOT">     0</i>
   <i type="int" name="NMIN">     0</i>
   <i name="EREF">      0.00000000</i>
   <separator name="electronic smearing" >
    <i type="int" name="ISMEAR">    -5</i>
    <i name="SIGMA">      0.10000000</i>
    <i name="KSPACING">      0.50000000</i>
    <i type="logical" name="KGAMMA"> T  </i>
    <i type="logical" name="KBLOWUP"> T  </i>
   </separator>
   <separator name="electronic projectors" >
    <i type="logical" name="LREAL"> F  </i>
    <v name="ROPT">      0.00000000      0.00000000</v>
    <i type="int" name="LMAXPAW">  -100</i>
    <i type="int" name="LMAXMIX">     2</i>
    <i type="logical" name="NLSPLINE"> F  </i>
   </separator>
   <separator name="electronic startup" >
    <i type="int" name="ISTART">     0</i>
    <i type="int" name="ICHARG">     2</i>
    <i type="int" name="INIWAV">     1</i>
   </separator>
   <separator name="electronic spin" >
    <i type="int" name="ISPIN">     1</i>
    <i type="logical" name="LNONCOLLINEAR"> F  </i>
    <v name="MAGMOM">      1.00000000      1.00000000      1.00000000      1.00000000      1.00000000      1.00000000      1.00000000      1.00000000      1.00000000      1.00000000      1.00000000      1.00000000      1.00000000      1.00000000      1.00000000      1.00000000      1.00000000      1.00000000      1.00000000      1.00000000
      1.00000000      1.00000000      1.00000000      1.00000000      1.00000000      1.00000000      1.00000000      1.00000000      1.00000000      1.00000000      1.00000000      1.00000000      1.00000000      1.00000000      1.00000000      1.00000000      1.00000000      1.00000000      1.00000000      1.00000000
      1.00000000      1.00000000      1.00000000      1.00000000      1.00000000      1.00000000      1.00000000      1.00000000      1.00000000      1.00000000      1.00000000      1.00000000      1.00000000      1.00000000      1.00000000      1.00000000      1.00000000      1.00000000      1.00000000      1.00000000
      1.00000000      1.00000000      1.00000000      1.00000000</v>
    <i name="NUPDOWN">     -1.00000000</i>
    <i type="logical" name="LSORBIT"> F  </i>
    <v name="SAXIS">      0.00000000      0.00000000      1.00000000</v>
    <i type="logical" name="LSPIRAL"> F  </i>
    <v name="QSPIRAL">      0.00000000      0.00000000      0.00000000</v>
    <i type="logical" name="LZEROZ"> F  </i>
   </separator>
   <separator name="electronic exchange-correlation" >
    <i type="logical" name="LASPH"> F  </i>
   </separator>
   <separator name="electronic convergence" >
    <i type="int" name="NELM">    60</i>
    <i type="int" name="NELMDL">    -5</i>
    <i type="int" name="NELMIN">     2</i>
    <i name="ENINI">    400.00000000</i>
    <separator name="electronic convergence detail" >
     <i type="logical" name="LDIAG"> T  </i>
     <i type="logical" name="LSUBROT"> F  </i>
     <i name="WEIMIN">      0.00100000</i>
     <i name="EBREAK">      0.00000000</i>
     <i name="DEPER">      0.30000000</i>
     <i type="int" name="NRMM">     4</i>
     <i name="TIME">      0.40000000</i>
    </separator>
   </separator>
   <separator name="electronic mixer" >
    <i name="AMIX">      0.40000000</i>
    <i name="BMIX">      1.00000000</i>
    <i name="AMIN">      0.10000000</i>
    <i name="AMIX_MAG">      1.60000000</i>
    <i name="BMIX_MAG">      1.00000000</i>
    <separator name="electronic mixer details" >
     <i type="int" name="IMIX">     4</i>
     <i type="logical" name="MIXFIRST"> F  </i>
     <i type="int" name="MAXMIX">   -45</i>
     <i name="WC">    100.00000000</i>
     <i type="int" name="INIMIX">     1</i>
     <i type="int" name="MIXPRE">     1</i>
     <i type="int" name="MREMOVE">     5</i>
    </separator>
   </separator>
   <separator name="electronic dipolcorrection" >
    <i type="logical" name="LDIPOL"> F  </i>
    <i type="logical" name="LMONO"> F  </i>
    <i type="int" name="IDIPOL">     0</i>
    <i name="EPSILON">      1.00000000</i>
    <v name="DIPOL">   -100.00000000   -100.00000000   -100.00000000</v>
    <i name="EFIELD">      0.00000000</i>
    <i type="logical" name="LVACPOTAV"> F  </i>
   </separator>
  </separator>
  <separator name="grids" >
   <i type="int" name="NGX">    60</i>
   <i type="int" name="NGY">    56</i>
   <i type="int" name="NGZ">    56</i>
   <i type="int" name="NGXF">   120</i>
   <i type="int" name="NGYF">   112</i>
   <i type="int" name="NGZF">   112</i>
   <i type="logical" name="ADDGRID"> F  </i>
  </separator>
  <separator name="ionic" >
   <i type="int" name="NSW">   100</i>
   <i type="int" name="IBRION">     2</i>
   <i type="int" name="MDALGO">     0</i>
   <i type="int" name="ISIF">     2</i>
   <i name="PSTRESS">      0.00000000</i>
   <i name="EDIFFG">      0.00100000</i>
   <i type="int" name="NFREE">     2</i>
   <i name="POTIM">      0.10000000</i>
   <i name="SMASS">     -3.00000000</i>
   <i name="SCALEE">      1.00000000</i>
  </separator>
  <separator name="ionic md" >
   <i name="TEBEG">      0.00010000</i>
   <i name="TEEND">      0.00010000</i>
   <i type="int" name="NBLOCK">     1</i>
   <i type="int" name="KBLOCK">   100</i>
   <i type="int" name="NPACO">   256</i>
   <i name="APACO">     10.00000000</i>
  </separator>
  <separator name="symmetry" >
   <i type="int" name="ISYM">     2</i>
   <i name="SYMPREC">      0.00001000</i>
  </separator>
  <separator name="dos" >
   <i type="int" name="LORBIT">     0</i>
   <v name="RWIGS">     -1.00000000     -1.00000000</v>
   <i type="int" name="NEDOS">   301</i>
   <i name="EMIN">     10.00000000</i>
   <i name="EMAX">    -10.00000000</i>
   <i name="EFERMI">      0.00000000</i>
  </separator>
  <separator name="writing" >
   <i type="int" name="NWRITE">     2</i>
   <i type="logical" name="LWAVE"> T  </i>
   <i type="logical" name="LDOWNSAMPLE"> F  </i>
   <i type="logical" name="LCHARG"> T  </i>
   <i type="logical" name="LPARD"> F  </i>
   <i type="logical" name="LVTOT"> F  </i>
   <i type="logical" name="LVHAR"> F  </i>
   <i type="logical" name="LELF"> F  </i>
   <i type="logical" name="LOPTICS"> T  </i>
   <v name="STM">      0.00000000      0.00000000      0.00000000      0.00000000      0.00000000      0.00000000      0.00000000</v>
  </separator>
  <separator name="performance" >
   <i type="int" name="NPAR">     8</i>
   <i type="int" name="NSIM">     4</i>
   <i type="int" name="NBLK">    -1</i>
   <i type="logical" name="LPLANE"> T  </i>
   <i type="logical" name="LSCALAPACK"> T  </i>
   <i type="logical" name="LSCAAWARE"> F  </i>
   <i type="logical" name="LSCALU"> F  </i>
   <i type="logical" name="LASYNC"> F  </i>
   <i type="logical" name="LORBITALREAL"> F  </i>
  </separator>
  <separator name="miscellaneous" >
   <i type="int" name="IDIOT">     3</i>
   <i type="int" name="PHON_NSTRUCT">    -1</i>
   <i type="logical" name="LMUSIC"> F  </i>
   <v name="POMASS">     74.92200000     69.72300000</v>
   <v name="DARWINR">      0.00000000      0.00000000</v>
   <v name="DARWINV">      1.00000000      1.00000000</v>
   <i type="logical" name="LCORR"> T  </i>
  </separator>
  <i type="logical" name="GGA_COMPAT"> T  </i>
  <i type="logical" name="LBERRY"> F  </i>
  <i type="int" name="ICORELEVEL">     0</i>
  <i type="logical" name="LDAU"> F  </i>
  <i type="int" name="I_CONSTRAINED_M">     0</i>
  <separator name="electronic exchange-correlation" >
   <i type="string" name="GGA    ">PE</i>
   <i type="string" name="XC_C">1</i>
   <i type="int" name="VOSKOWN">     0</i>
   <i type="logical" name="LHFCALC"> F  </i>
   <i type="string" name="PRECFOCK"></i>
   <i type="logical" name="LSYMGRAD"> F  </i>
   <i type="logical" name="LHFONE"> F  </i>
   <i type="logical" name="LRHFCALC"> F  </i>
   <i type="logical" name="LTHOMAS"> F  </i>
   <i type="logical" name="LMODELHF"> F  </i>
   <i type="logical" name="LFOCKACE"> F  </i>
   <i name="ENCUT4O">     -1.00000000</i>
   <i type="int" name="EXXOEP">     0</i>
   <i type="int" name="FOURORBIT">     0</i>
   <i name="AEXX">      0.00000000</i>
   <i name="HFALPHA">      0.00000000</i>
   <i name="MCALPHA">      0.00000000</i>
   <i name="ALDAX">      1.00000000</i>
   <i name="AGGAX">      1.00000000</i>
   <i name="AMGGAX">      1.00000000</i>
   <i name="ALDAC">      1.00000000</i>
   <i name="AGGAC">      1.00000000</i>
   <i name="AMGGAC">      1.00000000</i>
   <i type="int" name="NKREDX">     1</i>
   <i type="int" name="NKREDY">     1</i>
   <i type="int" name="NKREDZ">     1</i>
   <i type="logical" name="SHIFTRED"> F  </i>
   <i type="logical" name="ODDONLY"> F  </i>
   <i type="logical" name="EVENONLY"> F  </i>
   <i type="int" name="LMAXFOCK">     0</i>
   <i type="int" name="NMAXFOCKAE">     0</i>
   <i type="logical" name="LFOCKAEDFT"> F  </i>
   <i name="HFSCREEN">      0.00000000</i>
   <i name="HFSCREENC">      0.00000000</i>
   <i type="int" name="NBANDSGWLOW">     0</i>
  </separator>
  <separator name="vdW DFT" >
   <i type="logical" name="LUSE_VDW"> F  </i>
   <i type="int" name="IVDW_NL">    -1</i>
   <i type="logical" name="LSPIN_VDW"> F  </i>
   <i name="ZAB_VDW">     -0.84910000</i>
   <i name="GAMMA_VDW">      1.39626340</i>
   <i name="ALPHA_VDW">      0.00000000</i>
   <i name="PARAM1">      0.12340000</i>
   <i name="PARAM2">      1.00000000</i>
   <i name="BPARAM">      6.30000000</i>
   <i name="CPARAM">      0.00930000</i>
  </separator>
  <separator name="model GW" >
   <i type="int" name="MODEL_GW">     0</i>
   <i name="MODEL_EPS0">     14.37712264</i>
   <i name="MODEL_ALPHA">      1.00000000</i>
  </separator>
  <separator name="linear response parameters" >
   <i type="logical" name="LEPSILON"> T  </i>
   <i type="logical" name="LRPA"> F  </i>
   <i type="logical" name="LNABLA"> F  </i>
   <i type="logical" name="LVEL"> F  </i>
   <i name="CSHIFT">      0.10000000</i>
   <i name="OMEGAMAX">     -1.00000000</i>
   <i name="DEG_THRESHOLD">      0.00200000</i>
   <i name="RTIME">     -0.10000000</i>
   <i name="WPLASMAI">      0.00000000</i>
   <v name="DFIELD">      0.00000000      0.00000000      0.00000000</v>
   <v name="WPLASMA">      0.00000000      0.00000000      0.00000000      0.00000000      0.00000000      0.00000000      0.00000000      0.00000000      0.00000000</v>
  </separator>
  <separator name="orbital magnetization" >
   <i type="logical" name="NUCIND"> F  </i>
   <v name="MAGPOS">      0.00000000      0.00000000      0.00000000</v>
   <i type="logical" name="LNICSALL"> T  </i>
   <i type="logical" name="ORBITALMAG"> F  </i>
   <i type="logical" name="LMAGBLOCH"> F  </i>
   <i type="logical" name="LCHIMAG"> F  </i>
   <i type="logical" name="LGAUGE"> T  </i>
   <i type="int" name="MAGATOM">     0</i>
   <v name="MAGDIPOL">      0.00000000      0.00000000      0.00000000</v>
   <v name="AVECCONST">      0.00000000      0.00000000      0.00000000</v>
  </separator>
  <separator name="response functions" >
   <i type="logical" name="LALL_IN_ONE"> F  </i>
   <i type="int" name="IALL_IN_ONE">    -1</i>
   <i type="int" name="NBANDS_WAVE">    -1</i>
   <i type="logical" name="LFINITE_TEMPERATURE"> F  </i>
   <i type="logical" name="LADDER"> F  </i>
   <i type="logical" name="LRPAFORCE"> F  </i>
   <i type="logical" name="LFXC"> F  </i>
   <i type="logical" name="LHARTREE"> T  </i>
   <i type="int" name="IBSE">     0</i>
   <v type="int" name="KPOINT">    -1     0     0     0</v>
   <i type="logical" name="LTCTC"> F  </i>
   <i type="logical" name="LTCTE"> F  </i>
   <i type="logical" name="LTETE"> F  </i>
   <i type="logical" name="LTRIPLET"> F  </i>
   <i type="logical" name="LFXCEPS"> F  </i>
   <i type="logical" name="LFXHEG"> F  </i>
   <i type="int" name="NATURALO">     2</i>
   <i type="logical" name="LHOLEGF"> F  </i>
   <i type="logical" name="L2ORDER"> F  </i>
   <i type="logical" name="LDMP1"> F  </i>
   <i type="logical" name="LMP2LT"> F  </i>
   <i type="logical" name="LSMP2LT"> F  </i>
   <i type="logical" name="LGWLF"> F  </i>
   <i name="ENCUTGW">     -1.60000002</i>
   <i name="ENCUTGWSOFT">     -1.60000002</i>
   <i name="ENCUTLF">     -1.00000000</i>
   <i type="logical" name="ESF_SPLINES"> F  </i>
   <i name="ESF_CONV">      0.01000000</i>
   <i type="int" name="ESF_NINTER">    15</i>
   <i type="int" name="LMAXMP2">    -1</i>
   <i name="SCISSOR">      0.00000000</i>
   <i type="int" name="NOMEGA">     0</i>
   <i type="int" name="NOMEGAR">     0</i>
   <i type="int" name="NBANDSGW">    -1</i>
   <i type="int" name="NBANDSO">    -1</i>
   <i type="int" name="NBANDSV">    -1</i>
   <i type="int" name="NELMGW">     1</i>
   <i type="int" name="NELMHF">     1</i>
   <i type="int" name="DIM">     3</i>
   <i type="int" name="IESPILON">     4</i>
   <i type="int" name="ANTIRES">     0</i>
   <i name="OMEGAMAX">    -30.00000000</i>
   <i name="OMEGAMIN">    -30.00000000</i>
   <i name="OMEGATL">   -200.00000000</i>
   <i type="int" name="OMEGAGRID">     0</i>
   <i name="CSHIFT">     -0.10000000</i>
   <i type="logical" name="LSELFENERGY"> F  </i>
   <i type="logical" name="LSPECTRAL"> F  </i>
   <i type="logical" name="LSPECTRALGW"> F  </i>
   <i type="logical" name="LSINGLES"> F  </i>
   <i type="logical" name="LFERMIGW"> F  </i>
   <i type="logical" name="ODDONLYGW"> F  </i>
   <i type="logical" name="EVENONLYGW"> F  </i>
   <i type="int" name="NKREDLFX">     1</i>
   <i type="int" name="NKREDLFY">     1</i>
   <i type="int" name="NKREDLFZ">     1</i>
   <i type="int" name="MAXMEM">  2800</i>
   <i type="int" name="TELESCOPE">     0</i>
   <i type="int" name="NTAUPAR">    -1</i>
   <i type="int" name="NOMEGAPAR">    -1</i>
   <i name="DAMP_NEWTON">      0.80000001</i>
   <i name="LAMBDA">      1.00000000</i>
  </separator>
  <separator name="External order field" >
   <i name="OFIELD_KAPPA">      0.00000000</i>
   <v name="OFIELD_K">      0.00000000      0.00000000      0.00000000</v>
   <i name="OFIELD_Q6_NEAR">      0.00000000</i>
   <i name="OFIELD_Q6_FAR">      0.00000000</i>
   <i name="OFIELD_A">      0.00000000</i>
  </separator>
  <separator name="optional k-points parameters" >
   <i type="int" name="KPOINTS_OPT_MODE">     1</i>
   <i type="logical" name="LKPOINTS_OPT"> F  </i>
  </separator>
 </parameters>
 <atominfo>
  <atoms>      64 </atoms>
  <types>       2 </types>
  <array name="atoms" >
   <dimension dim="1">ion</dimension>
   <field type="string">element</field>
   <field type="int">atomtype</field>
   <set>
    <rc><c>As</c><c>   1</c></rc>
    <rc><c>As</c><c>   1</c></rc>
    <rc><c>As</c><c>   1</c></rc>
    <rc><c>As</c><c>   1</c></rc>
    <rc><c>As</c><c>   1</c></rc>
    <rc><c>As</c><c>   1</c></rc>
    <rc><c>As</c><c>   1</c></rc>
    <rc><c>As</c><c>   1</c></rc>
    <rc><c>As</c><c>   1</c></rc>
    <rc><c>As</c><c>   1</c></rc>
    <rc><c>As</c><c>   1</c></rc>
    <rc><c>As</c><c>   1</c></rc>
    <rc><c>As</c><c>   1</c></rc>
    <rc><c>As</c><c>   1</c></rc>
    <rc><c>As</c><c>   1</c></rc>
    <rc><c>As</c><c>   1</c></rc>
    <rc><c>As</c><c>   1</c></rc>
    <rc><c>As</c><c>   1</c></rc>
    <rc><c>As</c><c>   1</c></rc>
    <rc><c>As</c><c>   1</c></rc>
    <rc><c>As</c><c>   1</c></rc>
    <rc><c>As</c><c>   1</c></rc>
    <rc><c>As</c><c>   1</c></rc>
    <rc><c>As</c><c>   1</c></rc>
    <rc><c>As</c><c>   1</c></rc>
    <rc><c>As</c><c>   1</c></rc>
    <rc><c>As</c><c>   1</c></rc>
    <rc><c>As</c><c>   1</c></rc>
    <rc><c>As</c><c>   1</c></rc>
    <rc><c>As</c><c>   1</c></rc>
    <rc><c>As</c><c>   1</c></rc>
    <rc><c>As</c><c>   1</c></rc>
    <rc><c>Ga</c><c>   2</c></rc>
    <rc><c>Ga</c><c>   2</c></rc>
    <rc><c>Ga</c><c>   2</c></rc>
    <rc><c>Ga</c><c>   2</c></rc>
    <rc><c>Ga</c><c>   2</c></rc>
    <rc><c>Ga</c><c>   2</c></rc>
    <rc><c>Ga</c><c>   2</c></rc>
    <rc><c>Ga</c><c>   2</c></rc>
    <rc><c>Ga</c><c>   2</c></rc>
    <rc><c>Ga</c><c>   2</c></rc>
    <rc><c>Ga</c><c>   2</c></rc>
    <rc><c>Ga</c><c>   2</c></rc>
    <rc><c>Ga</c><c>   2</c></rc>
    <rc><c>Ga</c><c>   2</c></rc>
    <rc><c>Ga</c><c>   2</c></rc>
    <rc><c>Ga</c><c>   2</c></rc>
    <rc><c>Ga</c><c>   2</c></rc>
    <rc><c>Ga</c><c>   2</c></rc>
    <rc><c>Ga</c><c>   2</c></rc>
    <rc><c>Ga</c><c>   2</c></rc>
    <rc><c>Ga</c><c>   2</c></rc>
    <rc><c>Ga</c><c>   2</c></rc>
    <rc><c>Ga</c><c>   2</c></rc>
    <rc><c>Ga</c><c>   2</c></rc>
    <rc><c>Ga</c><c>   2</c></rc>
    <rc><c>Ga</c><c>   2</c></rc>
    <rc><c>Ga</c><c>   2</c></rc>
    <rc><c>Ga</c><c>   2</c></rc>
    <rc><c>Ga</c><c>   2</c></rc>
    <rc><c>Ga</c><c>   2</c></rc>
    <rc><c>Ga</c><c>   2</c></rc>
    <rc><c>Ga</c><c>   2</c></rc>
   </set>
  </array>
  <array name="atomtypes" >
   <dimension dim="1">type</dimension>
   <field type="int">atomspertype</field>
   <field type="string">element</field>
   <field>mass</field>
   <field>valence</field>
   <field type="string">pseudopotential</field>
   <set>
    <rc><c>  32</c><c>As</c><c>     74.92200000</c><c>      5.00000000</c><c>  PAW_PBE As 22Sep2009                  </c></rc>
    <rc><c>  32</c><c>Ga</c><c>     69.72300000</c><c>      3.00000000</c><c>  PAW_PBE Ga 08Apr2002                  </c></rc>
   </set>
  </array>
 </atominfo>
 <structure name="initialpos" >
  <crystal>
   <varray name="basis" >
    <v>      11.56714363       0.00000000       0.00000000 </v>
    <v>       0.00000000      11.51429326       0.00000000 </v>
    <v>       0.00000000       0.00000000      11.51429326 </v>
   </varray>
   <i name="volume">   1533.55974787 </i>
   <varray name="rec_basis" >
    <v>       0.08645177       0.00000000       0.00000000 </v>
    <v>       0.00000000       0.08684858       0.00000000 </v>
    <v>       0.00000000       0.00000000       0.08684858 </v>
   </varray>
  </crystal>
  <varray name="positions" >
   <v>       0.00000000       0.00000000       0.00000000 </v>
   <v>       0.00000000       0.00000000       0.50000000 </v>
   <v>       0.00000000       0.50000000       0.00000000 </v>
   <v>       0.00000000       0.50000000       0.50000000 </v>
   <v>       0.50000000       0.00000000       0.00000000 </v>
   <v>       0.50000000       0.00000000       0.50000000 </v>
   <v>       0.50000000       0.50000000       0.00000000 </v>
   <v>       0.50000000       0.50000000       0.50000000 </v>
   <v>       0.25000000       0.25000000       0.00000000 </v>
   <v>       0.25000000       0.25000000       0.50000000 </v>
   <v>       0.25000000       0.75000000       0.00000000 </v>
   <v>       0.25000000       0.75000000       0.50000000 </v>
   <v>       0.75000000       0.25000000       0.00000000 </v>
   <v>       0.75000000       0.25000000       0.50000000 </v>
   <v>       0.75000000       0.75000000       0.00000000 </v>
   <v>       0.75000000       0.75000000       0.50000000 </v>
   <v>       0.25000000       0.00000000       0.25000000 </v>
   <v>       0.25000000       0.00000000       0.75000000 </v>
   <v>       0.25000000       0.50000000       0.25000000 </v>
   <v>       0.25000000       0.50000000       0.75000000 </v>
   <v>       0.75000000       0.00000000       0.25000000 </v>
   <v>       0.75000000       0.00000000       0.75000000 </v>
   <v>       0.75000000       0.50000000       0.25000000 </v>
   <v>       0.75000000       0.50000000       0.75000000 </v>
   <v>       0.00000000       0.25000000       0.25000000 </v>
   <v>       0.00000000       0.25000000       0.75000000 </v>
   <v>       0.00000000       0.75000000       0.25000000 </v>
   <v>       0.00000000       0.75000000       0.75000000 </v>
   <v>       0.50000000       0.25000000       0.25000000 </v>
   <v>       0.50000000       0.25000000       0.75000000 </v>
   <v>       0.50000000       0.75000000       0.25000000 </v>
   <v>       0.50000000       0.75000000       0.75000000 </v>
   <v>       0.12500000       0.12500000       0.12500000 </v>
   <v>       0.12500000       0.12500000       0.62500000 </v>
   <v>       0.12500000       0.62500000       0.12500000 </v>
   <v>       0.12500000       0.62500000       0.62500000 </v>
   <v>       0.62500000       0.12500000       0.12500000 </v>
   <v>       0.62500000       0.12500000       0.62500000 </v>
   <v>       0.62500000       0.62500000       0.12500000 </v>
   <v>       0.62500000       0.62500000       0.62500000 </v>
   <v>       0.37500000       0.12500000       0.37500000 </v>
   <v>       0.37500000       0.12500000       0.87500000 </v>
   <v>       0.37500000       0.62500000       0.37500000 </v>
   <v>       0.37500000       0.62500000       0.87500000 </v>
   <v>       0.87500000       0.12500000       0.37500000 </v>
   <v>       0.87500000       0.12500000       0.87500000 </v>
   <v>       0.87500000       0.62500000       0.37500000 </v>
   <v>       0.87500000       0.62500000       0.87500000 </v>
   <v>       0.37500000       0.37500000       0.12500000 </v>
   <v>       0.37500000       0.37500000       0.62500000 </v>
   <v>       0.37500000       0.87500000       0.12500000 </v>
   <v>       0.37500000       0.87500000       0.62500000 </v>
   <v>       0.87500000       0.37500000       0.12500000 </v>
   <v>       0.87500000       0.37500000       0.62500000 </v>
   <v>       0.87500000       0.87500000       0.12500000 </v>
   <v>       0.87500000       0.87500000       0.62500000 </v>
   <v>       0.12500000       0.37500000       0.37500000 </v>
   <v>       0.12500000       0.37500000       0.87500000 </v>
   <v>       0.12500000       0.87500000       0.37500000 </v>
   <v>       0.12500000       0.87500000       0.87500000 </v>
   <v>       0.62500000       0.37500000       0.37500000 </v>
   <v>       0.62500000       0.37500000       0.87500000 </v>
   <v>       0.62500000       0.87500000       0.37500000 </v>
   <v>       0.62500000       0.87500000       0.87500000 </v>
  </varray>
 </structure>
 <calculation>
  <scstep>
   <time name="dav">   93.44   94.75</time>
   <time name="total">   93.58   94.89</time>
   <energy>
    <i name="alphaZ">    571.06777603 </i>
    <i name="ewald">  -7190.23401092 </i>
    <i name="hartreedc">   -602.61806370 </i>
    <i name="XCdc">   -996.33234962 </i>
    <i name="pawpsdc">   6692.16565901 </i>
    <i name="pawaedc">  -5247.93935635 </i>
    <i name="eentropy">      0.00000000 </i>
    <i name="bandstr">    381.27697909 </i>
    <i name="atom">   7329.73306348 </i>
    <i name="e_fr_energy">    937.11969701 </i>
    <i name="e_wo_entrp">    937.11969701 </i>
    <i name="e_0_energy">    937.11969701 </i>
   </energy>
  </scstep>
  <scstep>
   <time name="dav">  108.02  109.60</time>
   <time name="total">  108.03  109.61</time>
   <energy>
    <i name="e_fr_energy">   -166.88639781 </i>
    <i name="e_wo_entrp">   -166.88639781 </i>
    <i name="e_0_energy">   -166.88639781 </i>
   </energy>
  </scstep>
  <scstep>
   <time name="dav">  111.56  113.21</time>
   <time name="total">  111.57  113.22</time>
   <energy>
    <i name="e_fr_energy">   -267.63229368 </i>
    <i name="e_wo_entrp">   -267.63229368 </i>
    <i name="e_0_energy">   -267.63229368 </i>
   </energy>
  </scstep>
  <scstep>
   <time name="dav">  109.13  110.79</time>
   <time name="total">  109.14  110.79</time>
   <energy>
    <i name="e_fr_energy">   -270.16403200 </i>
    <i name="e_wo_entrp">   -270.16403200 </i>
    <i name="e_0_energy">   -270.16403200 </i>
   </energy>
  </scstep>
  <scstep>
   <time name="dav">  110.06  111.53</time>
   <time name="total">  110.86  112.33</time>
   <energy>
    <i name="e_fr_energy">   -270.23898687 </i>
    <i name="e_wo_entrp">   -270.23898687 </i>
    <i name="e_0_energy">   -270.23898687 </i>
   </energy>
  </scstep>
  <scstep>
   <time name="dav">  105.81  107.11</time>
   <time name="total">  106.73  108.04</time>
   <energy>
    <i name="e_fr_energy">   -266.04791324 </i>
    <i name="e_wo_entrp">   -266.04791324 </i>
    <i name="e_0_energy">   -266.04791324 </i>
   </energy>
  </scstep>
  <scstep>
   <time name="dav">  109.07  110.47</time>
   <time name="total">  109.99  111.40</time>
   <energy>
    <i name="e_fr_energy">   -265.21705457 </i>
    <i name="e_wo_entrp">   -265.21705457 </i>
    <i name="e_0_energy">   -265.21705457 </i>
   </energy>
  </scstep>
  <scstep>
   <time name="dav">  104.70  106.03</time>
   <time name="total">  105.61  106.95</time>
   <energy>
    <i name="e_fr_energy">   -265.17598666 </i>
    <i name="e_wo_entrp">   -265.17598666 </i>
    <i name="e_0_energy">   -265.17598666 </i>
   </energy>
  </scstep>
  <scstep>
   <time name="dav">  102.87  104.24</time>
   <time name="total">  103.78  105.17</time>
   <energy>
    <i name="e_fr_energy">   -265.18783978 </i>
    <i name="e_wo_entrp">   -265.18783978 </i>
    <i name="e_0_energy">   -265.18783978 </i>
   </energy>
  </scstep>
  <scstep>
   <time name="dav">  110.88  112.30</time>
   <time name="total">  111.79  113.22</time>
   <energy>
    <i name="e_fr_energy">   -265.18887950 </i>
    <i name="e_wo_entrp">   -265.18887950 </i>
    <i name="e_0_energy">   -265.18887950 </i>
   </energy>
  </scstep>
  <scstep>
   <time name="dav">   98.01   99.56</time>
   <time name="total">   98.91  100.48</time>
   <energy>
    <i name="e_fr_energy">   -265.19019678 </i>
    <i name="e_wo_entrp">   -265.19019678 </i>
    <i name="e_0_energy">   -265.19019678 </i>
   </energy>
  </scstep>
  <scstep>
   <time name="dav">  108.79  110.21</time>
   <time name="total">  109.69  111.12</time>
   <energy>
    <i name="e_fr_energy">   -265.19020431 </i>
    <i name="e_wo_entrp">   -265.19020431 </i>
    <i name="e_0_energy">   -265.19020431 </i>
   </energy>
  </scstep>
  <scstep>
   <time name="dav">  104.76  106.20</time>
   <time name="total">  105.67  107.12</time>
   <energy>
    <i name="e_fr_energy">   -265.19021363 </i>
    <i name="e_wo_entrp">   -265.19021363 </i>
    <i name="e_0_energy">   -265.19021363 </i>
   </energy>
  </scstep>
  <scstep>
   <time name="dav">   90.05   91.23</time>
   <time name="total">   90.18   91.37</time>
   <energy>
    <i name="alphaZ">    571.06777603 </i>
    <i name="ewald">  -7190.23401092 </i>
    <i name="hartreedc">   -711.07366751 </i>
    <i name="XCdc">   -974.40402675 </i>
    <i name="pawpsdc">  14661.50083577 </i>
    <i name="pawaedc"> -13228.96870798 </i>
    <i name="eentropy">      0.00000000 </i>
    <i name="bandstr">   -722.81147512 </i>
    <i name="atom">   7329.73306348 </i>
    <i name="e_fr_energy">   -265.19021300 </i>
    <i name="e_wo_entrp">   -265.19021300 </i>
    <i name="e_0_energy">   -265.19021300 </i>
   </energy>
  </scstep>
  <structure>
   <crystal>
    <varray name="basis" >
     <v>      11.56714363       0.00000000       0.00000000 </v>
     <v>       0.00000000      11.51429326       0.00000000 </v>
     <v>       0.00000000       0.00000000      11.51429326 </v>
    </varray>
    <i name="volume">   1533.55974787 </i>
    <varray name="rec_basis" >
     <v>       0.08645177       0.00000000       0.00000000 </v>
     <v>       0.00000000       0.08684858       0.00000000 </v>
     <v>       0.00000000       0.00000000       0.08684858 </v>
    </varray>
   </crystal>
   <varray name="positions" >
    <v>       0.00000000       0.00000000       0.00000000 </v>
    <v>       0.00000000       0.00000000       0.50000000 </v>
    <v>       0.00000000       0.50000000       0.00000000 </v>
    <v>       0.00000000       0.50000000       0.50000000 </v>
    <v>       0.50000000       0.00000000       0.00000000 </v>
    <v>       0.50000000       0.00000000       0.50000000 </v>
    <v>       0.50000000       0.50000000       0.00000000 </v>
    <v>       0.50000000       0.50000000       0.50000000 </v>
    <v>       0.25000000       0.25000000       0.00000000 </v>
    <v>       0.25000000       0.25000000       0.50000000 </v>
    <v>       0.25000000       0.75000000       0.00000000 </v>
    <v>       0.25000000       0.75000000       0.50000000 </v>
    <v>       0.75000000       0.25000000       0.00000000 </v>
    <v>       0.75000000       0.25000000       0.50000000 </v>
    <v>       0.75000000       0.75000000       0.00000000 </v>
    <v>       0.75000000       0.75000000       0.50000000 </v>
    <v>       0.25000000       0.00000000       0.25000000 </v>
    <v>       0.25000000       0.00000000       0.75000000 </v>
    <v>       0.25000000       0.50000000       0.25000000 </v>
    <v>       0.25000000       0.50000000       0.75000000 </v>
    <v>       0.75000000       0.00000000       0.25000000 </v>
    <v>       0.75000000       0.00000000       0.75000000 </v>
    <v>       0.75000000       0.50000000       0.25000000 </v>
    <v>       0.75000000       0.50000000       0.75000000 </v>
    <v>       0.00000000       0.25000000       0.25000000 </v>
    <v>       0.00000000       0.25000000       0.75000000 </v>
    <v>       0.00000000       0.75000000       0.25000000 </v>
    <v>       0.00000000       0.75000000       0.75000000 </v>
    <v>       0.50000000       0.25000000       0.25000000 </v>
    <v>       0.50000000       0.25000000       0.75000000 </v>
    <v>       0.50000000       0.75000000       0.25000000 </v>
    <v>       0.50000000       0.75000000       0.75000000 </v>
    <v>       0.12500000       0.12500000       0.12500000 </v>
    <v>       0.12500000       0.12500000       0.62500000 </v>
    <v>       0.12500000       0.62500000       0.12500000 </v>
    <v>       0.12500000       0.62500000       0.62500000 </v>
    <v>       0.62500000       0.12500000       0.12500000 </v>
    <v>       0.62500000       0.12500000       0.62500000 </v>
    <v>       0.62500000       0.62500000       0.12500000 </v>
    <v>       0.62500000       0.62500000       0.62500000 </v>
    <v>       0.37500000       0.12500000       0.37500000 </v>
    <v>       0.37500000       0.12500000       0.87500000 </v>
    <v>       0.37500000       0.62500000       0.37500000 </v>
    <v>       0.37500000       0.62500000       0.87500000 </v>
    <v>       0.87500000       0.12500000       0.37500000 </v>
    <v>       0.87500000       0.12500000       0.87500000 </v>
    <v>       0.87500000       0.62500000       0.37500000 </v>
    <v>       0.87500000       0.62500000       0.87500000 </v>
    <v>       0.37500000       0.37500000       0.12500000 </v>
    <v>       0.37500000       0.37500000       0.62500000 </v>
    <v>       0.37500000       0.87500000       0.12500000 </v>
    <v>       0.37500000       0.87500000       0.62500000 </v>
    <v>       0.87500000       0.37500000       0.12500000 </v>
    <v>       0.87500000       0.37500000       0.62500000 </v>
    <v>       0.87500000       0.87500000       0.12500000 </v>
    <v>       0.87500000       0.87500000       0.62500000 </v>
    <v>       0.12500000       0.37500000       0.37500000 </v>
    <v>       0.12500000       0.37500000       0.87500000 </v>
    <v>       0.12500000       0.87500000       0.37500000 </v>
    <v>       0.12500000       0.87500000       0.87500000 </v>
    <v>       0.62500000       0.37500000       0.37500000 </v>
    <v>       0.62500000       0.37500000       0.87500000 </v>
    <v>       0.62500000       0.87500000       0.37500000 </v>
    <v>       0.62500000       0.87500000       0.87500000 </v>
   </varray>
  </structure>
  <varray name="forces" >
   <v>       0.00000000      -0.00000000      -0.00000000 </v>
   <v>      -0.00000000       0.00000000       0.00000000 </v>
   <v>      -0.00000000       0.00000000      -0.00000000 </v>
   <v>      -0.00000000       0.00000000      -0.00000000 </v>
   <v>       0.00000000       0.00000000       0.00000000 </v>
   <v>       0.00000000       0.00000000      -0.00000000 </v>
   <v>      -0.00000000      -0.00000000      -0.00000000 </v>
   <v>       0.00000000       0.00000000      -0.00000000 </v>
   <v>       0.00000000       0.00000000       0.00000000 </v>
   <v>       0.00000000      -0.00000000       0.00000000 </v>
   <v>       0.00000000      -0.00000000       0.00000000 </v>
   <v>      -0.00000000      -0.00000000      -0.00000000 </v>
   <v>      -0.00000000      -0.00000000       0.00000000 </v>
   <v>      -0.00000000       0.00000000      -0.00000000 </v>
   <v>       0.00000000      -0.00000000      -0.00000000 </v>
   <v>       0.00000000       0.00000000      -0.00000000 </v>
   <v>       0.00000000       0.00000000       0.00000000 </v>
   <v>      -0.00000000      -0.00000000      -0.00000000 </v>
   <v>      -0.00000000       0.00000000      -0.00000000 </v>
   <v>       0.00000000       0.00000000      -0.00000000 </v>
   <v>       0.00000000      -0.00000000       0.00000000 </v>
   <v>       0.00000000       0.00000000       0.00000000 </v>
   <v>      -0.00000000       0.00000000      -0.00000000 </v>
   <v>       0.00000000      -0.00000000      -0.00000000 </v>
   <v>      -0.00000000      -0.00000000      -0.00000000 </v>
   <v>      -0.00000000      -0.00000000      -0.00000000 </v>
   <v>       0.00000000      -0.00000000      -0.00000000 </v>
   <v>       0.00000000      -0.00000000       0.00000000 </v>
   <v>      -0.00000000       0.00000000      -0.00000000 </v>
   <v>       0.00000000       0.00000000       0.00000000 </v>
   <v>       0.00000000       0.00000000      -0.00000000 </v>
   <v>      -0.00000000      -0.00000000      -0.00000000 </v>
   <v>      -0.00000000      -0.00000000       0.00000000 </v>
   <v>      -0.00000000      -0.00000000      -0.00000000 </v>
   <v>       0.00000000       0.00000000       0.00000000 </v>
   <v>      -0.00000000      -0.00000000       0.00000000 </v>
   <v>       0.00000000      -0.00000000       0.00000000 </v>
   <v>       0.00000000      -0.00000000       0.00000000 </v>
   <v>      -0.00000000       0.00000000       0.00000000 </v>
   <v>       0.00000000      -0.00000000       0.00000000 </v>
   <v>      -0.00000000      -0.00000000      -0.00000000 </v>
   <v>      -0.00000000      -0.00000000       0.00000000 </v>
   <v>      -0.00000000       0.00000000       0.00000000 </v>
   <v>       0.00000000       0.00000000       0.00000000 </v>
   <v>      -0.00000000      -0.00000000       0.00000000 </v>
   <v>      -0.00000000      -0.00000000       0.00000000 </v>
   <v>      -0.00000000       0.00000000       0.00000000 </v>
   <v>      -0.00000000      -0.00000000      -0.00000000 </v>
   <v>       0.00000000       0.00000000       0.00000000 </v>
   <v>       0.00000000       0.00000000       0.00000000 </v>
   <v>      -0.00000000      -0.00000000       0.00000000 </v>
   <v>      -0.00000000      -0.00000000       0.00000000 </v>
   <v>      -0.00000000      -0.00000000       0.00000000 </v>
   <v>      -0.00000000       0.00000000      -0.00000000 </v>
   <v>      -0.00000000       0.00000000       0.00000000 </v>
   <v>       0.00000000      -0.00000000       0.00000000 </v>
   <v>      -0.00000000       0.00000000       0.00000000 </v>
   <v>       0.00000000       0.00000000      -0.00000000 </v>
   <v>      -0.00000000      -0.00000000       0.00000000 </v>
   <v>       0.00000000      -0.00000000       0.00000000 </v>
   <v>      -0.00000000       0.00000000       0.00000000 </v>
   <v>      -0.00000000       0.00000000       0.00000000 </v>
   <v>       0.00000000      -0.00000000       0.00000000 </v>
   <v>      -0.00000000      -0.00000000      -0.00000000 </v>
  </varray>
  <varray name="stress" >
   <v>      -2.81537276       0.00000000       0.00000000 </v>
   <v>       0.00000000      -0.24080767       0.00000000 </v>
   <v>       0.00000000       0.00000000      -0.24080767 </v>
  </varray>
  <scstep>
   <time name="total">  161.99  164.02</time>
   <energy>
    <i name="e_fr_energy">  -1276.66512441 </i>
    <i name="e_wo_entrp">  -1276.66512441 </i>
    <i name="e_0_energy">  -1276.66512441 </i>
   </energy>
  </scstep>
  <scstep>
   <time name="total">  114.03  115.55</time>
   <energy>
    <i name="e_fr_energy">  -1099.61126908 </i>
    <i name="e_wo_entrp">  -1099.61126908 </i>
    <i name="e_0_energy">  -1099.61126908 </i>
   </energy>
  </scstep>
  <scstep>
   <time name="total">  115.03  116.61</time>
   <energy>
    <i name="e_fr_energy">  -1101.90601117 </i>
    <i name="e_wo_entrp">  -1101.90601117 </i>
    <i name="e_0_energy">  -1101.90601117 </i>
   </energy>
  </scstep>
  <scstep>
   <time name="total">   73.80   74.89</time>
   <energy>
    <i name="e_fr_energy">  -1102.03085393 </i>
    <i name="e_wo_entrp">  -1102.03085393 </i>
    <i name="e_0_energy">  -1102.03085393 </i>
   </energy>
  </scstep>
  <scstep>
   <time name="total">   74.74   75.73</time>
   <energy>
    <i name="e_fr_energy">  -1102.02929868 </i>
    <i name="e_wo_entrp">  -1102.02929868 </i>
    <i name="e_0_energy">  -1102.02929868 </i>
   </energy>
  </scstep>
  <scstep>
   <time name="total">   79.24   80.31</time>
   <energy>
    <i name="e_fr_energy">  -1102.02819153 </i>
    <i name="e_wo_entrp">  -1102.02819153 </i>
    <i name="e_0_energy">  -1102.02819153 </i>
   </energy>
  </scstep>
  <scstep>
   <time name="total">   84.58   85.63</time>
   <energy>
    <i name="e_fr_energy">  -1102.02784605 </i>
    <i name="e_wo_entrp">  -1102.02784605 </i>
    <i name="e_0_energy">  -1102.02784605 </i>
   </energy>
  </scstep>
  <scstep>
   <time name="total">   89.61   90.87</time>
   <energy>
    <i name="e_fr_energy">  -1102.02776953 </i>
    <i name="e_wo_entrp">  -1102.02776953 </i>
    <i name="e_0_energy">  -1102.02776953 </i>
   </energy>
  </scstep>
  <scstep>
   <time name="total">   91.66   92.78</time>
   <energy>
    <i name="e_fr_energy">  -1102.02772807 </i>
    <i name="e_wo_entrp">  -1102.02772807 </i>
    <i name="e_0_energy">  -1102.02772807 </i>
   </energy>
  </scstep>
  <scstep>
   <time name="total">   93.27   94.58</time>
   <energy>
    <i name="e_fr_energy">  -1102.02773311 </i>
    <i name="e_wo_entrp">  -1102.02773311 </i>
    <i name="e_0_energy">  -1102.02773311 </i>
   </energy>
  </scstep>
  <scstep>
   <time name="total">   95.51   96.85</time>
   <energy>
    <i name="e_fr_energy">  -1102.02774172 </i>
    <i name="e_wo_entrp">  -1102.02774172 </i>
    <i name="e_0_energy">  -1102.02774172 </i>
   </energy>
  </scstep>
  <scstep>
   <time name="total">  159.41  161.61</time>
   <energy>
    <i name="e_fr_energy">  -1264.64499899 </i>
    <i name="e_wo_entrp">  -1264.64499899 </i>
    <i name="e_0_energy">  -1264.64499899 </i>
   </energy>
  </scstep>
  <scstep>
   <time name="total">  115.22  116.62</time>
   <energy>
    <i name="e_fr_energy">  -1098.49122618 </i>
    <i name="e_wo_entrp">  -1098.49122618 </i>
    <i name="e_0_energy">  -1098.49122618 </i>
   </energy>
  </scstep>
  <scstep>
   <time name="total">  118.08  119.62</time>
   <energy>
    <i name="e_fr_energy">  -1100.28142764 </i>
    <i name="e_wo_entrp">  -1100.28142764 </i>
    <i name="e_0_energy">  -1100.28142764 </i>
   </energy>
  </scstep>
  <scstep>
   <time name="total">   75.05   76.05</time>
   <energy>
    <i name="e_fr_energy">  -1100.38967029 </i>
    <i name="e_wo_entrp">  -1100.38967029 </i>
    <i name="e_0_energy">  -1100.38967029 </i>
   </energy>
  </scstep>
  <scstep>
   <time name="total">   75.12   76.10</time>
   <energy>
    <i name="e_fr_energy">  -1100.37997345 </i>
    <i name="e_wo_entrp">  -1100.37997345 </i>
    <i name="e_0_energy">  -1100.37997345 </i>
   </energy>
  </scstep>
  <scstep>
   <time name="total">   80.31   81.34</time>
   <energy>
    <i name="e_fr_energy">  -1100.37710527 </i>
    <i name="e_wo_entrp">  -1100.37710527 </i>
    <i name="e_0_energy">  -1100.37710527 </i>
   </energy>
  </scstep>
  <scstep>
   <time name="total">   85.18   86.33</time>
   <energy>
    <i name="e_fr_energy">  -1100.37607374 </i>
    <i name="e_wo_entrp">  -1100.37607374 </i>
    <i name="e_0_energy">  -1100.37607374 </i>
   </energy>
  </scstep>
  <scstep>
   <time name="total">   91.27   92.58</time>
   <energy>
    <i name="e_fr_energy">  -1100.37588808 </i>
    <i name="e_wo_entrp">  -1100.37588808 </i>
    <i name="e_0_energy">  -1100.37588808 </i>
   </energy>
  </scstep>
  <scstep>
   <time name="total">   92.80   93.87</time>
   <energy>
    <i name="e_fr_energy">  -1100.37579034 </i>
    <i name="e_wo_entrp">  -1100.37579034 </i>
    <i name="e_0_energy">  -1100.37579034 </i>
   </energy>
  </scstep>
  <scstep>
   <time name="total">   95.48   96.59</time>
   <energy>
    <i name="e_fr_energy">  -1100.37579201 </i>
    <i name="e_wo_entrp">  -1100.37579201 </i>
    <i name="e_0_energy">  -1100.37579201 </i>
   </energy>
  </scstep>
  <scstep>
   <time name="total">   97.25   98.38</time>
   <energy>
    <i name="e_fr_energy">  -1100.37578495 </i>
    <i name="e_wo_entrp">  -1100.37578495 </i>
    <i name="e_0_energy">  -1100.37578495 </i>
   </energy>
  </scstep>
  <scstep>
   <time name="total">  164.59  166.93</time>
   <energy>
    <i name="e_fr_energy">  -1379.55966899 </i>
    <i name="e_wo_entrp">  -1379.55966899 </i>
    <i name="e_0_energy">  -1379.55966899 </i>
   </energy>
  </scstep>
  <scstep>
   <time name="total">  115.51  116.91</time>
   <energy>
    <i name="e_fr_energy">  -1103.73530786 </i>
    <i name="e_wo_entrp">  -1103.73530786 </i>
    <i name="e_0_energy">  -1103.73530786 </i>
   </energy>
  </scstep>
  <scstep>
   <time name="total">  116.72  118.59</time>
   <energy>
    <i name="e_fr_energy">  -1105.81196110 </i>
    <i name="e_wo_entrp">  -1105.81196110 </i>
    <i name="e_0_energy">  -1105.81196110 </i>
   </energy>
  </scstep>
  <scstep>
   <time name="total">   75.97   76.99</time>
   <energy>
    <i name="e_fr_energy">  -1105.93443337 </i>
    <i name="e_wo_entrp">  -1105.93443337 </i>
    <i name="e_0_energy">  -1105.93443337 </i>
   </energy>
  </scstep>
  <scstep>
   <time name="total">   74.82   75.86</time>
   <energy>
    <i name="e_fr_energy">  -1105.92314459 </i>
    <i name="e_wo_entrp">  -1105.92314459 </i>
    <i name="e_0_energy">  -1105.92314459 </i>
   </energy>
  </scstep>
  <scstep>
   <time name="total">   79.64   80.87</time>
   <energy>
    <i name="e_fr_energy">  -1105.92019117 </i>
    <i name="e_wo_entrp">  -1105.92019117 </i>
    <i name="e_0_energy">  -1105.92019117 </i>
   </energy>
  </scstep>
  <scstep>
   <time name="total">   85.04   86.26</time>
   <energy>
    <i name="e_fr_energy">  -1105.91909453 </i>
    <i name="e_wo_entrp">  -1105.91909453 </i>
    <i name="e_0_energy">  -1105.91909453 </i>
   </energy>
  </scstep>
  <scstep>
   <time name="total">   90.96   92.06</time>
   <energy>
    <i name="e_fr_energy">  -1105.91888846 </i>
    <i name="e_wo_entrp">  -1105.91888846 </i>
    <i name="e_0_energy">  -1105.91888846 </i>
   </energy>
  </scstep>
  <scstep>
   <time name="total">   91.90   93.26</time>
   <energy>
    <i name="e_fr_energy">  -1105.91881707 </i>
    <i name="e_wo_entrp">  -1105.91881707 </i>
    <i name="e_0_energy">  -1105.91881707 </i>
   </energy>
  </scstep>
  <scstep>
   <time name="total">   93.96   95.36</time>
   <energy>
    <i name="e_fr_energy">  -1105.91882499 </i>
    <i name="e_wo_entrp">  -1105.91882499 </i>
    <i name="e_0_energy">  -1105.91882499 </i>
   </energy>
  </scstep>
  <scstep>
   <time name="total">   95.92   97.37</time>
   <energy>
    <i name="e_fr_energy">  -1105.91881075 </i>
    <i name="e_wo_entrp">  -1105.91881075 </i>
    <i name="e_0_energy">  -1105.91881075 </i>
   </energy>
  </scstep>
  <kpoints>
   <generation param="Gamma">
    <v type="int" name="divisions">       5        5        5 </v>
    <v name="usershift">      0.00000000       0.00000000       0.00000000 </v>
    <v name="genvec1">      0.20000000       0.00000000       0.00000000 </v>
    <v name="genvec2">      0.00000000       0.20000000       0.00000000 </v>
    <v name="genvec3">      0.00000000       0.00000000       0.20000000 </v>
    <v name="shift">      0.00000000       0.00000000       0.00000000 </v>
   </generation>
   <varray name="kpointlist" >
    <v>       0.00000000       0.00000000       0.00000000 </v>
    <v>       0.20000000       0.00000000       0.00000000 </v>
    <v>       0.40000000       0.00000000       0.00000000 </v>
    <v>       0.00000000       0.20000000       0.00000000 </v>
    <v>       0.20000000       0.20000000       0.00000000 </v>
    <v>       0.40000000       0.20000000       0.00000000 </v>
    <v>       0.00000000       0.40000000       0.00000000 </v>
    <v>       0.20000000       0.40000000       0.00000000 </v>
    <v>       0.40000000       0.40000000       0.00000000 </v>
    <v>       0.00000000       0.20000000       0.20000000 </v>
    <v>       0.00000000      -0.20000000       0.20000000 </v>
    <v>       0.20000000       0.20000000       0.20000000 </v>
    <v>       0.20000000      -0.20000000       0.20000000 </v>
    <v>       0.40000000       0.20000000       0.20000000 </v>
    <v>       0.40000000      -0.20000000       0.20000000 </v>
    <v>       0.00000000       0.40000000       0.20000000 </v>
    <v>       0.00000000      -0.20000000       0.40000000 </v>
    <v>       0.20000000       0.40000000       0.20000000 </v>
    <v>       0.20000000      -0.20000000       0.40000000 </v>
    <v>       0.40000000       0.40000000       0.20000000 </v>
    <v>       0.40000000      -0.20000000       0.40000000 </v>
    <v>       0.00000000       0.40000000       0.40000000 </v>
    <v>       0.00000000      -0.40000000       0.40000000 </v>
    <v>       0.20000000       0.40000000       0.40000000 </v>
    <v>       0.20000000      -0.40000000       0.40000000 </v>
    <v>       0.40000000       0.40000000       0.40000000 </v>
    <v>       0.40000000      -0.40000000       0.40000000 </v>
   </varray>
   <varray name="weights" >
    <v>       0.00800000 </v>
    <v>       0.01600000 </v>
    <v>       0.01600000 </v>
    <v>       0.03200000 </v>
    <v>       0.06400000 </v>
    <v>       0.06400000 </v>
    <v>       0.03200000 </v>
    <v>       0.06400000 </v>
    <v>       0.06400000 </v>
    <v>       0.01600000 </v>
    <v>       0.01600000 </v>
    <v>       0.03200000 </v>
    <v>       0.03200000 </v>
    <v>       0.03200000 </v>
    <v>       0.03200000 </v>
    <v>       0.03200000 </v>
    <v>       0.03200000 </v>
    <v>       0.06400000 </v>
    <v>       0.06400000 </v>
    <v>       0.06400000 </v>
    <v>       0.06400000 </v>
    <v>       0.01600000 </v>
    <v>       0.01600000 </v>
    <v>       0.03200000 </v>
    <v>       0.03200000 </v>
    <v>       0.03200000 </v>
    <v>       0.03200000 </v>
   </varray>
   <varray name="tetrahedronlist"  type="int" >
    <v type="int" >        4       12       14       18       20 </v>
    <v type="int" >        4       12       18       18       20 </v>
    <v type="int" >        4       18       18       20       24 </v>
    <v type="int" >        4       14       18       20       20 </v>
    <v type="int" >        4       18       20       20       26 </v>
    <v type="int" >        4       18       20       24       26 </v>
    <v type="int" >        2       14       14       20       20 </v>
    <v type="int" >        4       14       20       20       20 </v>
    <v type="int" >        4       20       20       20       26 </v>
    <v type="int" >        2       20       20       26       26 </v>
    <v type="int" >        4       10       12       16       18 </v>
    <v type="int" >        4       12       16       18       18 </v>
    <v type="int" >        4       16       18       18       24 </v>
    <v type="int" >        4       10       16       16       18 </v>
    <v type="int" >        4       16       16       18       22 </v>
    <v type="int" >        4       16       18       22       24 </v>
    <v type="int" >        4       18       20       21       24 </v>
    <v type="int" >        4       18       19       21       24 </v>
    <v type="int" >        4       19       21       24       25 </v>
    <v type="int" >        4       20       21       24       26 </v>
    <v type="int" >        4       21       24       26       27 </v>
    <v type="int" >        4       21       24       25       27 </v>
    <v type="int" >        4       20       20       21       26 </v>
    <v type="int" >        4       20       21       21       26 </v>
    <v type="int" >        4       21       21       26       27 </v>
    <v type="int" >        4       20       21       26       26 </v>
    <v type="int" >        4       21       26       26       27 </v>
    <v type="int" >        4       21       26       27       27 </v>
    <v type="int" >        4       18       19       20       26 </v>
    <v type="int" >        4       19       20       21       26 </v>
    <v type="int" >        4       19       21       26       27 </v>
    <v type="int" >        4       18       19       24       26 </v>
    <v type="int" >        4       19       24       25       26 </v>
    <v type="int" >        4       19       25       26       27 </v>
    <v type="int" >        4       16       17       18       24 </v>
    <v type="int" >        4       17       18       19       24 </v>
    <v type="int" >        4       17       19       24       25 </v>
    <v type="int" >        4       16       17       22       24 </v>
    <v type="int" >        4       17       22       23       24 </v>
    <v type="int" >        4       17       23       24       25 </v>
    <v type="int" >        4       16       18       19       22 </v>
    <v type="int" >        4       16       17       19       22 </v>
    <v type="int" >        4       17       19       22       23 </v>
    <v type="int" >        4       18       19       22       24 </v>
    <v type="int" >        4       19       22       24       25 </v>
    <v type="int" >        4       19       22       23       25 </v>
    <v type="int" >        4       15       19       21       25 </v>
    <v type="int" >        4       13       15       19       25 </v>
    <v type="int" >        4       15       21       25       27 </v>
    <v type="int" >        4       15       21       21       27 </v>
    <v type="int" >        4       15       15       21       27 </v>
    <v type="int" >        4       15       21       27       27 </v>
    <v type="int" >        4       13       19       21       27 </v>
    <v type="int" >        4       13       15       21       27 </v>
    <v type="int" >        4       13       19       25       27 </v>
    <v type="int" >        4       11       17       19       25 </v>
    <v type="int" >        4       11       13       19       25 </v>
    <v type="int" >        4       11       17       23       25 </v>
    <v type="int" >        4       13       17       19       23 </v>
    <v type="int" >        4       11       13       17       23 </v>
    <v type="int" >        4       13       19       23       25 </v>
    <v type="int" >        4        6       13       15       19 </v>
    <v type="int" >        4        5        6       13       19 </v>
    <v type="int" >        4        5        6        8       19 </v>
    <v type="int" >        4        6       15       19       21 </v>
    <v type="int" >        4        6        9       19       21 </v>
    <v type="int" >        4        6        8        9       19 </v>
    <v type="int" >        4        6       15       15       21 </v>
    <v type="int" >        4        6        6       15       21 </v>
    <v type="int" >        4        6        6        9       21 </v>
    <v type="int" >        4        6       15       21       21 </v>
    <v type="int" >        4        6        9       21       21 </v>
    <v type="int" >        4        6        9        9       21 </v>
    <v type="int" >        4        5       13       15       21 </v>
    <v type="int" >        4        5        6       15       21 </v>
    <v type="int" >        4        5        6        9       21 </v>
    <v type="int" >        4        5       13       19       21 </v>
    <v type="int" >        4        5        8       19       21 </v>
    <v type="int" >        4        5        8        9       21 </v>
    <v type="int" >        4        4       11       13       19 </v>
    <v type="int" >        4        4        5       13       19 </v>
    <v type="int" >        4        4        5        8       19 </v>
    <v type="int" >        4        4       11       17       19 </v>
    <v type="int" >        4        4        7       17       19 </v>
    <v type="int" >        4        4        7        8       19 </v>
    <v type="int" >        4        5       11       13       17 </v>
    <v type="int" >        4        4        5       11       17 </v>
    <v type="int" >        4        4        5        7       17 </v>
    <v type="int" >        4        5       13       17       19 </v>
    <v type="int" >        4        5        8       17       19 </v>
    <v type="int" >        4        5        7        8       17 </v>
    <v type="int" >        4        5        6        8       14 </v>
    <v type="int" >        4        5        8       12       14 </v>
    <v type="int" >        4        8       12       14       18 </v>
    <v type="int" >        4        6        8        9       14 </v>
    <v type="int" >        4        8        9       14       20 </v>
    <v type="int" >        4        8       14       18       20 </v>
    <v type="int" >        4        6        6        9       14 </v>
    <v type="int" >        4        6        9       14       14 </v>
    <v type="int" >        4        9       14       14       20 </v>
    <v type="int" >        4        6        9        9       14 </v>
    <v type="int" >        4        9        9       14       20 </v>
    <v type="int" >        4        9       14       20       20 </v>
    <v type="int" >        4        5        6        9       12 </v>
    <v type="int" >        4        6        9       12       14 </v>
    <v type="int" >        4        9       12       14       20 </v>
    <v type="int" >        4        5        8        9       12 </v>
    <v type="int" >        4        8        9       12       18 </v>
    <v type="int" >        4        9       12       18       20 </v>
    <v type="int" >        4        4        5        8       10 </v>
    <v type="int" >        4        5        8       10       12 </v>
    <v type="int" >        4        8       10       12       18 </v>
    <v type="int" >        4        4        7        8       10 </v>
    <v type="int" >        4        7        8       10       16 </v>
    <v type="int" >        4        8       10       16       18 </v>
    <v type="int" >        4        4        5        7       12 </v>
    <v type="int" >        4        4        7       10       12 </v>
    <v type="int" >        4        7       10       12       16 </v>
    <v type="int" >        4        5        7        8       12 </v>
    <v type="int" >        4        7        8       12       18 </v>
    <v type="int" >        4        7       12       16       18 </v>
    <v type="int" >        4       24       25       26       27 </v>
    <v type="int" >        4       24       25       25       27 </v>
    <v type="int" >        4       25       26       27       27 </v>
    <v type="int" >        2       26       26       27       27 </v>
    <v type="int" >        4       26       27       27       27 </v>
    <v type="int" >        4       22       23       24       25 </v>
    <v type="int" >        4       23       24       25       25 </v>
    <v type="int" >        4       22       23       23       25 </v>
    <v type="int" >        4        9       18       19       21 </v>
    <v type="int" >        4        8        9       18       19 </v>
    <v type="int" >        4        8        8        9       18 </v>
    <v type="int" >        4        9       18       20       21 </v>
    <v type="int" >        4        9        9       18       20 </v>
    <v type="int" >        4        8        9        9       18 </v>
    <v type="int" >        4        9       20       21       21 </v>
    <v type="int" >        4        9        9       20       21 </v>
    <v type="int" >        8        9        9        9       20 </v>
    <v type="int" >        4        9       20       20       21 </v>
    <v type="int" >        4        9        9       20       20 </v>
    <v type="int" >        4        8       19       20       21 </v>
    <v type="int" >        4        8        9       20       21 </v>
    <v type="int" >        4        8        9        9       20 </v>
    <v type="int" >        4        8       18       19       20 </v>
    <v type="int" >        4        8        8       18       20 </v>
    <v type="int" >        4        8        8        9       20 </v>
    <v type="int" >        4        7       17       18       19 </v>
    <v type="int" >        4        7        8       18       19 </v>
    <v type="int" >        4        7        8        8       18 </v>
    <v type="int" >        4        7       16       17       18 </v>
    <v type="int" >        4        7        7       16       18 </v>
    <v type="int" >        4        7        7        8       18 </v>
    <v type="int" >        4        8       16       17       19 </v>
    <v type="int" >        4        7        8       16       17 </v>
    <v type="int" >        4        7        7        8       16 </v>
    <v type="int" >        4        8       16       18       19 </v>
    <v type="int" >        4        8        8       16       18 </v>
    <v type="int" >        4        7        8        8       16 </v>
    <v type="int" >        4        5        6       12       14 </v>
    <v type="int" >        4        5        5        6       12 </v>
    <v type="int" >        4        2        5        5        6 </v>
    <v type="int" >        4        5        6        6       14 </v>
    <v type="int" >        4        3        5        6        6 </v>
    <v type="int" >        4        2        3        5        6 </v>
    <v type="int" >        2        6        6       14       14 </v>
    <v type="int" >        4        6        6        6       14 </v>
    <v type="int" >        4        3        6        6        6 </v>
    <v type="int" >        2        3        3        6        6 </v>
    <v type="int" >        4        4        5       10       12 </v>
    <v type="int" >        4        4        5        5       12 </v>
    <v type="int" >        4        2        4        5        5 </v>
    <v type="int" >        4        4        4        5       10 </v>
    <v type="int" >        4        1        4        4        5 </v>
    <v type="int" >        4        1        2        4        5 </v>
    <v type="int" >        4        2        5        6       15 </v>
    <v type="int" >        4        2        5       13       15 </v>
    <v type="int" >        4        2        3        6       15 </v>
    <v type="int" >        4        3        6        6       15 </v>
    <v type="int" >        4        3        6       15       15 </v>
    <v type="int" >        4        3        3        6       15 </v>
    <v type="int" >        4        3        5        6       13 </v>
    <v type="int" >        4        3        6       13       15 </v>
    <v type="int" >        4        2        3        5       13 </v>
    <v type="int" >        4        2        4        5       11 </v>
    <v type="int" >        4        2        5       11       13 </v>
    <v type="int" >        4        1        2        4       11 </v>
    <v type="int" >        4        1        4        5       13 </v>
    <v type="int" >        4        1        4       11       13 </v>
    <v type="int" >        4        1        2        5       13 </v>
   </varray>
   <i name="volumeweight">      0.00133333 </i>
  </kpoints>
  <scstep>
   <time name="total">  177.16  180.02</time>
   <energy>
    <i name="e_fr_energy">   -115.89627103 </i>
    <i name="e_wo_entrp">   -115.89627103 </i>
    <i name="e_0_energy">   -115.89627103 </i>
   </energy>
  </scstep>
  <scstep>
   <time name="total">  158.53  160.66</time>
   <energy>
    <i name="e_fr_energy">   -322.88602916 </i>
    <i name="e_wo_entrp">   -322.88602916 </i>
    <i name="e_0_energy">   -322.88602916 </i>
   </energy>
  </scstep>
  <scstep>
   <time name="total">  155.74  157.98</time>
   <energy>
    <i name="e_fr_energy">   -319.90905064 </i>
    <i name="e_wo_entrp">   -319.90905064 </i>
    <i name="e_0_energy">   -319.90905064 </i>
   </energy>
  </scstep>
  <scstep>
   <time name="total">  152.63  154.61</time>
   <energy>
    <i name="e_fr_energy">   -311.44825193 </i>
    <i name="e_wo_entrp">   -311.44825193 </i>
    <i name="e_0_energy">   -311.44825193 </i>
   </energy>
  </scstep>
  <scstep>
   <time name="total">  160.14  162.23</time>
   <energy>
    <i name="e_fr_energy">   -310.76154164 </i>
    <i name="e_wo_entrp">   -310.76154164 </i>
    <i name="e_0_energy">   -310.76154164 </i>
   </energy>
  </scstep>
  <scstep>
   <time name="total">  159.99  162.25</time>
   <energy>
    <i name="e_fr_energy">   -310.68590452 </i>
    <i name="e_wo_entrp">   -310.68590452 </i>
    <i name="e_0_energy">   -310.68590452 </i>
   </energy>
  </scstep>
  <scstep>
   <time name="total">  157.61  159.84</time>
   <energy>
    <i name="e_fr_energy">   -310.63219582 </i>
    <i name="e_wo_entrp">   -310.63219582 </i>
    <i name="e_0_energy">   -310.63219582 </i>
   </energy>
  </scstep>
  <scstep>
   <time name="total">  166.21  168.39</time>
   <energy>
    <i name="e_fr_energy">   -310.61831055 </i>
    <i name="e_wo_entrp">   -310.61831055 </i>
    <i name="e_0_energy">   -310.61831055 </i>
   </energy>
  </scstep>
  <scstep>
   <time name="total">  165.79  168.18</time>
   <energy>
    <i name="e_fr_energy">   -310.62397177 </i>
    <i name="e_wo_entrp">   -310.62397177 </i>
    <i name="e_0_energy">   -310.62397177 </i>
   </energy>
  </scstep>
  <scstep>
   <time name="total">  178.08  180.46</time>
   <energy>
    <i name="e_fr_energy">   -310.62364273 </i>
    <i name="e_wo_entrp">   -310.62364273 </i>
    <i name="e_0_energy">   -310.62364273 </i>
   </energy>
  </scstep>
  <scstep>
   <time name="total">  178.58  181.06</time>
   <energy>
    <i name="e_fr_energy">   -310.62343052 </i>
    <i name="e_wo_entrp">   -310.62343052 </i>
    <i name="e_0_energy">   -310.62343052 </i>
   </energy>
  </scstep>
  <scstep>
   <time name="total">  169.71  172.16</time>
   <energy>
    <i name="e_fr_energy">   -310.62345669 </i>
    <i name="e_wo_entrp">   -310.62345669 </i>
    <i name="e_0_energy">   -310.62345669 </i>
   </energy>
  </scstep>
  <scstep>
   <time name="total">  171.39  173.79</time>
   <energy>
    <i name="e_fr_energy">   -310.62344700 </i>
    <i name="e_wo_entrp">   -310.62344700 </i>
    <i name="e_0_energy">   -310.62344700 </i>
   </energy>
  </scstep>
  <kpoints>
[...]
     <r>     7.3006     0.0000     0.0000     0.0000     0.0000     0.0000     0.0000 </r>
     <r>     7.3106     0.0000     0.0000     0.0000     0.0000     0.0000     0.0000 </r>
    </set>
   </array>
  </conductivity>
  <dos>
   <i name="efermi">      2.31457879 </i>
   <total>
    <array>
     <dimension dim="1">gridpoints</dimension>
     <dimension dim="2">spin</dimension>
     <field>energy</field>
     <field>total</field>
     <field>integrated</field>
     <set>
      <set comment="spin 1">
       <r>   -11.0222     0.0000     0.0000 </r>
       <r>   -10.9599     0.0000     0.0000 </r>
       <r>   -10.8977     0.0000     0.0000 </r>
       <r>   -10.8354     0.0000     0.0000 </r>
       <r>   -10.7732     0.0000     0.0000 </r>
       <r>   -10.7109     0.0000     0.0000 </r>
       <r>   -10.6487     0.0000     0.0000 </r>
       <r>   -10.5864     0.0000     0.0000 </r>
       <r>   -10.5242     0.0000     0.0000 </r>
       <r>   -10.4619     0.0000     0.0000 </r>
       <r>   -10.3997     0.0000     0.0000 </r>
       <r>   -10.3374     0.0000     0.0000 </r>
       <r>   -10.2752     0.0000     0.0000 </r>
       <r>   -10.2129     0.0000     0.0000 </r>
       <r>   -10.1507     0.0000     0.0000 </r>
       <r>   -10.0884     0.0000     0.0000 </r>
       <r>   -10.0262     0.0000     0.0000 </r>
       <r>    -9.9639     3.7128     0.0950 </r>
       <r>    -9.9017     5.3445     0.3635 </r>
       <r>    -9.8394    10.2368     0.9008 </r>
       <r>    -9.7772     7.3322     1.3942 </r>
       <r>    -9.7149     6.6814     1.8226 </r>
       <r>    -9.6527    11.3649     2.3935 </r>
       <r>    -9.5904    16.8406     3.1202 </r>
       <r>    -9.5282    11.5344     3.9524 </r>
       <r>    -9.4659    12.3562     4.7145 </r>
       <r>    -9.4037    19.4840     5.7525 </r>
       <r>    -9.3414     9.8985     6.6690 </r>
       <r>    -9.2792    15.7736     7.5089 </r>
       <r>    -9.2169    14.3979     8.4264 </r>
       <r>    -9.1547    28.3721     9.9044 </r>
       <r>    -9.0925    30.8118    11.7100 </r>
       <r>    -9.0302     9.4639    12.7971 </r>
       <r>    -8.9680    48.5241    13.8086 </r>
       <r>    -8.9057    22.7921    15.4201 </r>
       <r>    -8.8435    18.9906    16.5656 </r>
       <r>    -8.7812    40.5266    18.7444 </r>
       <r>    -8.7190    27.5011    20.7208 </r>
       <r>    -8.6567    32.2670    22.6227 </r>
       <r>    -8.5945    37.7468    24.8421 </r>
       <r>    -8.5322    56.6948    27.5567 </r>
       <r>    -8.4700    56.6778    31.2065 </r>
       <r>    -8.4077   134.5612    34.5772 </r>
       <r>    -8.3455    63.7534    37.9756 </r>
       <r>    -8.2832    40.7772    40.8301 </r>
       <r>    -8.2210    51.5143    43.0990 </r>
       <r>    -8.1587    60.7498    46.4137 </r>
       <r>    -8.0965    66.7191    50.3472 </r>
       <r>    -8.0342    54.0537    53.3948 </r>
       <r>    -7.9720    74.3402    56.8421 </r>
       <r>    -7.9097    74.4680    61.7393 </r>
       <r>    -7.8475     7.7110    64.0000 </r>
       <r>    -7.7852     0.0000    64.0000 </r>
       <r>    -7.7230     0.0000    64.0000 </r>
       <r>    -7.6607     0.0000    64.0000 </r>
       <r>    -7.5985     0.0000    64.0000 </r>
       <r>    -7.5362     0.0000    64.0000 </r>
       <r>    -7.4740     0.0000    64.0000 </r>
       <r>    -7.4117     0.0000    64.0000 </r>
       <r>    -7.3495     0.0000    64.0000 </r>
       <r>    -7.2872     0.0000    64.0000 </r>
       <r>    -7.2250     0.0000    64.0000 </r>
       <r>    -7.1627     0.0000    64.0000 </r>
       <r>    -7.1005     0.0000    64.0000 </r>
       <r>    -7.0383     0.0000    64.0000 </r>
       <r>    -6.9760     0.0000    64.0000 </r>
       <r>    -6.9138     0.0000    64.0000 </r>
       <r>    -6.8515     0.0000    64.0000 </r>
       <r>    -6.7893     0.0000    64.0000 </r>
       <r>    -6.7270     0.0000    64.0000 </r>
       <r>    -6.6648     0.0000    64.0000 </r>
       <r>    -6.6025     0.0000    64.0000 </r>
       <r>    -6.5403     0.0000    64.0000 </r>
       <r>    -6.4780     0.0000    64.0000 </r>
       <r>    -6.4158     0.0000    64.0000 </r>
       <r>    -6.3535     0.0000    64.0000 </r>
       <r>    -6.2913     0.0000    64.0000 </r>
       <r>    -6.2290     0.0000    64.0000 </r>
       <r>    -6.1668     0.0000    64.0000 </r>
       <r>    -6.1045     0.0000    64.0000 </r>
       <r>    -6.0423     0.0000    64.0000 </r>
       <r>    -5.9800     0.0000    64.0000 </r>
       <r>    -5.9178     0.0000    64.0000 </r>
       <r>    -5.8555     0.0000    64.0000 </r>
       <r>    -5.7933     0.0000    64.0000 </r>
       <r>    -5.7310     0.0000    64.0000 </r>
       <r>    -5.6688     0.0000    64.0000 </r>
       <r>    -5.6065     0.0000    64.0000 </r>
       <r>    -5.5443     0.0000    64.0000 </r>
       <r>    -5.4820     0.0000    64.0000 </r>
       <r>    -5.4198     0.0000    64.0000 </r>
       <r>    -5.3575     0.0000    64.0000 </r>
       <r>    -5.2953     0.0000    64.0000 </r>
       <r>    -5.2330     0.0000    64.0000 </r>
       <r>    -5.1708     0.0000    64.0000 </r>
       <r>    -5.1085     0.0000    64.0000 </r>
       <r>    -5.0463     0.0000    64.0000 </r>
       <r>    -4.9841     0.0000    64.0000 </r>
       <r>    -4.9218     0.0000    64.0000 </r>
       <r>    -4.8596     0.0000    64.0000 </r>
       <r>    -4.7973     0.0000    64.0000 </r>
       <r>    -4.7351     0.0000    64.0000 </r>
       <r>    -4.6728     0.0000    64.0000 </r>
       <r>    -4.6106     0.0000    64.0000 </r>
       <r>    -4.5483     0.0000    64.0000 </r>
       <r>    -4.4861     0.0000    64.0000 </r>
       <r>    -4.4238     0.0000    64.0000 </r>
       <r>    -4.3616     0.0000    64.0000 </r>
       <r>    -4.2993     0.0000    64.0000 </r>
       <r>    -4.2371     2.9325    64.0300 </r>
       <r>    -4.1748    13.2641    64.4911 </r>
       <r>    -4.1126    28.2323    65.6397 </r>
       <r>    -4.0503    69.8239    68.9819 </r>
       <r>    -3.9881    76.4060    72.8760 </r>
       <r>    -3.9258   119.2037    78.0662 </r>
       <r>    -3.8636   108.4132    84.6146 </r>
       <r>    -3.8013    52.5792    87.8011 </r>
       <r>    -3.7391   118.3425    92.8246 </r>
       <r>    -3.6768    19.6398    94.4965 </r>
       <r>    -3.6146    19.3780    95.5632 </r>
       <r>    -3.5523    54.2102    97.6355 </r>
       <r>    -3.4901    30.0552    99.9165 </r>
       <r>    -3.4278    19.8107   101.4033 </r>
       <r>    -3.3656    14.7635   102.3814 </r>
       <r>    -3.3033    31.4197   103.5780 </r>
       <r>    -3.2411    30.3538   106.3776 </r>
       <r>    -3.1788    15.5447   107.3222 </r>
       <r>    -3.1166    11.3311   108.1636 </r>
       <r>    -3.0544     7.5335   108.7248 </r>
       <r>    -2.9921    11.9160   109.3104 </r>
       <r>    -2.9299    12.4023   110.0980 </r>
       <r>    -2.8676    17.7502   111.0717 </r>
       <r>    -2.8054    14.0275   111.9973 </r>
       <r>    -2.7431    13.3829   112.8555 </r>
       <r>    -2.6809    12.9120   113.6646 </r>
       <r>    -2.6186    13.1011   114.4709 </r>
       <r>    -2.5564    12.2450   115.2533 </r>
       <r>    -2.4941     6.3586   115.8347 </r>
       <r>    -2.4319     6.3539   116.2031 </r>
       <r>    -2.3696     7.1416   116.6186 </r>
       <r>    -2.3074     8.1730   117.0940 </r>
       <r>    -2.2451    11.7217   117.6885 </r>
       <r>    -2.1829    10.8139   118.3913 </r>
       <r>    -2.1206     7.1579   119.0027 </r>
       <r>    -2.0584     8.0759   119.4794 </r>
       <r>    -1.9961     6.2249   119.9571 </r>
       <r>    -1.9339     4.8141   120.2274 </r>
       <r>    -1.8716     4.1978   120.5114 </r>
       <r>    -1.8094     3.6975   120.7538 </r>
       <r>    -1.7471     3.7801   120.9843 </r>
       <r>    -1.6849     4.0244   121.2270 </r>
       <r>    -1.6226     7.7424   121.5908 </r>
       <r>    -1.5604     9.7557   122.1775 </r>
       <r>    -1.4981     8.4700   122.7839 </r>
       <r>    -1.4359     6.9850   123.2405 </r>
       <r>    -1.3736     6.8982   123.6448 </r>
       <r>    -1.3114    15.0326   124.2199 </r>
       <r>    -1.2491    28.4228   125.6392 </r>
       <r>    -1.1869    47.8198   127.8127 </r>
       <r>    -1.1246    44.5166   130.7819 </r>
       <r>    -1.0624    44.5561   133.4842 </r>
       <r>    -1.0002    50.3525   136.7526 </r>
       <r>    -0.9379    37.8523   139.4056 </r>
       <r>    -0.8757    42.0342   141.8930 </r>
       <r>    -0.8134    35.6510   144.0033 </r>
       <r>    -0.7512    24.5873   146.1579 </r>
       <r>    -0.6889    33.2374   147.8792 </r>
       <r>    -0.6267    27.8247   149.8524 </r>
       <r>    -0.5644    46.6898   152.3730 </r>
       <r>    -0.5022    45.7493   154.8402 </r>
       <r>    -0.4399    46.0838   157.4019 </r>
       <r>    -0.3777    50.6237   160.4228 </r>
       <r>    -0.3154    50.3288   163.5408 </r>
       <r>    -0.2532    47.7393   166.6504 </r>
       <r>    -0.1909    44.9499   169.5191 </r>
       <r>    -0.1287    54.9607   172.4627 </r>
       <r>    -0.0664    61.2204   176.1112 </r>
       <r>    -0.0042    45.5817   179.5181 </r>
       <r>     0.0581    54.8789   182.9855 </r>
       <r>     0.1203    51.9219   185.8906 </r>
       <r>     0.1826    55.5387   189.2943 </r>
       <r>     0.2448    49.5840   192.5711 </r>
       <r>     0.3071    43.9224   194.8623 </r>
       <r>     0.3693    41.4858   197.7454 </r>
       <r>     0.4316    64.2576   201.2757 </r>
       <r>     0.4938    68.3276   204.5591 </r>
       <r>     0.5561    75.3883   208.3037 </r>
       <r>     0.6183    39.3674   211.3752 </r>
       <r>     0.6806    51.8346   214.0198 </r>
       <r>     0.7428    57.2098   217.1076 </r>
       <r>     0.8051    43.0597   220.0172 </r>
       <r>     0.8673    61.0050   222.5977 </r>
       <r>     0.9296    42.7309   225.6721 </r>
       <r>     0.9918    35.4083   228.0019 </r>
       <r>     1.0540    44.2823   230.3742 </r>
       <r>     1.1163    46.0513   233.1892 </r>
       <r>     1.1785    40.9526   235.9807 </r>
       <r>     1.2408    54.3674   239.0717 </r>
       <r>     1.3030    42.5859   242.0124 </r>
       <r>     1.3653    25.1099   243.9431 </r>
       <r>     1.4275    19.0508   245.2619 </r>
       <r>     1.4898    23.4477   246.7310 </r>
       <r>     1.5520    22.3105   248.0758 </r>
       <r>     1.6143    19.7710   249.4592 </r>
       <r>     1.6765    11.6925   250.3484 </r>
       <r>     1.7388    13.0602   251.0653 </r>
       <r>     1.8010    12.8561   251.9234 </r>
       <r>     1.8633    20.2269   253.1783 </r>
       <r>     1.9255     5.8648   253.6617 </r>
       <r>     1.9878    11.7482   254.1380 </r>
       <r>     2.0500    11.6215   254.9992 </r>
       <r>     2.1123     5.6189   255.5708 </r>
       <r>     2.1745     3.3864   255.8118 </r>
       <r>     2.2368     0.8893   255.9883 </r>
       <r>     2.2990     0.0000   256.0000 </r>
       <r>     2.3613     0.0000   256.0000 </r>
       <r>     2.4235     0.0000   256.0000 </r>
       <r>     2.4858     0.0016   256.0000 </r>
       <r>     2.5480     0.0056   256.0003 </r>
       <r>     2.6103     0.0119   256.0008 </r>
       <r>     2.6725     0.0206   256.0018 </r>
       <r>     2.7348     0.0316   256.0034 </r>
       <r>     2.7970     0.0450   256.0058 </r>
       <r>     2.8593     0.0607   256.0090 </r>
       <r>     2.9215     0.0788   256.0134 </r>
       <r>     2.9837     0.0993   256.0189 </r>
       <r>     3.0460     0.1221   256.0258 </r>
       <r>     3.1082     0.1473   256.0342 </r>
       <r>     3.1705     0.1826   256.0442 </r>
       <r>     3.2327     0.5613   256.0627 </r>
       <r>     3.2950     1.3607   256.1227 </r>
       <r>     3.3572     2.1222   256.2313 </r>
       <r>     3.4195     2.8768   256.3862 </r>
       <r>     3.4817     6.3877   256.7297 </r>
       <r>     3.5440     6.9497   257.0959 </r>
       <r>     3.6062     8.5129   257.5939 </r>
       <r>     3.6685     6.8664   258.0356 </r>
       <r>     3.7307     8.4479   258.5261 </r>
       <r>     3.7930    11.2010   259.1470 </r>
       <r>     3.8552    13.7504   259.8955 </r>
       <r>     3.9175    23.4819   261.2847 </r>
       <r>     3.9797    30.5040   262.5137 </r>
       <r>     4.0420    34.0311   264.5286 </r>
       <r>     4.1042    26.9009   266.5971 </r>
       <r>     4.1665    20.2730   267.8507 </r>
       <r>     4.2287    25.6306   269.2154 </r>
       <r>     4.2910    32.7699   270.9904 </r>
       <r>     4.3532    54.0440   273.8146 </r>
       <r>     4.4155    39.7579   276.5731 </r>
       <r>     4.4777    53.4708   278.9825 </r>
       <r>     4.5400    63.5374   282.2327 </r>
       <r>     4.6022    51.0399   285.8803 </r>
       <r>     4.6645    77.7220   289.7129 </r>
       <r>     4.7267    96.2025   293.9270 </r>
       <r>     4.7890    69.1837   298.1534 </r>
       <r>     4.8512    40.9768   301.6791 </r>
       <r>     4.9135    38.6382   304.1814 </r>
       <r>     4.9757    38.6176   306.7179 </r>
       <r>     5.0379    40.7559   308.9844 </r>
       <r>     5.1002    37.1408   311.5752 </r>
       <r>     5.1624    31.0632   313.5671 </r>
       <r>     5.2247    33.8760   315.5602 </r>
       <r>     5.2869    28.6565   317.7286 </r>
       <r>     5.3492    18.1265   318.9115 </r>
       <r>     5.4114    35.6768   320.5824 </r>
       <r>     5.4737    32.0415   322.6800 </r>
       <r>     5.5359    24.0814   324.4763 </r>
       <r>     5.5982    39.8153   326.4225 </r>
       <r>     5.6604    18.2945   327.8452 </r>
       <r>     5.7227    19.2556   329.0112 </r>
       <r>     5.7849    22.5158   330.3176 </r>
       <r>     5.8472    19.4318   331.6621 </r>
       <r>     5.9094    15.2207   332.6960 </r>
       <r>     5.9717    12.4708   333.5573 </r>
       <r>     6.0339    10.2172   334.2603 </r>
       <r>     6.0962     8.4084   334.8359 </r>
       <r>     6.1584     6.3673   335.3267 </r>
       <r>     6.2207     3.3198   335.6221 </r>
       <r>     6.2829     1.8701   335.7716 </r>
       <r>     6.3452     1.2273   335.8598 </r>
       <r>     6.4074     0.8895   335.9254 </r>
       <r>     6.4697     0.5856   335.9959 </r>
       <r>     6.5319     0.0290   335.9989 </r>
       <r>     6.5942     0.0055   335.9999 </r>
       <r>     6.6564     0.0000   336.0000 </r>
       <r>     6.7187     0.0000   336.0000 </r>
       <r>     6.7809     0.0000   336.0000 </r>
       <r>     6.8432     0.0000   336.0000 </r>
       <r>     6.9054     0.0000   336.0000 </r>
       <r>     6.9677     0.0000   336.0000 </r>
       <r>     7.0299     0.0000   336.0000 </r>
       <r>     7.0921     0.0000   336.0000 </r>
       <r>     7.1544     0.0000   336.0000 </r>
       <r>     7.2166     0.0000   336.0000 </r>
       <r>     7.2789     0.0000   336.0000 </r>
       <r>     7.3411     0.0000   336.0000 </r>
       <r>     7.4034     0.0000   336.0000 </r>
       <r>     7.4656     0.0000   336.0000 </r>
       <r>     7.5279     0.0000   336.0000 </r>
       <r>     7.5901     0.0000   336.0000 </r>
       <r>     7.6524     0.0000   336.0000 </r>
      </set>
     </set>
    </array>
   </total>
  </dos>
 </calculation>
 <structure name="finalpos" >
  <crystal>
   <varray name="basis" >
    <v>      11.56714363       0.00000000       0.00000000 </v>
    <v>       0.00000000      11.51429326       0.00000000 </v>
    <v>       0.00000000       0.00000000      11.51429326 </v>
   </varray>
   <i name="volume">   1533.55974787 </i>
   <varray name="rec_basis" >
    <v>       0.08645177       0.00000000       0.00000000 </v>
    <v>       0.00000000       0.08684858       0.00000000 </v>
    <v>       0.00000000       0.00000000       0.08684858 </v>
   </varray>
  </crystal>
  <varray name="positions" >
   <v>       0.00000000       0.00000000       0.00000000 </v>
   <v>       0.00000000       0.00000000       0.50000000 </v>
   <v>       0.00000000       0.50000000       0.00000000 </v>
   <v>       0.00000000       0.50000000       0.50000000 </v>
   <v>       0.50000000       0.00000000       0.00000000 </v>
   <v>       0.50000000       0.00000000       0.50000000 </v>
   <v>       0.50000000       0.50000000       0.00000000 </v>
   <v>       0.50000000       0.50000000       0.50000000 </v>
   <v>       0.25000000       0.25000000       0.00000000 </v>
   <v>       0.25000000       0.25000000       0.50000000 </v>
   <v>       0.25000000       0.75000000       0.00000000 </v>
   <v>       0.25000000       0.75000000       0.50000000 </v>
   <v>       0.75000000       0.25000000       0.00000000 </v>
   <v>       0.75000000       0.25000000       0.50000000 </v>
   <v>       0.75000000       0.75000000       0.00000000 </v>
   <v>       0.75000000       0.75000000       0.50000000 </v>
   <v>       0.25000000       0.00000000       0.25000000 </v>
   <v>       0.25000000       0.00000000       0.75000000 </v>
   <v>       0.25000000       0.50000000       0.25000000 </v>
   <v>       0.25000000       0.50000000       0.75000000 </v>
   <v>       0.75000000       0.00000000       0.25000000 </v>
   <v>       0.75000000       0.00000000       0.75000000 </v>
   <v>       0.75000000       0.50000000       0.25000000 </v>
   <v>       0.75000000       0.50000000       0.75000000 </v>
   <v>       0.00000000       0.25000000       0.25000000 </v>
   <v>       0.00000000       0.25000000       0.75000000 </v>
   <v>       0.00000000       0.75000000       0.25000000 </v>
   <v>       0.00000000       0.75000000       0.75000000 </v>
   <v>       0.50000000       0.25000000       0.25000000 </v>
   <v>       0.50000000       0.25000000       0.75000000 </v>
   <v>       0.50000000       0.75000000       0.25000000 </v>
   <v>       0.50000000       0.75000000       0.75000000 </v>
   <v>       0.12500000       0.12500000       0.12500000 </v>
   <v>       0.12500000       0.12500000       0.62500000 </v>
   <v>       0.12500000       0.62500000       0.12500000 </v>
   <v>       0.12500000       0.62500000       0.62500000 </v>
   <v>       0.62500000       0.12500000       0.12500000 </v>
   <v>       0.62500000       0.12500000       0.62500000 </v>
   <v>       0.62500000       0.62500000       0.12500000 </v>
   <v>       0.62500000       0.62500000       0.62500000 </v>
   <v>       0.37500000       0.12500000       0.37500000 </v>
   <v>       0.37500000       0.12500000       0.87500000 </v>
   <v>       0.37500000       0.62500000       0.37500000 </v>
   <v>       0.37500000       0.62500000       0.87500000 </v>
   <v>       0.87500000       0.12500000       0.37500000 </v>
   <v>       0.87500000       0.12500000       0.87500000 </v>
   <v>       0.87500000       0.62500000       0.37500000 </v>
   <v>       0.87500000       0.62500000       0.87500000 </v>
   <v>       0.37500000       0.37500000       0.12500000 </v>
   <v>       0.37500000       0.37500000       0.62500000 </v>
   <v>       0.37500000       0.87500000       0.12500000 </v>
   <v>       0.37500000       0.87500000       0.62500000 </v>
   <v>       0.87500000       0.37500000       0.12500000 </v>
   <v>       0.87500000       0.37500000       0.62500000 </v>
   <v>       0.87500000       0.87500000       0.12500000 </v>
   <v>       0.87500000       0.87500000       0.62500000 </v>
   <v>       0.12500000       0.37500000       0.37500000 </v>
   <v>       0.12500000       0.37500000       0.87500000 </v>
   <v>       0.12500000       0.87500000       0.37500000 </v>
   <v>       0.12500000       0.87500000       0.87500000 </v>
   <v>       0.62500000       0.37500000       0.37500000 </v>
   <v>       0.62500000       0.37500000       0.87500000 </v>
   <v>       0.62500000       0.87500000       0.37500000 </v>
   <v>       0.62500000       0.87500000       0.87500000 </v>
  </varray>
 </structure>
</modeling>
