 vasp.6.4.3 19Mar24 (build Aug 29 2024 15:27:20) complex                        
  
 executed on             LinuxIFC date 2025.03.24  12:04:36
 running    8 mpi-ranks, on    1 nodes
 distrk:  each k-point on    8 cores,    1 groups
 distr:  one band on NCORE=   1 cores,    8 groups


--------------------------------------------------------------------------------------------------------


 INCAR:
   SYSTEM = GaAs
   PREC = Normal
   ENCUT = 400
   ISMEAR = -5
   SIGMA = 0.1
   IBRION = 2
   POTIM = 0.1
   NFREE = 2
   NSW = 100
   ISIF = 2
   LEPSILON = .TRUE.
   LOPTICS = .TRUE.

 POTCAR:    PAW_PBE As 22Sep2009                  
 POTCAR:    PAW_PBE Ga 08Apr2002                  
 -----------------------------------------------------------------------------
|                                                                             |
|           W    W    AA    RRRRR   N    N  II  N    N   GGGG   !!!           |
|           W    W   A  A   R    R  NN   N  II  NN   N  G    G  !!!           |
|           W    W  A    A  R    R  N N  N  II  N N  N  G       !!!           |
|           W WW W  AAAAAA  RRRRR   N  N N  II  N  N N  G  GGG   !            |
|           WW  WW  A    A  R   R   N   NN  II  N   NN  G    G                |
|           W    W  A    A  R    R  N    N  II  N    N   GGGG   !!!           |
|                                                                             |
|     For optimal performance we recommend to set                             |
|       NCORE = 2 up to number-of-cores-per-socket                            |
|     NCORE specifies how many cores store one orbital (NPAR=cpu/NCORE).      |
|     This setting can greatly improve the performance of VASP for DFT.       |
|     The default, NCORE=1 might be grossly inefficient on modern             |
|     multi-core architectures or massively parallel machines. Do your        |
|     own testing! More info at https://www.vasp.at/wiki/index.php/NCORE      |
|     Unfortunately you need to use the default for GW and RPA                |
|     calculations (for HF NCORE is supported but not extensively tested      |
|     yet).                                                                   |
|                                                                             |
 -----------------------------------------------------------------------------

 POTCAR:    PAW_PBE As 22Sep2009                  
   VRHFIN =As: s2p3                                                                                 
   LEXCH  = PE                                                                                      
   EATOM  =   170.1867 eV,   12.5084 Ry                                                             
                                                                                                    
   TITEL  = PAW_PBE As 22Sep2009                                                                    
   LULTRA =        F    use ultrasoft PP ?                                                          
   IUNSCR =        1    unscreen: 0-lin 1-nonlin 2-no                                               
   RPACOR =    1.900    partial core radius                                                         
   POMASS =   74.922; ZVAL   =    5.000    mass and valenz                                          
   RCORE  =    2.100    outmost cutoff radius                                                       
   RWIGS  =    2.300; RWIGS  =    1.217    wigner-seitz radius (au A)                               
   ENMAX  =  208.702; ENMIN  =  156.526 eV                                                          
   ICORE  =        3    local potential                                                             
   LCOR   =        T    correct aug charges                                                         
   LPAW   =        T    paw PP                                                                      
   EAUG   =  462.758                                                                                
   DEXC   =    0.000                                                                                
   RMAX   =    2.144    core radius for proj-oper                                                   
   RAUG   =    1.300    factor for augmentation sphere                                              
   RDEP   =    2.140    radius for radial grids                                                     
   RDEPT  =    1.956    core radius for aug-charge                                                  
                                                                                                    
   Atomic configuration                                                                             
   10 entries                                                                                       
     n  l   j            E        occ.                                                              
     1  0  0.50    -11718.0418   2.0000                                                             
     2  0  0.50     -1486.5454   2.0000                                                             
     2  1  1.50     -1303.3889   6.0000                                                             
     3  0  0.50      -190.2849   2.0000                                                             
     3  1  1.50      -133.6555   6.0000                                                             
     3  2  2.50       -40.6443  10.0000                                                             
     4  0  0.50       -14.4936   2.0000                                                             
     4  1  0.50        -5.1947   3.0000                                                             
     4  2  1.50        -5.4423   0.0000                                                             
     4  3  2.50        -5.4423   0.0000                                                             
   Description                                                                                      
     l       E           TYP  RCUT    TYP  RCUT                                                     
     0    -14.4935570     23  2.100                                                                 
     0    -11.9212055     23  2.100                                                                 
     1     -5.1947127     23  2.100                                                                 
     1     27.2116520     23  2.100                                                                 
     2     -5.4423304     23  2.100                                                                 
     3     -1.3605826      7  2.100                                                                 
  local pseudopotential read in
  partial core-charges read in
  partial kinetic energy density read in
  atomic valenz-charges read in
  non local Contribution for L=           0  read in
    real space projection operators read in
  non local Contribution for L=           0  read in
    real space projection operators read in
  non local Contribution for L=           1  read in
    real space projection operators read in
  non local Contribution for L=           1  read in
    real space projection operators read in
  non local Contribution for L=           2  read in
    real space projection operators read in
    PAW grid and wavefunctions read in
 
   number of l-projection  operators is LMAX  =           5
   number of lm-projection operators is LMMAX =          13
 
 POTCAR:    PAW_PBE Ga 08Apr2002                  
   VRHFIN =Ga: s2p1                                                                                 
   LEXCH  = PE                                                                                      
   EATOM  =    58.8688 eV,    4.3267 Ry                                                             
                                                                                                    
   TITEL  = PAW_PBE Ga 08Apr2002                                                                    
   LULTRA =        F    use ultrasoft PP ?                                                          
   IUNSCR =        1    unscreen: 0-lin 1-nonlin 2-no                                               
   RPACOR =    2.170    partial core radius                                                         
   POMASS =   69.723; ZVAL   =    3.000    mass and valenz                                          
   RCORE  =    2.600    outmost cutoff radius                                                       
   RWIGS  =    2.650; RWIGS  =    1.402    wigner-seitz radius (au A)                               
   ENMAX  =  134.678; ENMIN  =  101.009 eV                                                          
   ICORE  =        3    local potential                                                             
   LCOR   =        T    correct aug charges                                                         
   LPAW   =        T    paw PP                                                                      
   EAUG   =  320.264                                                                                
   DEXC   =    0.000                                                                                
   RMAX   =    2.658    core radius for proj-oper                                                   
   RAUG   =    1.300    factor for augmentation sphere                                              
   RDEP   =    2.684    radius for radial grids                                                     
   RDEPT  =    2.308    core radius for aug-charge                                                  
                                                                                                    
   Atomic configuration                                                                             
   10 entries                                                                                       
     n  l   j            E        occ.                                                              
     1  0  0.50    -10228.7830   2.0000                                                             
     2  0  0.50     -1262.1604   2.0000                                                             
     2  1  1.50     -1098.6333   6.0000                                                             
     3  0  0.50      -148.1110   2.0000                                                             
     3  1  1.50       -98.8436   6.0000                                                             
     3  2  2.50       -19.1549  10.0000                                                             
     4  0  0.50        -8.9483   2.0000                                                             
     4  1  0.50        -2.5791   1.0000                                                             
     4  2  1.50         5.4423   0.0000                                                             
     4  3  2.50        -2.7416   0.0000                                                             
   Description                                                                                      
     l       E           TYP  RCUT    TYP  RCUT                                                     
     0     -8.9483097     23  2.600                                                                 
     0     -5.8232215     23  2.600                                                                 
     1     -2.5790793     23  2.600                                                                 
     1      5.2230115     23  2.600                                                                 
     2      1.3605826     23  2.600                                                                 
     3     -1.3605826      7  2.600                                                                 
  local pseudopotential read in
  partial core-charges read in
  partial kinetic energy density read in
  atomic valenz-charges read in
  non local Contribution for L=           0  read in
    real space projection operators read in
  non local Contribution for L=           0  read in
    real space projection operators read in
  non local Contribution for L=           1  read in
    real space projection operators read in
  non local Contribution for L=           1  read in
    real space projection operators read in
  non local Contribution for L=           2  read in
    real space projection operators read in
    PAW grid and wavefunctions read in
 
   number of l-projection  operators is LMAX  =           5
   number of lm-projection operators is LMMAX =          13
 
 -----------------------------------------------------------------------------
|                                                                             |
|               ----> ADVICE to this user running VASP <----                  |
|                                                                             |
|     You have a (more or less) 'large supercell' and for larger cells it     |
|     might be more efficient to use real-space projection operators.         |
|     Therefore, try LREAL= Auto in the INCAR file.                           |
|     Mind: For very accurate calculation, you might also keep the            |
|     reciprocal projection scheme (i.e. LREAL=.FALSE.).                      |
|                                                                             |
 -----------------------------------------------------------------------------

  PAW_PBE As 22Sep2009                  :
 energy of atom  1       EATOM= -170.1867
 kinetic energy error for atom=    0.0013 (will be added to EATOM!!)
  PAW_PBE Ga 08Apr2002                  :
 energy of atom  2       EATOM=  -58.8688
 kinetic energy error for atom=    0.0001 (will be added to EATOM!!)
 
 
 POSCAR: cubic gallium arsenide
  positions in direct lattice
  velocities in cartesian coordinates


 exchange-correlation table for PE
   RHO(1)=    0.500       N(1)  =     2000
   RHO(2)=  100.500       N(2)  =     4000
 


--------------------------------------------------------------------------------------------------------


 ion  position               nearest neighbor table
   1  0.000  0.000  0.000-  33 2.50  46 2.50  55 2.50  60 2.50
   2  0.000  0.000  0.500-  34 2.50  45 2.50  56 2.50  59 2.50
   3  0.000  0.500  0.000-  35 2.50  48 2.50  53 2.50  58 2.50
   4  0.000  0.500  0.500-  36 2.50  47 2.50  54 2.50  57 2.50
   5  0.500  0.000  0.000-  37 2.50  42 2.50  51 2.50  64 2.50
   6  0.500  0.000  0.500-  38 2.50  41 2.50  52 2.50  63 2.50
   7  0.500  0.500  0.000-  39 2.50  44 2.50  49 2.50  62 2.50
   8  0.500  0.500  0.500-  40 2.50  43 2.50  50 2.50  61 2.50
   9  0.250  0.250  0.000-  33 2.50  42 2.50  49 2.50  58 2.50
  10  0.250  0.250  0.500-  34 2.50  41 2.50  50 2.50  57 2.50
  11  0.250  0.750  0.000-  35 2.50  44 2.50  51 2.50  60 2.50
  12  0.250  0.750  0.500-  36 2.50  43 2.50  52 2.50  59 2.50
  13  0.750  0.250  0.000-  37 2.50  46 2.50  53 2.50  62 2.50
  14  0.750  0.250  0.500-  38 2.50  45 2.50  54 2.50  61 2.50
  15  0.750  0.750  0.000-  39 2.50  48 2.50  55 2.50  64 2.50
  16  0.750  0.750  0.500-  40 2.50  47 2.50  56 2.50  63 2.50
  17  0.250  0.000  0.250-  33 2.50  41 2.50  51 2.50  59 2.50
  18  0.250  0.000  0.750-  34 2.50  42 2.50  52 2.50  60 2.50
  19  0.250  0.500  0.250-  35 2.50  43 2.50  49 2.50  57 2.50
  20  0.250  0.500  0.750-  36 2.50  44 2.50  50 2.50  58 2.50
  21  0.750  0.000  0.250-  37 2.50  45 2.50  55 2.50  63 2.50
  22  0.750  0.000  0.750-  38 2.50  46 2.50  56 2.50  64 2.50
  23  0.750  0.500  0.250-  39 2.50  47 2.50  53 2.50  61 2.50
  24  0.750  0.500  0.750-  40 2.50  48 2.50  54 2.50  62 2.50
  25  0.000  0.250  0.250-  33 2.50  45 2.50  53 2.50  57 2.50
  26  0.000  0.250  0.750-  34 2.50  46 2.50  54 2.50  58 2.50
  27  0.000  0.750  0.250-  35 2.50  47 2.50  55 2.50  59 2.50
  28  0.000  0.750  0.750-  36 2.50  48 2.50  56 2.50  60 2.50
  29  0.500  0.250  0.250-  37 2.50  41 2.50  49 2.50  61 2.50
  30  0.500  0.250  0.750-  38 2.50  42 2.50  50 2.50  62 2.50
  31  0.500  0.750  0.250-  39 2.50  43 2.50  51 2.50  63 2.50
  32  0.500  0.750  0.750-  40 2.50  44 2.50  52 2.50  64 2.50
  33  0.125  0.125  0.125-   1 2.50   9 2.50  17 2.50  25 2.50
  34  0.125  0.125  0.625-   2 2.50  10 2.50  18 2.50  26 2.50
  35  0.125  0.625  0.125-   3 2.50  11 2.50  19 2.50  27 2.50
  36  0.125  0.625  0.625-   4 2.50  12 2.50  20 2.50  28 2.50
  37  0.625  0.125  0.125-   5 2.50  13 2.50  21 2.50  29 2.50
  38  0.625  0.125  0.625-   6 2.50  14 2.50  22 2.50  30 2.50
  39  0.625  0.625  0.125-   7 2.50  15 2.50  23 2.50  31 2.50
  40  0.625  0.625  0.625-   8 2.50  16 2.50  24 2.50  32 2.50
  41  0.375  0.125  0.375-   6 2.50  10 2.50  17 2.50  29 2.50
  42  0.375  0.125  0.875-   5 2.50   9 2.50  18 2.50  30 2.50
  43  0.375  0.625  0.375-   8 2.50  12 2.50  19 2.50  31 2.50
  44  0.375  0.625  0.875-   7 2.50  11 2.50  20 2.50  32 2.50
  45  0.875  0.125  0.375-   2 2.50  14 2.50  21 2.50  25 2.50
  46  0.875  0.125  0.875-   1 2.50  13 2.50  22 2.50  26 2.50
  47  0.875  0.625  0.375-   4 2.50  16 2.50  23 2.50  27 2.50
  48  0.875  0.625  0.875-   3 2.50  15 2.50  24 2.50  28 2.50
  49  0.375  0.375  0.125-   7 2.50   9 2.50  19 2.50  29 2.50
  50  0.375  0.375  0.625-   8 2.50  10 2.50  20 2.50  30 2.50
  51  0.375  0.875  0.125-   5 2.50  11 2.50  17 2.50  31 2.50
  52  0.375  0.875  0.625-   6 2.50  12 2.50  18 2.50  32 2.50
  53  0.875  0.375  0.125-   3 2.50  13 2.50  23 2.50  25 2.50
  54  0.875  0.375  0.625-   4 2.50  14 2.50  24 2.50  26 2.50
  55  0.875  0.875  0.125-   1 2.50  15 2.50  21 2.50  27 2.50
  56  0.875  0.875  0.625-   2 2.50  16 2.50  22 2.50  28 2.50
  57  0.125  0.375  0.375-   4 2.50  10 2.50  19 2.50  25 2.50
  58  0.125  0.375  0.875-   3 2.50   9 2.50  20 2.50  26 2.50
  59  0.125  0.875  0.375-   2 2.50  12 2.50  17 2.50  27 2.50
  60  0.125  0.875  0.875-   1 2.50  11 2.50  18 2.50  28 2.50
  61  0.625  0.375  0.375-   8 2.50  14 2.50  23 2.50  29 2.50
  62  0.625  0.375  0.875-   7 2.50  13 2.50  24 2.50  30 2.50
  63  0.625  0.875  0.375-   6 2.50  16 2.50  21 2.50  31 2.50
  64  0.625  0.875  0.875-   5 2.50  15 2.50  22 2.50  32 2.50
 
  LATTYP: Found a simple tetragonal cell.
 ALAT       =    11.5000000240
 C/A-ratio  =     1.0098478964
  
  Lattice vectors:
  
 A1 = (   0.0000000000,  11.5000000240,   0.0000000000)
 A2 = (   0.0000000000,   0.0000000000,  11.5000000240)
 A3 = (  11.6132508323,   0.0000000000,   0.0000000000)


Analysis of symmetry for initial positions (statically):
=====================================================================
 Subroutine PRICEL returns following result:
 
  LATTYP: Found a body centered tetragonal cell.
 ALAT       =     4.0658640003
 C/A-ratio  =     1.4281405910
  
  Lattice vectors:
  
 A1 = (   2.9033127081,   0.0000000000,   2.8750000060)
 A2 = (   2.9033127081,   0.0000000000,  -2.8750000060)
 A3 = (  -2.9033127081,   2.8750000060,   0.0000000000)
 
  32 primitive cells build up your supercell.
 

 Routine SETGRP: Setting up the symmetry group for a 
 simple tetragonal supercell.


 Subroutine GETGRP returns: Found  8 space group operations
 (whereof  8 operations were pure point group operations)
 out of a pool of 16 trial point group operations.


The static configuration has the point symmetry D_2d.


Analysis of symmetry for dynamics (positions and initial velocities):
=====================================================================
 Subroutine PRICEL returns following result:
 
  LATTYP: Found a body centered tetragonal cell.
 ALAT       =     4.0658640003
 C/A-ratio  =     1.4281405910
  
  Lattice vectors:
  
 A1 = (   2.9033127081,   0.0000000000,   2.8750000060)
 A2 = (   2.9033127081,   0.0000000000,  -2.8750000060)
 A3 = (  -2.9033127081,   2.8750000060,   0.0000000000)
 
  32 primitive cells build up your supercell.
 

 Routine SETGRP: Setting up the symmetry group for a 
 simple tetragonal supercell.


 Subroutine GETGRP returns: Found  8 space group operations
 (whereof  8 operations were pure point group operations)
 out of a pool of 16 trial point group operations.


The dynamic configuration has the point symmetry D_2d.


 Subroutine INISYM returns: Found  8 space group operations
 (whereof  8 operations are pure point group operations),
 and found    32 'primitive' translations


----------------------------------------------------------------------------------------

                                     Primitive cell                                     

  volume of cell :      47.9954

  direct lattice vectors                    reciprocal lattice vectors
     2.903312708  0.000000000  2.875000006     0.172217067  0.173913043  0.173913043
     2.903312708  0.000000000 -2.875000006     0.172217067  0.173913043 -0.173913043
    -2.903312708  2.875000006  0.000000000     0.000000000  0.347826086  0.000000000

  length of vectors
     4.085933151  4.085933151  4.085933151     0.300250248  0.300250248  0.347826086

  position of ions in fractional coordinates (direct lattice)
     0.000000000  0.000000000  0.000000000
     0.750000000  0.250000000  0.500000000

  ion indices of the primitive-cell ions
   primitive index   ion index
                 1           1
                 2          33

----------------------------------------------------------------------------------------

 
 
 KPOINTS: Automatic mesh                          

Automatic generation of k-mesh.
 Grid dimensions read from file:
 generate k-points for:    5    5    5

 Generating k-lattice:

  Cartesian coordinates                     Fractional coordinates (reciprocal lattice)
     0.017221707  0.000000000  0.000000000     0.200000000  0.000000000  0.000000000
     0.000000000  0.017391304  0.000000000     0.000000000  0.200000000  0.000000000
     0.000000000  0.000000000  0.017391304     0.000000000  0.000000000  0.200000000

  Length of vectors
     0.017221707  0.017391304  0.017391304

  Shift w.r.t. Gamma in fractional coordinates (k-lattice)
     0.000000000  0.000000000  0.000000000

 TETIRR: Found    177 inequivalent tetrahedra from      750
 
 Subroutine IBZKPT returns following result:
 ===========================================
 
 Found     18 irreducible k-points:
 
 Following reciprocal coordinates:
            Coordinates               Weight
  0.000000  0.000000  0.000000      1.000000
  0.200000  0.000000  0.000000      2.000000
  0.400000  0.000000  0.000000      2.000000
  0.000000  0.200000  0.000000      4.000000
  0.200000  0.200000  0.000000      8.000000
  0.400000  0.200000  0.000000      8.000000
  0.000000  0.400000  0.000000      4.000000
  0.200000  0.400000  0.000000      8.000000
  0.400000  0.400000  0.000000      8.000000
  0.000000  0.200000  0.200000      4.000000
  0.200000  0.200000  0.200000      8.000000
  0.400000  0.200000  0.200000      8.000000
  0.000000  0.400000  0.200000      8.000000
  0.200000  0.400000  0.200000     16.000000
  0.400000  0.400000  0.200000     16.000000
  0.000000  0.400000  0.400000      4.000000
  0.200000  0.400000  0.400000      8.000000
  0.400000  0.400000  0.400000      8.000000
 
 Following cartesian coordinates:
            Coordinates               Weight
  0.000000  0.000000  0.000000      1.000000
  0.017222  0.000000  0.000000      2.000000
  0.034443  0.000000  0.000000      2.000000
  0.000000  0.017391  0.000000      4.000000
  0.017222  0.017391  0.000000      8.000000
  0.034443  0.017391  0.000000      8.000000
  0.000000  0.034783  0.000000      4.000000
  0.017222  0.034783  0.000000      8.000000
  0.034443  0.034783  0.000000      8.000000
  0.000000  0.017391  0.017391      4.000000
  0.017222  0.017391  0.017391      8.000000
  0.034443  0.017391  0.017391      8.000000
  0.000000  0.034783  0.017391      8.000000
  0.017222  0.034783  0.017391     16.000000
  0.034443  0.034783  0.017391     16.000000
  0.000000  0.034783  0.034783      4.000000
  0.017222  0.034783  0.034783      8.000000
  0.034443  0.034783  0.034783      8.000000
 
 
 Subroutine IBZKPT_HF returns following result:
 ==============================================
 
 Found    125 k-points in 1st BZ
 the following    125 k-points will be used (e.g. in the exchange kernel)
 Following reciprocal coordinates:   # in IRBZ
  0.000000  0.000000  0.000000    0.00800000   1 t-inv F
  0.200000  0.000000  0.000000    0.00800000   2 t-inv F
  0.400000  0.000000  0.000000    0.00800000   3 t-inv F
  0.000000  0.200000  0.000000    0.00800000   4 t-inv F
  0.200000  0.200000  0.000000    0.00800000   5 t-inv F
  0.400000  0.200000  0.000000    0.00800000   6 t-inv F
  0.000000  0.400000  0.000000    0.00800000   7 t-inv F
  0.200000  0.400000  0.000000    0.00800000   8 t-inv F
  0.400000  0.400000  0.000000    0.00800000   9 t-inv F
  0.000000  0.200000  0.200000    0.00800000  10 t-inv F
  0.200000  0.200000  0.200000    0.00800000  11 t-inv F
  0.400000  0.200000  0.200000    0.00800000  12 t-inv F
  0.000000  0.400000  0.200000    0.00800000  13 t-inv F
  0.200000  0.400000  0.200000    0.00800000  14 t-inv F
  0.400000  0.400000  0.200000    0.00800000  15 t-inv F
  0.000000  0.400000  0.400000    0.00800000  16 t-inv F
  0.200000  0.400000  0.400000    0.00800000  17 t-inv F
  0.400000  0.400000  0.400000    0.00800000  18 t-inv F
 -0.200000  0.000000  0.000000    0.00800000   2 t-inv F
 -0.400000  0.000000  0.000000    0.00800000   3 t-inv F
  0.000000  0.000000 -0.200000    0.00800000   4 t-inv F
  0.000000 -0.200000  0.000000    0.00800000   4 t-inv F
  0.000000  0.000000  0.200000    0.00800000   4 t-inv F
 -0.200000  0.000000 -0.200000    0.00800000   5 t-inv F
  0.200000 -0.200000  0.000000    0.00800000   5 t-inv F
 -0.200000  0.000000  0.200000    0.00800000   5 t-inv F
 -0.200000 -0.200000  0.000000    0.00800000   5 t-inv F
  0.200000  0.000000 -0.200000    0.00800000   5 t-inv F
 -0.200000  0.200000  0.000000    0.00800000   5 t-inv F
  0.200000  0.000000  0.200000    0.00800000   5 t-inv F
 -0.400000  0.000000 -0.200000    0.00800000   6 t-inv F
  0.400000 -0.200000  0.000000    0.00800000   6 t-inv F
 -0.400000  0.000000  0.200000    0.00800000   6 t-inv F
 -0.400000 -0.200000  0.000000    0.00800000   6 t-inv F
  0.400000  0.000000 -0.200000    0.00800000   6 t-inv F
 -0.400000  0.200000  0.000000    0.00800000   6 t-inv F
  0.400000  0.000000  0.200000    0.00800000   6 t-inv F
  0.000000  0.000000 -0.400000    0.00800000   7 t-inv F
  0.000000 -0.400000  0.000000    0.00800000   7 t-inv F
  0.000000  0.000000  0.400000    0.00800000   7 t-inv F
 -0.200000  0.000000 -0.400000    0.00800000   8 t-inv F
  0.200000 -0.400000  0.000000    0.00800000   8 t-inv F
 -0.200000  0.000000  0.400000    0.00800000   8 t-inv F
 -0.200000 -0.400000  0.000000    0.00800000   8 t-inv F
  0.200000  0.000000 -0.400000    0.00800000   8 t-inv F
 -0.200000  0.400000  0.000000    0.00800000   8 t-inv F
  0.200000  0.000000  0.400000    0.00800000   8 t-inv F
 -0.400000  0.000000 -0.400000    0.00800000   9 t-inv F
  0.400000 -0.400000  0.000000    0.00800000   9 t-inv F
 -0.400000  0.000000  0.400000    0.00800000   9 t-inv F
 -0.400000 -0.400000  0.000000    0.00800000   9 t-inv F
  0.400000  0.000000 -0.400000    0.00800000   9 t-inv F
 -0.400000  0.400000  0.000000    0.00800000   9 t-inv F
  0.400000  0.000000  0.400000    0.00800000   9 t-inv F
  0.000000  0.200000 -0.200000    0.00800000  10 t-inv F
  0.000000 -0.200000 -0.200000    0.00800000  10 t-inv F
  0.000000 -0.200000  0.200000    0.00800000  10 t-inv F
 -0.200000  0.200000 -0.200000    0.00800000  11 t-inv F
  0.200000 -0.200000 -0.200000    0.00800000  11 t-inv F
 -0.200000 -0.200000  0.200000    0.00800000  11 t-inv F
 -0.400000  0.200000 -0.200000    0.00800000  12 t-inv F
  0.400000 -0.200000 -0.200000    0.00800000  12 t-inv F
 -0.400000 -0.200000  0.200000    0.00800000  12 t-inv F
  0.000000  0.200000 -0.400000    0.00800000  13 t-inv F
  0.000000 -0.400000 -0.200000    0.00800000  13 t-inv F
  0.000000 -0.200000  0.400000    0.00800000  13 t-inv F
  0.000000 -0.400000  0.200000    0.00800000  13 t-inv F
  0.000000 -0.200000 -0.400000    0.00800000  13 t-inv F
  0.000000  0.400000 -0.200000    0.00800000  13 t-inv F
  0.000000  0.200000  0.400000    0.00800000  13 t-inv F
 -0.200000  0.200000 -0.400000    0.00800000  14 t-inv F
  0.200000 -0.400000 -0.200000    0.00800000  14 t-inv F
 -0.200000 -0.200000  0.400000    0.00800000  14 t-inv F
 -0.200000 -0.400000  0.200000    0.00800000  14 t-inv F
  0.200000 -0.200000 -0.400000    0.00800000  14 t-inv F
 -0.200000  0.400000 -0.200000    0.00800000  14 t-inv F
  0.200000  0.200000  0.400000    0.00800000  14 t-inv F
 -0.400000  0.200000 -0.400000    0.00800000  15 t-inv F
  0.400000 -0.400000 -0.200000    0.00800000  15 t-inv F
 -0.400000 -0.200000  0.400000    0.00800000  15 t-inv F
 -0.400000 -0.400000  0.200000    0.00800000  15 t-inv F
  0.400000 -0.200000 -0.400000    0.00800000  15 t-inv F
 -0.400000  0.400000 -0.200000    0.00800000  15 t-inv F
  0.400000  0.200000  0.400000    0.00800000  15 t-inv F
  0.000000  0.400000 -0.400000    0.00800000  16 t-inv F
  0.000000 -0.400000 -0.400000    0.00800000  16 t-inv F
  0.000000 -0.400000  0.400000    0.00800000  16 t-inv F
 -0.200000  0.400000 -0.400000    0.00800000  17 t-inv F
  0.200000 -0.400000 -0.400000    0.00800000  17 t-inv F
 -0.200000 -0.400000  0.400000    0.00800000  17 t-inv F
 -0.400000  0.400000 -0.400000    0.00800000  18 t-inv F
  0.400000 -0.400000 -0.400000    0.00800000  18 t-inv F
 -0.400000 -0.400000  0.400000    0.00800000  18 t-inv F
 -0.200000 -0.200000 -0.200000    0.00800000  11 t-inv T
  0.200000 -0.200000  0.200000    0.00800000  11 t-inv T
 -0.200000  0.200000  0.200000    0.00800000  11 t-inv T
  0.200000  0.200000 -0.200000    0.00800000  11 t-inv T
 -0.400000 -0.200000 -0.200000    0.00800000  12 t-inv T
  0.400000 -0.200000  0.200000    0.00800000  12 t-inv T
 -0.400000  0.200000  0.200000    0.00800000  12 t-inv T
  0.400000  0.200000 -0.200000    0.00800000  12 t-inv T
 -0.200000 -0.400000 -0.200000    0.00800000  14 t-inv T
  0.200000 -0.200000  0.400000    0.00800000  14 t-inv T
 -0.200000  0.400000  0.200000    0.00800000  14 t-inv T
  0.200000  0.200000 -0.400000    0.00800000  14 t-inv T
  0.200000  0.400000 -0.200000    0.00800000  14 t-inv T
 -0.200000  0.200000  0.400000    0.00800000  14 t-inv T
  0.200000 -0.400000  0.200000    0.00800000  14 t-inv T
 -0.200000 -0.200000 -0.400000    0.00800000  14 t-inv T
 -0.400000 -0.400000 -0.200000    0.00800000  15 t-inv T
  0.400000 -0.200000  0.400000    0.00800000  15 t-inv T
 -0.400000  0.400000  0.200000    0.00800000  15 t-inv T
  0.400000  0.200000 -0.400000    0.00800000  15 t-inv T
  0.400000  0.400000 -0.200000    0.00800000  15 t-inv T
 -0.400000  0.200000  0.400000    0.00800000  15 t-inv T
  0.400000 -0.400000  0.200000    0.00800000  15 t-inv T
 -0.400000 -0.200000 -0.400000    0.00800000  15 t-inv T
 -0.200000 -0.400000 -0.400000    0.00800000  17 t-inv T
  0.200000 -0.400000  0.400000    0.00800000  17 t-inv T
 -0.200000  0.400000  0.400000    0.00800000  17 t-inv T
  0.200000  0.400000 -0.400000    0.00800000  17 t-inv T
 -0.400000 -0.400000 -0.400000    0.00800000  18 t-inv T
  0.400000 -0.400000  0.400000    0.00800000  18 t-inv T
 -0.400000  0.400000  0.400000    0.00800000  18 t-inv T
  0.400000  0.400000 -0.400000    0.00800000  18 t-inv T


--------------------------------------------------------------------------------------------------------




 Dimension of arrays:
   k-points           NKPTS =     18   k-points in BZ     NKDIM =     18   number of bands    NBANDS=    168
   number of dos      NEDOS =    301   number of ions     NIONS =     64
   non local maximal  LDIM  =      5   non local SUM 2l+1 LMDIM =     13
   total plane-waves  NPLWV = 188160
   max r-space proj   IRMAX =      1   max aug-charges    IRDMAX=   9004
   dimension x,y,z NGX =    60 NGY =   56 NGZ =   56
   dimension x,y,z NGXF=   120 NGYF=  112 NGZF=  112
   support grid    NGXF=   120 NGYF=  112 NGZF=  112
   ions per type =              32  32
   NGX,Y,Z   is equivalent  to a cutoff of   8.59,  8.10,  8.10 a.u.
   NGXF,Y,Z  is equivalent  to a cutoff of  17.18, 16.19, 16.19 a.u.

 SYSTEM =  GaAs                                    
 POSCAR =  cubic gallium arsenide                  

 Startparameter for this run:
   NWRITE =      2    write-flag & timer
   PREC   = normal    normal or accurate (medium, high low for compatibility)
   ISTART =      0    job   : 0-new  1-cont  2-samecut
   ICHARG =      2    charge: 1-file 2-atom 10-const
   ISPIN  =      1    spin polarized calculation?
   LNONCOLLINEAR =      F non collinear calculations
   LSORBIT =      F    spin-orbit coupling
   INIWAV =      1    electr: 0-lowe 1-rand  2-diag
   LASPH  =      F    aspherical Exc in radial PAW
 Electronic Relaxation 1
   ENCUT  =  400.0 eV  29.40 Ry    5.42 a.u.  18.94 18.75 18.75*2*pi/ulx,y,z
   ENINI  =  400.0     initial cutoff
   ENAUG  =  462.8 eV  augmentation charge cutoff
   NELM   =     60;   NELMIN=  2; NELMDL= -5     # of ELM steps 
   EDIFF  = 0.1E-05   stopping-criterion for ELM
   LREAL  =      F    real-space projection
   NLSPLINE    = F    spline interpolate recip. space projectors
   LCOMPAT=      F    compatible to vasp.4.4
   GGA_COMPAT  = T    GGA compatible to vasp.4.4-vasp.4.6
   LMAXPAW     = -100 max onsite density
   LMAXMIX     =    2 max onsite mixed and CHGCAR
   VOSKOWN=      0    Vosko Wilk Nusair interpolation
   ROPT   =    0.00000   0.00000
 Ionic relaxation
   EDIFFG = 0.1E-02   stopping-criterion for IOM
   NSW    =    100    number of steps for IOM
   NBLOCK =      1;   KBLOCK =    100    inner block; outer block 
   IBRION =      2    ionic relax: 0-MD 1-quasi-New 2-CG
   NFREE  =      2    steps in history (QN), initial steepest desc. (CG)
   ISIF   =      2    stress and relaxation
   IWAVPR =     11    prediction:  0-non 1-charg 2-wave 3-comb
   ISYM   =      2    0-nonsym 1-usesym 2-fastsym
   LCORR  =      T    Harris-Foulkes like correction to forces

   POTIM  = 0.1000    time-step for ionic-motion
   TEIN   =    0.0    initial temperature
   TEBEG  =    0.0;   TEEND  =   0.0 temperature during run
   SMASS  =  -3.00    Nose mass-parameter (am)
   estimated Nose-frequenzy (Omega)   =  0.10E-29 period in steps = 0.63E+47 mass=  -0.308E-26a.u.
   SCALEE = 1.0000    scale energy and forces
   NPACO  =    256;   APACO  = 10.0  distance and # of slots for P.C.
   PSTRESS=    0.0 pullay stress

  Mass of Ions in am
   POMASS =  74.92 69.72
  Ionic Valenz
   ZVAL   =   5.00  3.00
  Atomic Wigner-Seitz radii
   RWIGS  =  -1.00 -1.00
  virtual crystal weights 
   VCA    =   1.00  1.00
   NELECT =     256.0000    total number of electrons
   NUPDOWN=      -1.0000    fix difference up-down

 DOS related values:
   EMIN   =  10.00;   EMAX   =-10.00  energy-range for DOS
   EFERMI =   0.00;   METHOD = LEGACY      
   ISMEAR =    -5;   SIGMA  =   0.10  broadening in eV -4-tet -1-fermi 0-gaus

 Electronic relaxation 2 (details)
   IALGO  =     38    algorithm
   LDIAG  =      T    sub-space diagonalisation (order eigenvalues)
   LSUBROT=      F    optimize rotation matrix (better conditioning)
   TURBO    =      0    0=normal 1=particle mesh
   IRESTART =      0    0=no restart 2=restart with 2 vectors
   NREBOOT  =      0    no. of reboots
   NMIN     =      0    reboot dimension
   EREF     =   0.00    reference energy to select bands
   IMIX   =      4    mixing-type and parameters
     AMIX     =   0.40;   BMIX     =  1.00
     AMIX_MAG =   1.60;   BMIX_MAG =  1.00
     AMIN     =   0.10
     WC   =   100.;   INIMIX=   1;  MIXPRE=   1;  MAXMIX= -45

 Intra band minimization:
   WEIMIN = 0.0010     energy-eigenvalue tresh-hold
   EBREAK =  0.15E-08  absolut break condition
   DEPER  =   0.30     relativ break condition  

   TIME   =   0.40     timestep for ELM

  volume/ion in A,a.u.               =      24.00       161.94
  Fermi-wavevector in a.u.,A,eV,Ry     =   0.900959  1.702565 11.044216  0.811727
  Thomas-Fermi vector in A             =   2.023981
 
 Write flags
   LWAVE        =      T    write WAVECAR
   LDOWNSAMPLE  =      F    k-point downsampling of WAVECAR
   LCHARG       =      T    write CHGCAR
   LVTOT        =      F    write LOCPOT, total local potential
   LVHAR        =      F    write LOCPOT, Hartree potential only
   WRT_POTENTIAL= false  ! write potential to hdf5 file
   LELF         =      F    write electronic localiz. function (ELF)
   LORBIT       =      0    0 simple, 1 ext, 2 COOP (PROOUT), +10 PAW based schemes


 Dipole corrections
   LMONO      =      F    monopole corrections only (constant potential shift)
   LDIPOL     =      F    correct potential (dipole corrections)
   IDIPOL     =      0    1-x, 2-y, 3-z, 4-all directions 
   EPSILON    =  1.0000000 bulk dielectric constant
   LVACPOTAV  =      F  vacuum potentials using an averaging scheme for the charge density
   VACPOTFLAT =  0.1000000 required flatness to determine vacuum potential
 Exchange correlation treatment:
   GGA     = PE    functional components
   XC_C    = 1    coefficients multiplying the functional components
   LIBXC   =     F    Libxc                    
   VOSKOWN =     0    Vosko Wilk Nusair interpolation
   LHFCALC =     F    Hartree Fock is set to
   LHFONE  =     F    Hartree Fock one center treatment
   AEXX    =    0.0000 exact exchange contribution

 Parameters of functionals:
   PE:
     No parameter
 
 Van der Waals corrections
   IVDW    =     0    specifies the selected vdW correction

 Linear response parameters
   LEPSILON=     T    determine dielectric tensor
   LRPA    =     F    only Hartree local field effects (RPA)
   LNABLA  =     F    use nabla operator in PAW spheres
   LVEL    =     F    velocity operator in full k-point grid
   CSHIFT  =0.1000    complex shift for real part using Kramers Kronig
   OMEGAMAX=  -1.0    maximum frequency
   DEG_THRESHOLD= 0.2000000E-02 threshold for treating states as degnerate
   RTIME   =   -0.100 relaxation time in fs
  (WPLASMAI=    0.000 imaginary part of plasma frequency in eV, 0.658/RTIME)
   DFIELD  = 0.0000000 0.0000000 0.0000000 field for delta impulse in time
 
  Optional k-point grid parameters
   LKPOINTS_OPT  =     F    use optional k-point grid
   KPOINTS_OPT_MODE=     1    mode for optional k-point grid
 
 Orbital magnetization related:
   ORBITALMAG=     F  switch on orbital magnetization
   LCHIMAG   =     F  perturbation theory with respect to B field
   DQ        =  0.001000  dq finite difference perturbation B field
   LLRAUG    =     F  two centre corrections for induced B field
   LBONE     =     F  B-component reconstruction in AE one-centre
   LVGVCALC  =     T  calculate vGv susceptibility
   LVGVAPPL  =     F  apply vGv susceptibility instead of pGv for G=0

 Random number generation:
   RANDOM_GENERATOR = DEFAULT
   PCG_SEED         = not used


--------------------------------------------------------------------------------------------------------


 conjugate gradient relaxation of ions
 charge density and potential will be updated during run
 non-spin polarized calculation
 Variant of blocked Davidson
 Davidson routine will perform the subspace rotation
 perform sub-space diagonalisation
    after iterative eigenvector-optimisation
 modified Broyden-mixing scheme, WC =      100.0
 initial mixing is a Kerker type mixing with AMIX =  0.4000 and BMIX =      1.0000
 Hartree-type preconditioning will be used
 using additional bands           40
 reciprocal scheme for non local part
 use partial core corrections
 calculate Harris-corrections to forces 
   (improved forces if not selfconsistent)
 use gradient corrections 
 use of overlap-Matrix (Vanderbilt PP)
 Fermi weights with tetrahedron method with Bloechl corrections


--------------------------------------------------------------------------------------------------------


  energy-cutoff  :      400.00
  volume of cell :     1535.85
      direct lattice vectors                 reciprocal lattice vectors
    11.613250832  0.000000000  0.000000000     0.086108534  0.000000000  0.000000000
     0.000000000 11.500000024  0.000000000     0.000000000  0.086956522  0.000000000
     0.000000000  0.000000000 11.500000024     0.000000000  0.000000000  0.086956522

  length of vectors
    11.613250832 11.500000024 11.500000024     0.086108534  0.086956522  0.086956522


 
 k-points in units of 2pi/SCALE and weight: Automatic mesh                          
   0.00000000  0.00000000  0.00000000       0.008
   0.01722171  0.00000000  0.00000000       0.016
   0.03444341  0.00000000  0.00000000       0.016
   0.00000000  0.01739130  0.00000000       0.032
   0.01722171  0.01739130  0.00000000       0.064
   0.03444341  0.01739130  0.00000000       0.064
   0.00000000  0.03478261  0.00000000       0.032
   0.01722171  0.03478261  0.00000000       0.064
   0.03444341  0.03478261  0.00000000       0.064
   0.00000000  0.01739130  0.01739130       0.032
   0.01722171  0.01739130  0.01739130       0.064
   0.03444341  0.01739130  0.01739130       0.064
   0.00000000  0.03478261  0.01739130       0.064
   0.01722171  0.03478261  0.01739130       0.128
   0.03444341  0.03478261  0.01739130       0.128
   0.00000000  0.03478261  0.03478261       0.032
   0.01722171  0.03478261  0.03478261       0.064
   0.03444341  0.03478261  0.03478261       0.064
 
 k-points in reciprocal lattice and weights: Automatic mesh                          
   0.00000000  0.00000000  0.00000000       0.008
   0.20000000  0.00000000  0.00000000       0.016
   0.40000000  0.00000000  0.00000000       0.016
   0.00000000  0.20000000  0.00000000       0.032
   0.20000000  0.20000000  0.00000000       0.064
   0.40000000  0.20000000  0.00000000       0.064
   0.00000000  0.40000000  0.00000000       0.032
   0.20000000  0.40000000  0.00000000       0.064
   0.40000000  0.40000000  0.00000000       0.064
   0.00000000  0.20000000  0.20000000       0.032
   0.20000000  0.20000000  0.20000000       0.064
   0.40000000  0.20000000  0.20000000       0.064
   0.00000000  0.40000000  0.20000000       0.064
   0.20000000  0.40000000  0.20000000       0.128
   0.40000000  0.40000000  0.20000000       0.128
   0.00000000  0.40000000  0.40000000       0.032
   0.20000000  0.40000000  0.40000000       0.064
   0.40000000  0.40000000  0.40000000       0.064
 
 position of ions in fractional coordinates (direct lattice) 
   0.00000000  0.00000000  0.00000000
   0.00000000  0.00000000  0.50000000
   0.00000000  0.50000000  0.00000000
   0.00000000  0.50000000  0.50000000
   0.50000000  0.00000000  0.00000000
   0.50000000  0.00000000  0.50000000
   0.50000000  0.50000000  0.00000000
   0.50000000  0.50000000  0.50000000
   0.25000000  0.25000000  0.00000000
   0.25000000  0.25000000  0.50000000
   0.25000000  0.75000000  0.00000000
   0.25000000  0.75000000  0.50000000
   0.75000000  0.25000000  0.00000000
   0.75000000  0.25000000  0.50000000
   0.75000000  0.75000000  0.00000000
   0.75000000  0.75000000  0.50000000
   0.25000000  0.00000000  0.25000000
   0.25000000  0.00000000  0.75000000
   0.25000000  0.50000000  0.25000000
   0.25000000  0.50000000  0.75000000
   0.75000000  0.00000000  0.25000000
   0.75000000  0.00000000  0.75000000
   0.75000000  0.50000000  0.25000000
   0.75000000  0.50000000  0.75000000
   0.00000000  0.25000000  0.25000000
   0.00000000  0.25000000  0.75000000
   0.00000000  0.75000000  0.25000000
   0.00000000  0.75000000  0.75000000
   0.50000000  0.25000000  0.25000000
   0.50000000  0.25000000  0.75000000
   0.50000000  0.75000000  0.25000000
   0.50000000  0.75000000  0.75000000
   0.12500000  0.12500000  0.12500000
   0.12500000  0.12500000  0.62500000
   0.12500000  0.62500000  0.12500000
   0.12500000  0.62500000  0.62500000
   0.62500000  0.12500000  0.12500000
   0.62500000  0.12500000  0.62500000
   0.62500000  0.62500000  0.12500000
   0.62500000  0.62500000  0.62500000
   0.37500000  0.12500000  0.37500000
   0.37500000  0.12500000  0.87500000
   0.37500000  0.62500000  0.37500000
   0.37500000  0.62500000  0.87500000
   0.87500000  0.12500000  0.37500000
   0.87500000  0.12500000  0.87500000
   0.87500000  0.62500000  0.37500000
   0.87500000  0.62500000  0.87500000
   0.37500000  0.37500000  0.12500000
   0.37500000  0.37500000  0.62500000
   0.37500000  0.87500000  0.12500000
   0.37500000  0.87500000  0.62500000
   0.87500000  0.37500000  0.12500000
   0.87500000  0.37500000  0.62500000
   0.87500000  0.87500000  0.12500000
   0.87500000  0.87500000  0.62500000
   0.12500000  0.37500000  0.37500000
   0.12500000  0.37500000  0.87500000
   0.12500000  0.87500000  0.37500000
   0.12500000  0.87500000  0.87500000
   0.62500000  0.37500000  0.37500000
   0.62500000  0.37500000  0.87500000
   0.62500000  0.87500000  0.37500000
   0.62500000  0.87500000  0.87500000
 
 position of ions in cartesian coordinates  (Angst):
   0.00000000  0.00000000  0.00000000
   0.00000000  0.00000000  5.75000001
   0.00000000  5.75000001  0.00000000
   0.00000000  5.75000001  5.75000001
   5.80662542  0.00000000  0.00000000
   5.80662542  0.00000000  5.75000001
   5.80662542  5.75000001  0.00000000
   5.80662542  5.75000001  5.75000001
   2.90331271  2.87500001  0.00000000
   2.90331271  2.87500001  5.75000001
   2.90331271  8.62500002  0.00000000
   2.90331271  8.62500002  5.75000001
   8.70993812  2.87500001  0.00000000
   8.70993812  2.87500001  5.75000001
   8.70993812  8.62500002  0.00000000
   8.70993812  8.62500002  5.75000001
   2.90331271  0.00000000  2.87500001
   2.90331271  0.00000000  8.62500002
   2.90331271  5.75000001  2.87500001
   2.90331271  5.75000001  8.62500002
   8.70993812  0.00000000  2.87500001
   8.70993812  0.00000000  8.62500002
   8.70993812  5.75000001  2.87500001
   8.70993812  5.75000001  8.62500002
   0.00000000  2.87500001  2.87500001
   0.00000000  2.87500001  8.62500002
   0.00000000  8.62500002  2.87500001
   0.00000000  8.62500002  8.62500002
   5.80662542  2.87500001  2.87500001
   5.80662542  2.87500001  8.62500002
   5.80662542  8.62500002  2.87500001
   5.80662542  8.62500002  8.62500002
   1.45165635  1.43750000  1.43750000
   1.45165635  1.43750000  7.18750001
   1.45165635  7.18750001  1.43750000
   1.45165635  7.18750001  7.18750001
   7.25828177  1.43750000  1.43750000
   7.25828177  1.43750000  7.18750001
   7.25828177  7.18750001  1.43750000
   7.25828177  7.18750001  7.18750001
   4.35496906  1.43750000  4.31250001
   4.35496906  1.43750000 10.06250002
   4.35496906  7.18750001  4.31250001
   4.35496906  7.18750001 10.06250002
  10.16159448  1.43750000  4.31250001
  10.16159448  1.43750000 10.06250002
  10.16159448  7.18750001  4.31250001
  10.16159448  7.18750001 10.06250002
   4.35496906  4.31250001  1.43750000
   4.35496906  4.31250001  7.18750001
   4.35496906 10.06250002  1.43750000
   4.35496906 10.06250002  7.18750001
  10.16159448  4.31250001  1.43750000
  10.16159448  4.31250001  7.18750001
  10.16159448 10.06250002  1.43750000
  10.16159448 10.06250002  7.18750001
   1.45165635  4.31250001  4.31250001
   1.45165635  4.31250001 10.06250002
   1.45165635 10.06250002  4.31250001
   1.45165635 10.06250002 10.06250002
   7.25828177  4.31250001  4.31250001
   7.25828177  4.31250001 10.06250002
   7.25828177 10.06250002  4.31250001
   7.25828177 10.06250002 10.06250002
 


--------------------------------------------------------------------------------------------------------


 k-point     1 :   0.0000 0.0000 0.0000  plane waves:   27897
 k-point     2 :   0.2000 0.0000 0.0000  plane waves:   27962
 k-point     3 :   0.4000 0.0000 0.0000  plane waves:   27930
 k-point     4 :   0.0000 0.2000 0.0000  plane waves:   27897
 k-point     5 :   0.2000 0.2000 0.0000  plane waves:   27919
 k-point     6 :   0.4000 0.2000 0.0000  plane waves:   27886
 k-point     7 :   0.0000 0.4000 0.0000  plane waves:   27862
 k-point     8 :   0.2000 0.4000 0.0000  plane waves:   27905
 k-point     9 :   0.4000 0.4000 0.0000  plane waves:   27906
 k-point    10 :   0.0000 0.2000 0.2000  plane waves:   27917
 k-point    11 :   0.2000 0.2000 0.2000  plane waves:   27899
 k-point    12 :   0.4000 0.2000 0.2000  plane waves:   27903
 k-point    13 :   0.0000 0.4000 0.2000  plane waves:   27867
 k-point    14 :   0.2000 0.4000 0.2000  plane waves:   27883
 k-point    15 :   0.4000 0.4000 0.2000  plane waves:   27918
 k-point    16 :   0.0000 0.4000 0.4000  plane waves:   27906
 k-point    17 :   0.2000 0.4000 0.4000  plane waves:   27912
 k-point    18 :   0.4000 0.4000 0.4000  plane waves:   27903

 maximum and minimum number of plane-waves per node :     27962    27862

 maximum number of plane-waves:     27962
 maximum index in each direction: 
   IXMAX=   18   IYMAX=   18   IZMAX=   18
   IXMIN=  -19   IYMIN=  -19   IZMIN=  -19


 serial   3D FFT for wavefunctions
 parallel 3D FFT for charge:
    minimum data exchange during FFTs selected (reduces bandwidth)


 total amount of memory used by VASP MPI-rank0   363515. kBytes
=======================================================================

   base      :      30000. kBytes
   nonl-proj :     133351. kBytes
   fftplans  :       7212. kBytes
   grid      :      18251. kBytes
   one-center:        519. kBytes
   wavefun   :     174182. kBytes
 
     INWAV:  cpu time      0.0000: real time      0.0003
 Broyden mixing: mesh for mixing (old mesh)
   NGX = 37   NGY = 37   NGZ = 37
  (NGX  =120   NGY  =112   NGZ  =112)
  gives a total of  50653 points

 initial charge density was supplied:
 charge density of overlapping atoms calculated
 number of electron     256.0000000 magnetization 
 keeping initial charge density in first step


--------------------------------------------------------------------------------------------------------


 Maximum index for augmentation-charges         1099 (set IRDMAX)


--------------------------------------------------------------------------------------------------------


 First call to EWALD:  gamma=   0.154
 Maximum number of real-space cells 3x 3x 3
 Maximum number of reciprocal cells 3x 3x 3

    FEWALD:  cpu time      0.0024: real time      0.0024


--------------------------------------- Ionic step        1  -------------------------------------------




--------------------------------------- Iteration      1(   1)  ---------------------------------------


    POTLOK:  cpu time      0.1130: real time      0.1159
    SETDIJ:  cpu time      0.0110: real time      0.0111
     EDDAV:  cpu time     75.3149: real time     76.3943
 BZINTS: Fermi energy:    9.720833;  256.000000 electrons
         Band energy: 0.376134E+03;  BLOECHL correction:   -0.032317
       DOS:  cpu time      0.0123: real time      0.0124
    --------------------------------------------
      LOOP:  cpu time     75.4512: real time     76.5337

 eigenvalue-minimisations  :  6048
 total energy-change (2. order) : 0.9335467E+03  (-0.8086547E+04)
 number of electron     256.0000000 magnetization 
 augmentation part      256.0000000 magnetization 

 Free energy of the ion-electron system (eV)
  ---------------------------------------------------
  alpha Z        PSCENC =       570.21530070
  Ewald energy   TEWEN  =     -7186.72751706
  -Hartree energ DENC   =      -603.57106400
  -exchange      EXHF   =         0.00000000
  -V(xc)+E(xc)   XCENC  =      -996.46317995
  PAW double counting   =      6692.16565901    -5247.93935635
  entropy T*S    EENTRO =         0.00000000
  eigenvalues    EBANDS =       376.13381695
  atomic energy  EATOM  =      7329.73306348
  Solvation  Ediel_sol  =         0.00000000
  ---------------------------------------------------
  free energy    TOTEN  =       933.54672279 eV

  energy without entropy =      933.54672279  energy(sigma->0) =      933.54672279


--------------------------------------------------------------------------------------------------------




--------------------------------------- Iteration      1(   2)  ---------------------------------------


     EDDAV:  cpu time     84.5960: real time     85.7439
 BZINTS: Fermi energy:    3.283799;  256.000000 electrons
         Band energy:-0.724986E+03;  BLOECHL correction:    0.000000
       DOS:  cpu time      0.0074: real time      0.0074
    --------------------------------------------
      LOOP:  cpu time     84.6034: real time     85.7513

 eigenvalue-minimisations  :  7216
 total energy-change (2. order) :-0.1101119E+04  (-0.1050283E+04)
 number of electron     256.0000000 magnetization 
 augmentation part      256.0000000 magnetization 

 Free energy of the ion-electron system (eV)
  ---------------------------------------------------
  alpha Z        PSCENC =       570.21530070
  Ewald energy   TEWEN  =     -7186.72751706
  -Hartree energ DENC   =      -603.57106400
  -exchange      EXHF   =         0.00000000
  -V(xc)+E(xc)   XCENC  =      -996.46317995
  PAW double counting   =      6692.16565901    -5247.93935635
  entropy T*S    EENTRO =         0.00000000
  eigenvalues    EBANDS =      -724.98563577
  atomic energy  EATOM  =      7329.73306348
  Solvation  Ediel_sol  =         0.00000000
  ---------------------------------------------------
  free energy    TOTEN  =      -167.57272994 eV

  energy without entropy =     -167.57272994  energy(sigma->0) =     -167.57272994


--------------------------------------------------------------------------------------------------------




--------------------------------------- Iteration      1(   3)  ---------------------------------------


     EDDAV:  cpu time     86.7025: real time     87.9265
 BZINTS: Fermi energy:    1.821619;  256.000000 electrons
         Band energy:-0.825077E+03;  BLOECHL correction:    0.000000
       DOS:  cpu time      0.0073: real time      0.0073
    --------------------------------------------
      LOOP:  cpu time     86.7098: real time     87.9338

 eigenvalue-minimisations  :  7416
 total energy-change (2. order) :-0.1000913E+03  (-0.9872861E+02)
 number of electron     256.0000000 magnetization 
 augmentation part      256.0000000 magnetization 

 Free energy of the ion-electron system (eV)
  ---------------------------------------------------
  alpha Z        PSCENC =       570.21530070
  Ewald energy   TEWEN  =     -7186.72751706
  -Hartree energ DENC   =      -603.57106400
  -exchange      EXHF   =         0.00000000
  -V(xc)+E(xc)   XCENC  =      -996.46317995
  PAW double counting   =      6692.16565901    -5247.93935635
  entropy T*S    EENTRO =         0.00000000
  eigenvalues    EBANDS =      -825.07691214
  atomic energy  EATOM  =      7329.73306348
  Solvation  Ediel_sol  =         0.00000000
  ---------------------------------------------------
  free energy    TOTEN  =      -267.66400631 eV

  energy without entropy =     -267.66400631  energy(sigma->0) =     -267.66400631


--------------------------------------------------------------------------------------------------------




--------------------------------------- Iteration      1(   4)  ---------------------------------------


     EDDAV:  cpu time     85.8579: real time     87.0160
 BZINTS: Fermi energy:    1.795336;  256.000000 electrons
         Band energy:-0.827555E+03;  BLOECHL correction:    0.000000
       DOS:  cpu time      0.0081: real time      0.0082
    --------------------------------------------
      LOOP:  cpu time     85.8660: real time     87.0242

 eigenvalue-minimisations  :  7280
 total energy-change (2. order) :-0.2478533E+01  (-0.2451091E+01)
 number of electron     256.0000000 magnetization 
 augmentation part      256.0000000 magnetization 

 Free energy of the ion-electron system (eV)
  ---------------------------------------------------
  alpha Z        PSCENC =       570.21530070
  Ewald energy   TEWEN  =     -7186.72751706
  -Hartree energ DENC   =      -603.57106400
  -exchange      EXHF   =         0.00000000
  -V(xc)+E(xc)   XCENC  =      -996.46317995
  PAW double counting   =      6692.16565901    -5247.93935635
  entropy T*S    EENTRO =         0.00000000
  eigenvalues    EBANDS =      -827.55544507
  atomic energy  EATOM  =      7329.73306348
  Solvation  Ediel_sol  =         0.00000000
  ---------------------------------------------------
  free energy    TOTEN  =      -270.14253923 eV

  energy without entropy =     -270.14253923  energy(sigma->0) =     -270.14253923


--------------------------------------------------------------------------------------------------------




--------------------------------------- Iteration      1(   5)  ---------------------------------------


     EDDAV:  cpu time     86.1011: real time     87.1885
 BZINTS: Fermi energy:    1.782706;  256.000000 electrons
         Band energy:-0.827623E+03;  BLOECHL correction:    0.000000
       DOS:  cpu time      0.0075: real time      0.0075
    CHARGE:  cpu time      0.7805: real time      0.7851
    MIXING:  cpu time      0.0031: real time      0.0031
    --------------------------------------------
      LOOP:  cpu time     86.8922: real time     87.9842

 eigenvalue-minimisations  :  7336
 total energy-change (2. order) :-0.6761695E-01  (-0.6739807E-01)
 number of electron     255.9999599 magnetization 
 augmentation part      -41.5242540 magnetization 

 Broyden mixing:
  rms(total) = 0.20105E+01    rms(broyden)= 0.20105E+01
  rms(prec ) = 0.22902E+01
  weight for this iteration     100.00

 Free energy of the ion-electron system (eV)
  ---------------------------------------------------
  alpha Z        PSCENC =       570.21530070
  Ewald energy   TEWEN  =     -7186.72751706
  -Hartree energ DENC   =      -603.57106400
  -exchange      EXHF   =         0.00000000
  -V(xc)+E(xc)   XCENC  =      -996.46317995
  PAW double counting   =      6692.16565901    -5247.93935635
  entropy T*S    EENTRO =         0.00000000
  eigenvalues    EBANDS =      -827.62306202
  atomic energy  EATOM  =      7329.73306348
  Solvation  Ediel_sol  =         0.00000000
  ---------------------------------------------------
  free energy    TOTEN  =      -270.21015618 eV

  energy without entropy =     -270.21015618  energy(sigma->0) =     -270.21015618


--------------------------------------------------------------------------------------------------------




--------------------------------------- Iteration      1(   6)  ---------------------------------------


    POTLOK:  cpu time      0.1093: real time      0.1123
    SETDIJ:  cpu time      0.0108: real time      0.0109
     EDDAV:  cpu time     82.9934: real time     84.0361
 BZINTS: Fermi energy:    2.079696;  256.000000 electrons
         Band energy:-0.776063E+03;  BLOECHL correction:    0.000000
       DOS:  cpu time      0.0077: real time      0.0078
    CHARGE:  cpu time      0.7798: real time      0.7846
    MIXING:  cpu time      0.0035: real time      0.0035
    --------------------------------------------
      LOOP:  cpu time     83.9044: real time     84.9552

 eigenvalue-minimisations  :  7056
 total energy-change (2. order) : 0.4183113E+01  (-0.6523392E+00)
 number of electron     255.9999605 magnetization 
 augmentation part      -41.4008295 magnetization 

 Broyden mixing:
  rms(total) = 0.11802E+01    rms(broyden)= 0.11802E+01
  rms(prec ) = 0.13037E+01
  weight for this iteration     100.00

 eigenvalues of (default mixing * dielectric matrix)
  average eigenvalue GAMMA=   2.2595
  2.2595

 Free energy of the ion-electron system (eV)
  ---------------------------------------------------
  alpha Z        PSCENC =       570.21530070
  Ewald energy   TEWEN  =     -7186.72751706
  -Hartree energ DENC   =      -654.25201227
  -exchange      EXHF   =         0.00000000
  -V(xc)+E(xc)   XCENC  =      -987.66515321
  PAW double counting   =      9397.50485048    -7958.77303819
  entropy T*S    EENTRO =         0.00000000
  eigenvalues    EBANDS =      -776.06253716
  atomic energy  EATOM  =      7329.73306348
  Solvation  Ediel_sol  =         0.00000000
  ---------------------------------------------------
  free energy    TOTEN  =      -266.02704323 eV

  energy without entropy =     -266.02704323  energy(sigma->0) =     -266.02704323


--------------------------------------------------------------------------------------------------------




--------------------------------------- Iteration      1(   7)  ---------------------------------------


    POTLOK:  cpu time      0.1108: real time      0.1144
    SETDIJ:  cpu time      0.0108: real time      0.0109
     EDDAV:  cpu time     85.7100: real time     86.9860
 BZINTS: Fermi energy:    2.295515;  256.000000 electrons
         Band energy:-0.727372E+03;  BLOECHL correction:    0.000000
       DOS:  cpu time      0.0075: real time      0.0076
    CHARGE:  cpu time      0.8116: real time      0.8181
    MIXING:  cpu time      0.0034: real time      0.0034
    --------------------------------------------
      LOOP:  cpu time     86.6541: real time     87.9404

 eigenvalue-minimisations  :  7320
 total energy-change (2. order) : 0.8253244E+00  (-0.4312444E+00)
 number of electron     255.9999610 magnetization 
 augmentation part      -41.2752165 magnetization 

 Broyden mixing:
  rms(total) = 0.24456E+00    rms(broyden)= 0.24456E+00
  rms(prec ) = 0.28707E+00
  weight for this iteration     100.00

 eigenvalues of (default mixing * dielectric matrix)
  average eigenvalue GAMMA=   1.9354
  1.6139  2.2569

 Free energy of the ion-electron system (eV)
  ---------------------------------------------------
  alpha Z        PSCENC =       570.21530070
  Ewald energy   TEWEN  =     -7186.72751706
  -Hartree energ DENC   =      -707.15298664
  -exchange      EXHF   =         0.00000000
  -V(xc)+E(xc)   XCENC  =      -976.85167962
  PAW double counting   =     13896.18445704   -12463.23008968
  entropy T*S    EENTRO =         0.00000000
  eigenvalues    EBANDS =      -727.37226709
  atomic energy  EATOM  =      7329.73306348
  Solvation  Ediel_sol  =         0.00000000
  ---------------------------------------------------
  free energy    TOTEN  =      -265.20171886 eV

  energy without entropy =     -265.20171886  energy(sigma->0) =     -265.20171886


--------------------------------------------------------------------------------------------------------




--------------------------------------- Iteration      1(   8)  ---------------------------------------


    POTLOK:  cpu time      0.1119: real time      0.1167
    SETDIJ:  cpu time      0.0107: real time      0.0108
     EDDAV:  cpu time     82.8248: real time     84.1501
 BZINTS: Fermi energy:    2.266445;  256.000000 electrons
         Band energy:-0.729084E+03;  BLOECHL correction:    0.000000
       DOS:  cpu time      0.0076: real time      0.0076
    CHARGE:  cpu time      0.7831: real time      0.7881
    MIXING:  cpu time      0.0035: real time      0.0035
    --------------------------------------------
      LOOP:  cpu time     83.7416: real time     85.0769

 eigenvalue-minimisations  :  7040
 total energy-change (2. order) : 0.4136283E-01  (-0.5053400E-01)
 number of electron     255.9999609 magnetization 
 augmentation part      -41.2838513 magnetization 

 Broyden mixing:
  rms(total) = 0.61501E-01    rms(broyden)= 0.61501E-01
  rms(prec ) = 0.71574E-01
  weight for this iteration     100.00

 eigenvalues of (default mixing * dielectric matrix)
  average eigenvalue GAMMA=   1.9486
  2.6812  1.5823  1.5823

 Free energy of the ion-electron system (eV)
  ---------------------------------------------------
  alpha Z        PSCENC =       570.21530070
  Ewald energy   TEWEN  =     -7186.72751706
  -Hartree energ DENC   =      -706.45194647
  -exchange      EXHF   =         0.00000000
  -V(xc)+E(xc)   XCENC  =      -975.50211166
  PAW double counting   =     14556.98704357   -13124.33041358
  entropy T*S    EENTRO =         0.00000000
  eigenvalues    EBANDS =      -729.08377501
  atomic energy  EATOM  =      7329.73306348
  Solvation  Ediel_sol  =         0.00000000
  ---------------------------------------------------
  free energy    TOTEN  =      -265.16035603 eV

  energy without entropy =     -265.16035603  energy(sigma->0) =     -265.16035603


--------------------------------------------------------------------------------------------------------




--------------------------------------- Iteration      1(   9)  ---------------------------------------


    POTLOK:  cpu time      0.1104: real time      0.1133
    SETDIJ:  cpu time      0.0107: real time      0.0108
     EDDAV:  cpu time     82.7405: real time     83.9139
 BZINTS: Fermi energy:    2.322526;  256.000000 electrons
         Band energy:-0.725158E+03;  BLOECHL correction:    0.000000
       DOS:  cpu time      0.0080: real time      0.0080
    CHARGE:  cpu time      0.7889: real time      0.7937
    MIXING:  cpu time      0.0046: real time      0.0046
    --------------------------------------------
      LOOP:  cpu time     83.6630: real time     84.8443

 eigenvalue-minimisations  :  6952
 total energy-change (2. order) :-0.1179548E-01  (-0.3583944E-02)
 number of electron     255.9999609 magnetization 
 augmentation part      -41.2849644 magnetization 

 Broyden mixing:
  rms(total) = 0.23197E-01    rms(broyden)= 0.23197E-01
  rms(prec ) = 0.24632E-01
  weight for this iteration     100.00

 eigenvalues of (default mixing * dielectric matrix)
  average eigenvalue GAMMA=   1.6610
  2.5818  1.6637  1.6637  0.7346

 Free energy of the ion-electron system (eV)
  ---------------------------------------------------
  alpha Z        PSCENC =       570.21530070
  Ewald energy   TEWEN  =     -7186.72751706
  -Hartree energ DENC   =      -711.09315696
  -exchange      EXHF   =         0.00000000
  -V(xc)+E(xc)   XCENC  =      -974.59515812
  PAW double counting   =     14748.83646576   -13316.38271343
  entropy T*S    EENTRO =         0.00000000
  eigenvalues    EBANDS =      -725.15843588
  atomic energy  EATOM  =      7329.73306348
  Solvation  Ediel_sol  =         0.00000000
  ---------------------------------------------------
  free energy    TOTEN  =      -265.17215151 eV

  energy without entropy =     -265.17215151  energy(sigma->0) =     -265.17215151


--------------------------------------------------------------------------------------------------------




--------------------------------------- Iteration      1(  10)  ---------------------------------------


    POTLOK:  cpu time      0.1097: real time      0.1128
    SETDIJ:  cpu time      0.0108: real time      0.0109
     EDDAV:  cpu time     88.3217: real time     89.5689
 BZINTS: Fermi energy:    2.315631;  256.000000 electrons
         Band energy:-0.725105E+03;  BLOECHL correction:    0.000000
       DOS:  cpu time      0.0075: real time      0.0076
    CHARGE:  cpu time      0.7821: real time      0.7868
    MIXING:  cpu time      0.0037: real time      0.0038
    --------------------------------------------
      LOOP:  cpu time     89.2356: real time     90.4908

 eigenvalue-minimisations  :  7576
 total energy-change (2. order) :-0.1065790E-02  (-0.9754561E-04)
 number of electron     255.9999609 magnetization 
 augmentation part      -41.2853469 magnetization 

 Broyden mixing:
  rms(total) = 0.10842E-01    rms(broyden)= 0.10842E-01
  rms(prec ) = 0.12589E-01
  weight for this iteration     100.00

 eigenvalues of (default mixing * dielectric matrix)
  average eigenvalue GAMMA=   1.9225
  3.1123  2.4984  1.0339  1.4839  1.4839

 Free energy of the ion-electron system (eV)
  ---------------------------------------------------
  alpha Z        PSCENC =       570.21530070
  Ewald energy   TEWEN  =     -7186.72751706
  -Hartree energ DENC   =      -711.18126237
  -exchange      EXHF   =         0.00000000
  -V(xc)+E(xc)   XCENC  =      -974.63853113
  PAW double counting   =     14666.88841375   -13234.35764399
  entropy T*S    EENTRO =         0.00000000
  eigenvalues    EBANDS =      -725.10504068
  atomic energy  EATOM  =      7329.73306348
  Solvation  Ediel_sol  =         0.00000000
  ---------------------------------------------------
  free energy    TOTEN  =      -265.17321730 eV

  energy without entropy =     -265.17321730  energy(sigma->0) =     -265.17321730


--------------------------------------------------------------------------------------------------------




--------------------------------------- Iteration      1(  11)  ---------------------------------------


    POTLOK:  cpu time      0.1105: real time      0.1135
    SETDIJ:  cpu time      0.0108: real time      0.0109
     EDDAV:  cpu time     77.8568: real time     78.9756
 BZINTS: Fermi energy:    2.312602;  256.000000 electrons
         Band energy:-0.724678E+03;  BLOECHL correction:    0.000000
       DOS:  cpu time      0.0076: real time      0.0076
    CHARGE:  cpu time      0.7770: real time      0.7819
    MIXING:  cpu time      0.0039: real time      0.0039
    --------------------------------------------
      LOOP:  cpu time     78.7665: real time     79.8934

 eigenvalue-minimisations  :  6504
 total energy-change (2. order) :-0.1314637E-02  (-0.2208751E-03)
 number of electron     255.9999609 magnetization 
 augmentation part      -41.2826146 magnetization 

 Broyden mixing:
  rms(total) = 0.50168E-02    rms(broyden)= 0.50168E-02
  rms(prec ) = 0.52652E-02
  weight for this iteration     100.00

 eigenvalues of (default mixing * dielectric matrix)
  average eigenvalue GAMMA=   1.7893
  3.0737  2.4855  1.6597  1.6597  0.9562  0.9012

 Free energy of the ion-electron system (eV)
  ---------------------------------------------------
  alpha Z        PSCENC =       570.21530070
  Ewald energy   TEWEN  =     -7186.72751706
  -Hartree energ DENC   =      -711.74624251
  -exchange      EXHF   =         0.00000000
  -V(xc)+E(xc)   XCENC  =      -974.55780017
  PAW double counting   =     14616.78005137   -13184.19292794
  entropy T*S    EENTRO =         0.00000000
  eigenvalues    EBANDS =      -724.67845981
  atomic energy  EATOM  =      7329.73306348
  Solvation  Ediel_sol  =         0.00000000
  ---------------------------------------------------
  free energy    TOTEN  =      -265.17453194 eV

  energy without entropy =     -265.17453194  energy(sigma->0) =     -265.17453194


--------------------------------------------------------------------------------------------------------




--------------------------------------- Iteration      1(  12)  ---------------------------------------


    POTLOK:  cpu time      0.1094: real time      0.1142
    SETDIJ:  cpu time      0.0108: real time      0.0109
     EDDAV:  cpu time     86.4775: real time     87.5580
 BZINTS: Fermi energy:    2.309076;  256.000000 electrons
         Band energy:-0.724634E+03;  BLOECHL correction:    0.000000
       DOS:  cpu time      0.0076: real time      0.0076
    CHARGE:  cpu time      0.7793: real time      0.7840
    MIXING:  cpu time      0.0044: real time      0.0044
    --------------------------------------------
      LOOP:  cpu time     87.3891: real time     88.4792

 eigenvalue-minimisations  :  7392
 total energy-change (2. order) :-0.7094035E-05  (-0.3078388E-05)
 number of electron     255.9999609 magnetization 
 augmentation part      -41.2825539 magnetization 

 Broyden mixing:
  rms(total) = 0.22508E-02    rms(broyden)= 0.22508E-02
  rms(prec ) = 0.25124E-02
  weight for this iteration     100.00

 eigenvalues of (default mixing * dielectric matrix)
  average eigenvalue GAMMA=   1.8860
  3.2467  2.6137  2.6137  1.3438  1.3438  1.0203  1.0203

 Free energy of the ion-electron system (eV)
  ---------------------------------------------------
  alpha Z        PSCENC =       570.21530070
  Ewald energy   TEWEN  =     -7186.72751706
  -Hartree energ DENC   =      -711.77840940
  -exchange      EXHF   =         0.00000000
  -V(xc)+E(xc)   XCENC  =      -974.56344398
  PAW double counting   =     14622.71914498   -13190.13910321
  entropy T*S    EENTRO =         0.00000000
  eigenvalues    EBANDS =      -724.63357455
  atomic energy  EATOM  =      7329.73306348
  Solvation  Ediel_sol  =         0.00000000
  ---------------------------------------------------
  free energy    TOTEN  =      -265.17453903 eV

  energy without entropy =     -265.17453903  energy(sigma->0) =     -265.17453903


--------------------------------------------------------------------------------------------------------




--------------------------------------- Iteration      1(  13)  ---------------------------------------


    POTLOK:  cpu time      0.1099: real time      0.1147
    SETDIJ:  cpu time      0.0107: real time      0.0108
     EDDAV:  cpu time     81.7954: real time     82.7656
 BZINTS: Fermi energy:    2.306222;  256.000000 electrons
         Band energy:-0.724507E+03;  BLOECHL correction:    0.000000
       DOS:  cpu time      0.0075: real time      0.0075
    CHARGE:  cpu time      0.7751: real time      0.7797
    MIXING:  cpu time      0.0041: real time      0.0041
    --------------------------------------------
      LOOP:  cpu time     82.7026: real time     83.6824

 eigenvalue-minimisations  :  6936
 total energy-change (2. order) :-0.9035944E-05  (-0.7871847E-05)
 number of electron     255.9999609 magnetization 
 augmentation part      -41.2818473 magnetization 

 Broyden mixing:
  rms(total) = 0.97814E-03    rms(broyden)= 0.97814E-03
  rms(prec ) = 0.10942E-02
  weight for this iteration     100.00

 eigenvalues of (default mixing * dielectric matrix)
  average eigenvalue GAMMA=   1.8439
  3.3817  2.7789  2.4409  1.6703  1.5848  1.1023  0.8961  0.8961

 Free energy of the ion-electron system (eV)
  ---------------------------------------------------
  alpha Z        PSCENC =       570.21530070
  Ewald energy   TEWEN  =     -7186.72751706
  -Hartree energ DENC   =      -711.90407920
  -exchange      EXHF   =         0.00000000
  -V(xc)+E(xc)   XCENC  =      -974.55854127
  PAW double counting   =     14626.47659255   -13193.90267184
  entropy T*S    EENTRO =         0.00000000
  eigenvalues    EBANDS =      -724.50669542
  atomic energy  EATOM  =      7329.73306348
  Solvation  Ediel_sol  =         0.00000000
  ---------------------------------------------------
  free energy    TOTEN  =      -265.17454807 eV

  energy without entropy =     -265.17454807  energy(sigma->0) =     -265.17454807


--------------------------------------------------------------------------------------------------------




--------------------------------------- Iteration      1(  14)  ---------------------------------------


    POTLOK:  cpu time      0.1087: real time      0.1116
    SETDIJ:  cpu time      0.0108: real time      0.0109
     EDDAV:  cpu time     72.2109: real time     73.1146
 BZINTS: Fermi energy:    2.309528;  256.000000 electrons
         Band energy:-0.724520E+03;  BLOECHL correction:    0.000000
       DOS:  cpu time      0.0072: real time      0.0073
    --------------------------------------------
      LOOP:  cpu time     72.3376: real time     73.2444

 eigenvalue-minimisations  :  5912
 total energy-change (2. order) : 0.6277078E-06  (-0.4085611E-06)
 number of electron     255.9999609 magnetization 
 augmentation part      -41.2818473 magnetization 

 Free energy of the ion-electron system (eV)
  ---------------------------------------------------
  alpha Z        PSCENC =       570.21530070
  Ewald energy   TEWEN  =     -7186.72751706
  -Hartree energ DENC   =      -711.89228354
  -exchange      EXHF   =         0.00000000
  -V(xc)+E(xc)   XCENC  =      -974.55865641
  PAW double counting   =     14626.50176992   -13193.92661875
  entropy T*S    EENTRO =         0.00000000
  eigenvalues    EBANDS =      -724.51960577
  atomic energy  EATOM  =      7329.73306348
  Solvation  Ediel_sol  =         0.00000000
  ---------------------------------------------------
  free energy    TOTEN  =      -265.17454744 eV

  energy without entropy =     -265.17454744  energy(sigma->0) =     -265.17454744


--------------------------------------------------------------------------------------------------------




 average (electrostatic) potential at core
  the test charge radii are     1.0621  1.2767
  (the norm of the test charge is              1.0000)
       1 -51.9159       2 -51.9159       3 -51.9159       4 -51.9159       5 -51.9159
       6 -51.9159       7 -51.9159       8 -51.9159       9 -51.9159      10 -51.9159
      11 -51.9159      12 -51.9159      13 -51.9159      14 -51.9159      15 -51.9159
      16 -51.9159      17 -51.9159      18 -51.9159      19 -51.9159      20 -51.9159
      21 -51.9159      22 -51.9159      23 -51.9159      24 -51.9159      25 -51.9159
      26 -51.9159      27 -51.9159      28 -51.9159      29 -51.9159      30 -51.9159
      31 -51.9159      32 -51.9159      33 -15.0908      34 -15.0908      35 -15.0908
      36 -15.0908      37 -15.0908      38 -15.0908      39 -15.0908      40 -15.0908
      41 -15.0908      42 -15.0908      43 -15.0908      44 -15.0908      45 -15.0908
      46 -15.0908      47 -15.0908      48 -15.0908      49 -15.0908      50 -15.0908
      51 -15.0908      52 -15.0908      53 -15.0908      54 -15.0908      55 -15.0908
      56 -15.0908      57 -15.0908      58 -15.0908      59 -15.0908      60 -15.0908
      61 -15.0908      62 -15.0908      63 -15.0908      64 -15.0908
 
 
 
 E-fermi :   2.3095     XC(G=0):  -8.9395     alpha+bet : -8.0573

 val. band max:        2.2813456572   @ k =   0.0000   0.0000   0.0000
 cond. band min:       2.3896947751   @ k =   0.0000   0.0000   0.0000
 fundamental gap:      0.1083491179
 Fermi energy:         2.3095276899

 k-point     1 :       0.0000    0.0000    0.0000
  band No.  band energies     occupation 
      1     -10.0236      2.00000
      2      -9.2328      2.00000
      3      -9.2328      2.00000
      4      -9.2205      2.00000
      5      -9.2205      2.00000
      6      -9.2205      2.00000
      7      -9.2205      2.00000
      8      -8.6271      2.00000
      9      -8.6271      2.00000
     10      -8.6271      2.00000
     11      -8.6271      2.00000
     12      -8.6271      2.00000
     13      -8.6271      2.00000
     14      -8.6271      2.00000
     15      -8.6271      2.00000
     16      -8.6224      2.00000
     17      -8.6224      2.00000
     18      -8.6224      2.00000
     19      -8.6224      2.00000
     20      -8.5397      2.00000
     21      -8.5397      2.00000
     22      -8.5397      2.00000
     23      -8.5397      2.00000
     24      -7.9161      2.00000
     25      -7.8861      2.00000
     26      -7.8861      2.00000
     27      -7.8658      2.00000
     28      -7.8658      2.00000
     29      -7.8658      2.00000
     30      -7.8658      2.00000
     31      -7.8533      2.00000
     32      -7.8533      2.00000
     33      -4.2873      2.00000
     34      -4.2327      2.00000
     35      -4.2327      2.00000
     36      -4.0843      2.00000
     37      -4.0843      2.00000
     38      -4.0843      2.00000
     39      -4.0843      2.00000
     40      -4.0652      2.00000
     41      -4.0652      2.00000
     42      -4.0284      2.00000
     43      -4.0284      2.00000
     44      -4.0284      2.00000
     45      -4.0284      2.00000
     46      -3.1976      2.00000
     47      -3.1976      2.00000
     48      -3.1976      2.00000
     49      -3.1976      2.00000
     50      -3.1812      2.00000
     51      -3.1812      2.00000
     52      -3.1812      2.00000
     53      -3.1812      2.00000
     54      -3.1812      2.00000
     55      -3.1812      2.00000
     56      -3.1812      2.00000
     57      -3.1812      2.00000
     58      -1.8163      2.00000
     59      -1.8163      2.00000
     60      -1.7696      2.00000
     61      -1.7696      2.00000
     62      -1.7696      2.00000
     63      -1.7696      2.00000
[...]
   15.638717    0.401903    0.411567    0.411567   -0.000000    0.000000    0.000000
   15.658715    0.403417    0.413085    0.413085   -0.000000    0.000000    0.000000
   15.678713    0.404946    0.414632    0.414632   -0.000000    0.000000    0.000000
   15.698712    0.406496    0.416216    0.416216   -0.000000    0.000000    0.000000
   15.718710    0.408067    0.417839    0.417839   -0.000000    0.000000    0.000000
   15.738708    0.409655    0.419498    0.419498   -0.000000    0.000000    0.000000
   15.758707    0.411261    0.421187    0.421187   -0.000000    0.000000    0.000000
   15.778705    0.412881    0.422897    0.422897   -0.000000    0.000000    0.000000
   15.798703    0.414516    0.424621    0.424621   -0.000000    0.000000    0.000000
   15.818702    0.416164    0.426350    0.426350   -0.000000    0.000000    0.000000
   15.838700    0.417823    0.428081    0.428081   -0.000000    0.000000    0.000000
   15.858699    0.419490    0.429809    0.429809   -0.000000    0.000000    0.000000
   15.878697    0.421165    0.431533    0.431533   -0.000000    0.000000    0.000000
   15.898695    0.422845    0.433250    0.433250   -0.000000    0.000000    0.000000
   15.918694    0.424529    0.434965    0.434965   -0.000000    0.000000    0.000000
   15.938692    0.426220    0.436679    0.436679   -0.000000    0.000000    0.000000
   15.958690    0.427919    0.438395    0.438395   -0.000000    0.000000    0.000000
   15.978689    0.429629    0.440113    0.440113   -0.000000    0.000000    0.000000
   15.998687    0.431348    0.441828    0.441828   -0.000000    0.000000    0.000000
   16.018685    0.433070    0.443537    0.443537   -0.000000    0.000000    0.000000
   16.038684    0.434790    0.445238    0.445238   -0.000000    0.000000    0.000000
   16.058682    0.436501    0.446929    0.446929   -0.000000    0.000000    0.000000
   16.078680    0.438205    0.448615    0.448615   -0.000000    0.000000    0.000000
   16.098679    0.439904    0.450297    0.450297   -0.000000    0.000000    0.000000
   16.118677    0.441601    0.451978    0.451978   -0.000000    0.000000    0.000000
   16.138676    0.443298    0.453660    0.453660   -0.000000    0.000000    0.000000
   16.158674    0.444996    0.455341    0.455341   -0.000000    0.000000    0.000000
   16.178672    0.446692    0.457017    0.457017   -0.000000    0.000000    0.000000
   16.198671    0.448382    0.458685    0.458685   -0.000000    0.000000    0.000000
   16.218669    0.450065    0.460344    0.460344   -0.000000    0.000000    0.000000
   16.238667    0.451738    0.461992    0.461992   -0.000000    0.000000    0.000000
   16.258666    0.453398    0.463627    0.463627   -0.000000    0.000000    0.000000
   16.278664    0.455047    0.465250    0.465250   -0.000000    0.000000    0.000000
   16.298662    0.456683    0.466861    0.466861   -0.000000    0.000000    0.000000
   16.318661    0.458307    0.468459    0.468459   -0.000000    0.000000    0.000000
   16.338659    0.459919    0.470045    0.470045   -0.000000    0.000000    0.000000
   16.358658    0.461518    0.471619    0.471619   -0.000000    0.000000    0.000000
   16.378656    0.463106    0.473182    0.473182   -0.000000    0.000000    0.000000
   16.398654    0.464683    0.474734    0.474734   -0.000000    0.000000    0.000000
   16.418653    0.466249    0.476275    0.476275   -0.000000    0.000000    0.000000
   16.438651    0.467805    0.477806    0.477806   -0.000000    0.000000    0.000000
   16.458649    0.469350    0.479327    0.479327   -0.000000    0.000000    0.000000
   16.478648    0.470885    0.480838    0.480838   -0.000000    0.000000    0.000000
   16.498646    0.472410    0.482339    0.482339   -0.000000    0.000000    0.000000
   16.518644    0.473926    0.483831    0.483831   -0.000000    0.000000    0.000000
   16.538643    0.475432    0.485313    0.485313   -0.000000    0.000000    0.000000
   16.558641    0.476929    0.486787    0.486787   -0.000000    0.000000    0.000000
   16.578639    0.478417    0.488251    0.488251   -0.000000    0.000000    0.000000
   16.598638    0.479896    0.489707    0.489707   -0.000000    0.000000    0.000000
   16.618636    0.481367    0.491154    0.491154   -0.000000    0.000000    0.000000
   16.638635    0.482828    0.492592    0.492592   -0.000000    0.000000    0.000000
   16.658633    0.484281    0.494022    0.494022   -0.000000    0.000000    0.000000
   16.678631    0.485726    0.495444    0.495444   -0.000000    0.000000    0.000000
   16.698630    0.487163    0.496858    0.496858   -0.000000    0.000000    0.000000
   16.718628    0.488591    0.498264    0.498264   -0.000000    0.000000    0.000000
   16.738626    0.490012    0.499663    0.499663   -0.000000    0.000000    0.000000
   16.758625    0.491424    0.501053    0.501053   -0.000000    0.000000    0.000000
   16.778623    0.492829    0.502436    0.502436   -0.000000    0.000000    0.000000
   16.798621    0.494227    0.503812    0.503812   -0.000000    0.000000    0.000000
   16.818620    0.495617    0.505180    0.505180   -0.000000    0.000000    0.000000
   16.838618    0.496999    0.506541    0.506541   -0.000000    0.000000    0.000000
   16.858616    0.498375    0.507895    0.507895   -0.000000    0.000000    0.000000
   16.878615    0.499743    0.509241    0.509241   -0.000000    0.000000    0.000000
   16.898613    0.501104    0.510581    0.510581   -0.000000    0.000000    0.000000
   16.918612    0.502458    0.511914    0.511914   -0.000000    0.000000    0.000000
   16.938610    0.503806    0.513241    0.513241   -0.000000    0.000000    0.000000
   16.958608    0.505146    0.514560    0.514560   -0.000000    0.000000    0.000000
   16.978607    0.506480    0.515873    0.515873   -0.000000    0.000000    0.000000
   16.998605    0.507808    0.517180    0.517180   -0.000000    0.000000    0.000000
   17.018603    0.509129    0.518480    0.518480   -0.000000    0.000000    0.000000
   17.038602    0.510443    0.519773    0.519773   -0.000000    0.000000    0.000000
   17.058600    0.511751    0.521061    0.521061   -0.000000    0.000000    0.000000
   17.078598    0.513053    0.522342    0.522342   -0.000000    0.000000    0.000000
   17.098597    0.514348    0.523617    0.523617   -0.000000    0.000000    0.000000
   17.118595    0.515637    0.524886    0.524886   -0.000000    0.000000    0.000000
   17.138593    0.516920    0.526148    0.526148   -0.000000    0.000000    0.000000
   17.158592    0.518197    0.527405    0.527405   -0.000000    0.000000    0.000000
   17.178590    0.519468    0.528656    0.528656   -0.000000    0.000000    0.000000
   17.198589    0.520734    0.529901    0.529901   -0.000000    0.000000    0.000000
   17.218587    0.521993    0.531140    0.531140   -0.000000    0.000000    0.000000
   17.238585    0.523246    0.532374    0.532374   -0.000000    0.000000    0.000000
   17.258584    0.524494    0.533601    0.533601   -0.000000    0.000000    0.000000
   17.278582    0.525736    0.534824    0.534824   -0.000000    0.000000    0.000000
   17.298580    0.526972    0.536040    0.536040   -0.000000    0.000000    0.000000
   17.318579    0.528203    0.537251    0.537251   -0.000000    0.000000    0.000000
   17.338577    0.529428    0.538456    0.538456   -0.000000    0.000000    0.000000
   17.358575    0.530648    0.539656    0.539656   -0.000000    0.000000    0.000000
   17.378574    0.531862    0.540851    0.540851   -0.000000    0.000000    0.000000
   17.398572    0.533070    0.542040    0.542040   -0.000000    0.000000    0.000000
   17.418571    0.534274    0.543224    0.543224   -0.000000    0.000000    0.000000
   17.438569    0.535472    0.544403    0.544403   -0.000000    0.000000    0.000000
   17.458567    0.536665    0.545576    0.545576   -0.000000    0.000000    0.000000
   17.478566    0.537852    0.546744    0.546744   -0.000000    0.000000    0.000000
   17.498564    0.539034    0.547907    0.547907   -0.000000    0.000000    0.000000
   17.518562    0.540212    0.549065    0.549065   -0.000000    0.000000    0.000000
   17.538561    0.541384    0.550218    0.550218   -0.000000    0.000000    0.000000
   17.558559    0.542551    0.551366    0.551366   -0.000000    0.000000    0.000000
   17.578557    0.543712    0.552509    0.552509   -0.000000    0.000000    0.000000
   17.598556    0.544869    0.553647    0.553647   -0.000000    0.000000    0.000000
   17.618554    0.546021    0.554780    0.554780   -0.000000    0.000000    0.000000
   17.638552    0.547168    0.555909    0.555909   -0.000000    0.000000    0.000000
   17.658551    0.548311    0.557032    0.557032   -0.000000    0.000000    0.000000
   17.678549    0.549448    0.558151    0.558151   -0.000000    0.000000    0.000000
   17.698548    0.550580    0.559265    0.559265   -0.000000    0.000000    0.000000
   17.718546    0.551708    0.560374    0.560374   -0.000000    0.000000    0.000000
   17.738544    0.552831    0.561478    0.561478   -0.000000    0.000000    0.000000
   17.758543    0.553950    0.562578    0.562578   -0.000000    0.000000    0.000000
   17.778541    0.555063    0.563673    0.563673   -0.000000    0.000000    0.000000
   17.798539    0.556172    0.564764    0.564764   -0.000000    0.000000    0.000000
   17.818538    0.557277    0.565850    0.565850   -0.000000    0.000000    0.000000
   17.838536    0.558376    0.566931    0.566931   -0.000000    0.000000    0.000000
   17.858534    0.559472    0.568009    0.568009   -0.000000    0.000000    0.000000
   17.878533    0.560563    0.569081    0.569081   -0.000000    0.000000    0.000000
   17.898531    0.561649    0.570149    0.570149   -0.000000    0.000000    0.000000
   17.918529    0.562731    0.571213    0.571213   -0.000000    0.000000    0.000000
   17.938528    0.563808    0.572273    0.572273   -0.000000    0.000000    0.000000
   17.958526    0.564881    0.573328    0.573328   -0.000000    0.000000    0.000000
   17.978525    0.565950    0.574378    0.574378   -0.000000    0.000000    0.000000
   17.998523    0.567014    0.575425    0.575425   -0.000000    0.000000    0.000000
   18.018521    0.568075    0.576467    0.576467   -0.000000    0.000000    0.000000
   18.038520    0.569130    0.577505    0.577505   -0.000000    0.000000    0.000000
   18.058518    0.570182    0.578539    0.578539   -0.000000    0.000000    0.000000
   18.078516    0.571229    0.579569    0.579569   -0.000000    0.000000    0.000000
   18.098515    0.572272    0.580594    0.580594   -0.000000    0.000000    0.000000
   18.118513    0.573312    0.581616    0.581616   -0.000000    0.000000    0.000000
   18.138511    0.574346    0.582633    0.582633   -0.000000    0.000000    0.000000
   18.158510    0.575377    0.583647    0.583647   -0.000000    0.000000    0.000000
   18.178508    0.576404    0.584656    0.584656   -0.000000    0.000000    0.000000
   18.198507    0.577427    0.585661    0.585661   -0.000000    0.000000    0.000000
   18.218505    0.578445    0.586662    0.586662   -0.000000    0.000000    0.000000
   18.238503    0.579460    0.587660    0.587660   -0.000000    0.000000    0.000000
   18.258502    0.580471    0.588653    0.588653   -0.000000    0.000000    0.000000
   18.278500    0.581477    0.589643    0.589643   -0.000000    0.000000    0.000000
   18.298498    0.582480    0.590628    0.590628   -0.000000    0.000000    0.000000
   18.318497    0.583479    0.591610    0.591610   -0.000000    0.000000    0.000000
   18.338495    0.584474    0.592588    0.592588   -0.000000    0.000000    0.000000
   18.358493    0.585465    0.593562    0.593562   -0.000000    0.000000    0.000000
   18.378492    0.586452    0.594533    0.594533   -0.000000    0.000000    0.000000
   18.398490    0.587436    0.595499    0.595499   -0.000000    0.000000    0.000000
   18.418488    0.588416    0.596462    0.596462   -0.000000    0.000000    0.000000
   18.438487    0.589392    0.597421    0.597421   -0.000000    0.000000    0.000000
   18.458485    0.590364    0.598377    0.598377   -0.000000    0.000000    0.000000
   18.478484    0.591332    0.599329    0.599329   -0.000000    0.000000    0.000000
   18.498482    0.592297    0.600277    0.600277   -0.000000    0.000000    0.000000
   18.518480    0.593258    0.601221    0.601221   -0.000000    0.000000    0.000000
   18.538479    0.594216    0.602162    0.602162   -0.000000    0.000000    0.000000
   18.558477    0.595170    0.603100    0.603100   -0.000000    0.000000    0.000000
   18.578475    0.596120    0.604033    0.604033   -0.000000    0.000000    0.000000
   18.598474    0.597067    0.604964    0.604964   -0.000000    0.000000    0.000000
   18.618472    0.598010    0.605890    0.605890   -0.000000    0.000000    0.000000
   18.638470    0.598949    0.606814    0.606814   -0.000000    0.000000    0.000000
   18.658469    0.599885    0.607733    0.607733   -0.000000    0.000000    0.000000
   18.678467    0.600818    0.608650    0.608650   -0.000000    0.000000    0.000000
   18.698465    0.601747    0.609563    0.609563   -0.000000    0.000000    0.000000
   18.718464    0.602672    0.610472    0.610472   -0.000000    0.000000    0.000000
   18.738462    0.603595    0.611378    0.611378   -0.000000    0.000000    0.000000
   18.758461    0.604513    0.612281    0.612281   -0.000000    0.000000    0.000000
   18.778459    0.605429    0.613180    0.613180   -0.000000    0.000000    0.000000
   18.798457    0.606340    0.614076    0.614076   -0.000000    0.000000    0.000000
   18.818456    0.607249    0.614969    0.614969   -0.000000    0.000000    0.000000
   18.838454    0.608154    0.615858    0.615858   -0.000000    0.000000    0.000000
   18.858452    0.609056    0.616744    0.616744   -0.000000    0.000000    0.000000
   18.878451    0.609955    0.617627    0.617627   -0.000000    0.000000    0.000000
   18.898449    0.610850    0.618506    0.618506   -0.000000    0.000000    0.000000
   18.918447    0.611742    0.619382    0.619382   -0.000000    0.000000    0.000000
   18.938446    0.612630    0.620255    0.620255   -0.000000    0.000000    0.000000
   18.958444    0.613516    0.621125    0.621125   -0.000000    0.000000    0.000000
   18.978443    0.614398    0.621992    0.621992   -0.000000    0.000000    0.000000
   18.998441    0.615277    0.622856    0.622856   -0.000000    0.000000    0.000000
   19.018439    0.616153    0.623716    0.623716   -0.000000    0.000000    0.000000
   19.038438    0.617026    0.624573    0.624573   -0.000000    0.000000    0.000000
   19.058436    0.617895    0.625427    0.625427   -0.000000    0.000000    0.000000
   19.078434    0.618762    0.626278    0.626278   -0.000000    0.000000    0.000000
   19.098433    0.619625    0.627126    0.627126   -0.000000    0.000000    0.000000
   19.118431    0.620485    0.627971    0.627971   -0.000000    0.000000    0.000000
   19.138429    0.621342    0.628813    0.628813   -0.000000    0.000000    0.000000
   19.158428    0.622196    0.629652    0.629652   -0.000000    0.000000    0.000000
   19.178426    0.623047    0.630488    0.630488   -0.000000    0.000000    0.000000
   19.198424    0.623895    0.631321    0.631321   -0.000000    0.000000    0.000000
   19.218423    0.624740    0.632151    0.632151   -0.000000    0.000000    0.000000
   19.238421    0.625582    0.632978    0.632978   -0.000000    0.000000    0.000000
   19.258420    0.626421    0.633802    0.633802   -0.000000    0.000000    0.000000
   19.278418    0.627257    0.634623    0.634623   -0.000000    0.000000    0.000000
   19.298416    0.628090    0.635441    0.635441   -0.000000    0.000000    0.000000
   19.318415    0.628920    0.636256    0.636256   -0.000000    0.000000    0.000000
   19.338413    0.629747    0.637068    0.637068   -0.000000    0.000000    0.000000
   19.358411    0.630571    0.637878    0.637878   -0.000000    0.000000    0.000000
   19.378410    0.631393    0.638684    0.638684   -0.000000    0.000000    0.000000
   19.398408    0.632211    0.639488    0.639488   -0.000000    0.000000    0.000000
   19.418406    0.633027    0.640289    0.640289   -0.000000    0.000000    0.000000
   19.438405    0.633839    0.641087    0.641087   -0.000000    0.000000    0.000000
   19.458403    0.634649    0.641882    0.641882   -0.000000    0.000000    0.000000
   19.478401    0.635456    0.642675    0.642675   -0.000000    0.000000    0.000000
   19.498400    0.636260    0.643465    0.643465   -0.000000    0.000000    0.000000
   19.518398    0.637062    0.644252    0.644252   -0.000000    0.000000    0.000000
   19.538397    0.637861    0.645036    0.645036   -0.000000    0.000000    0.000000
   19.558395    0.638656    0.645818    0.645818   -0.000000    0.000000    0.000000
   19.578393    0.639450    0.646596    0.646596   -0.000000    0.000000    0.000000
   19.598392    0.640240    0.647373    0.647373   -0.000000    0.000000    0.000000
   19.618390    0.641028    0.648146    0.648146   -0.000000    0.000000    0.000000
   19.638388    0.641813    0.648917    0.648917   -0.000000    0.000000    0.000000
   19.658387    0.642595    0.649685    0.649685   -0.000000    0.000000    0.000000
   19.678385    0.643374    0.650450    0.650450   -0.000000    0.000000    0.000000
   19.698383    0.644151    0.651213    0.651213   -0.000000    0.000000    0.000000
   19.718382    0.644926    0.651974    0.651974   -0.000000    0.000000    0.000000
   19.738380    0.645697    0.652731    0.652731   -0.000000    0.000000    0.000000
   19.758378    0.646466    0.653486    0.653486   -0.000000    0.000000    0.000000
   19.778377    0.647233    0.654239    0.654239   -0.000000    0.000000    0.000000
   19.798375    0.647996    0.654989    0.654989   -0.000000    0.000000    0.000000
   19.818374    0.648757    0.655736    0.655736   -0.000000    0.000000    0.000000
   19.838372    0.649516    0.656481    0.656481   -0.000000    0.000000    0.000000
   19.858370    0.650272    0.657223    0.657223   -0.000000    0.000000    0.000000
   19.878369    0.651026    0.657963    0.657963   -0.000000    0.000000    0.000000
   19.898367    0.651776    0.658700    0.658700   -0.000000    0.000000    0.000000
   19.918365    0.652525    0.659435    0.659435   -0.000000    0.000000    0.000000
   19.938364    0.653271    0.660167    0.660167   -0.000000    0.000000    0.000000
   19.958362    0.654014    0.660897    0.660897   -0.000000    0.000000    0.000000
   19.978360    0.654755    0.661624    0.661624   -0.000000    0.000000    0.000000
 
 The outermost node in the dielectric function lies at epsilon=  12.2


--------------------------------------------------------------------------------------------------------


    OPTICS:  cpu time     36.8705: real time     37.3888
    4ORBIT:  cpu time      0.0000: real time      0.0000
 BZINTS: Fermi energy:    2.294558;  256.000000 electrons
         Band energy:-0.724533E+03;  BLOECHL correction:    0.000000

 total amount of memory used by VASP MPI-rank0   363515. kBytes
=======================================================================

   base      :      30000. kBytes
   nonl-proj :     133351. kBytes
   fftplans  :       7212. kBytes
   grid      :      18251. kBytes
   one-center:        519. kBytes
   wavefun   :     174182. kBytes
 
  
  
 General timing and accounting informations for this job:
 ========================================================
  
                  Total CPU time used (sec):    11297.801
                            User time (sec):    10970.766
                          System time (sec):      327.034
                         Elapsed time (sec):    11438.580
  
                   Maximum memory used (kb):     1898848.
                   Average memory used (kb):          N/A
  
                          Minor page faults:       180391
                          Major page faults:          249
                 Voluntary context switches:        22987
