 vasp.6.4.3 19Mar24 (build Aug 29 2024 15:27:20) complex                        
  
 executed on             LinuxIFC date 2025.03.24  15:34:14
 running    8 mpi-ranks, on    1 nodes
 distrk:  each k-point on    8 cores,    1 groups
 distr:  one band on NCORE=   1 cores,    8 groups


--------------------------------------------------------------------------------------------------------


 INCAR:
   SYSTEM = GaAs
   PREC = Normal
   ENCUT = 400
   ISMEAR = -5
   SIGMA = 0.1
   IBRION = 2
   POTIM = 0.1
   NFREE = 2
   NSW = 100
   ISIF = 2
   LEPSILON = .TRUE.
   LOPTICS = .TRUE.

 POTCAR:    PAW_PBE As 22Sep2009                  
 POTCAR:    PAW_PBE Ga 08Apr2002                  
 -----------------------------------------------------------------------------
|                                                                             |
|           W    W    AA    RRRRR   N    N  II  N    N   GGGG   !!!           |
|           W    W   A  A   R    R  NN   N  II  NN   N  G    G  !!!           |
|           W    W  A    A  R    R  N N  N  II  N N  N  G       !!!           |
|           W WW W  AAAAAA  RRRRR   N  N N  II  N  N N  G  GGG   !            |
|           WW  WW  A    A  R   R   N   NN  II  N   NN  G    G                |
|           W    W  A    A  R    R  N    N  II  N    N   GGGG   !!!           |
|                                                                             |
|     For optimal performance we recommend to set                             |
|       NCORE = 2 up to number-of-cores-per-socket                            |
|     NCORE specifies how many cores store one orbital (NPAR=cpu/NCORE).      |
|     This setting can greatly improve the performance of VASP for DFT.       |
|     The default, NCORE=1 might be grossly inefficient on modern             |
|     multi-core architectures or massively parallel machines. Do your        |
|     own testing! More info at https://www.vasp.at/wiki/index.php/NCORE      |
|     Unfortunately you need to use the default for GW and RPA                |
|     calculations (for HF NCORE is supported but not extensively tested      |
|     yet).                                                                   |
|                                                                             |
 -----------------------------------------------------------------------------

 POTCAR:    PAW_PBE As 22Sep2009                  
   VRHFIN =As: s2p3                                                                                 
   LEXCH  = PE                                                                                      
   EATOM  =   170.1867 eV,   12.5084 Ry                                                             
                                                                                                    
   TITEL  = PAW_PBE As 22Sep2009                                                                    
   LULTRA =        F    use ultrasoft PP ?                                                          
   IUNSCR =        1    unscreen: 0-lin 1-nonlin 2-no                                               
   RPACOR =    1.900    partial core radius                                                         
   POMASS =   74.922; ZVAL   =    5.000    mass and valenz                                          
   RCORE  =    2.100    outmost cutoff radius                                                       
   RWIGS  =    2.300; RWIGS  =    1.217    wigner-seitz radius (au A)                               
   ENMAX  =  208.702; ENMIN  =  156.526 eV                                                          
   ICORE  =        3    local potential                                                             
   LCOR   =        T    correct aug charges                                                         
   LPAW   =        T    paw PP                                                                      
   EAUG   =  462.758                                                                                
   DEXC   =    0.000                                                                                
   RMAX   =    2.144    core radius for proj-oper                                                   
   RAUG   =    1.300    factor for augmentation sphere                                              
   RDEP   =    2.140    radius for radial grids                                                     
   RDEPT  =    1.956    core radius for aug-charge                                                  
                                                                                                    
   Atomic configuration                                                                             
   10 entries                                                                                       
     n  l   j            E        occ.                                                              
     1  0  0.50    -11718.0418   2.0000                                                             
     2  0  0.50     -1486.5454   2.0000                                                             
     2  1  1.50     -1303.3889   6.0000                                                             
     3  0  0.50      -190.2849   2.0000                                                             
     3  1  1.50      -133.6555   6.0000                                                             
     3  2  2.50       -40.6443  10.0000                                                             
     4  0  0.50       -14.4936   2.0000                                                             
     4  1  0.50        -5.1947   3.0000                                                             
     4  2  1.50        -5.4423   0.0000                                                             
     4  3  2.50        -5.4423   0.0000                                                             
   Description                                                                                      
     l       E           TYP  RCUT    TYP  RCUT                                                     
     0    -14.4935570     23  2.100                                                                 
     0    -11.9212055     23  2.100                                                                 
     1     -5.1947127     23  2.100                                                                 
     1     27.2116520     23  2.100                                                                 
     2     -5.4423304     23  2.100                                                                 
     3     -1.3605826      7  2.100                                                                 
  local pseudopotential read in
  partial core-charges read in
  partial kinetic energy density read in
  atomic valenz-charges read in
  non local Contribution for L=           0  read in
    real space projection operators read in
  non local Contribution for L=           0  read in
    real space projection operators read in
  non local Contribution for L=           1  read in
    real space projection operators read in
  non local Contribution for L=           1  read in
    real space projection operators read in
  non local Contribution for L=           2  read in
    real space projection operators read in
    PAW grid and wavefunctions read in
 
   number of l-projection  operators is LMAX  =           5
   number of lm-projection operators is LMMAX =          13
 
 POTCAR:    PAW_PBE Ga 08Apr2002                  
   VRHFIN =Ga: s2p1                                                                                 
   LEXCH  = PE                                                                                      
   EATOM  =    58.8688 eV,    4.3267 Ry                                                             
                                                                                                    
   TITEL  = PAW_PBE Ga 08Apr2002                                                                    
   LULTRA =        F    use ultrasoft PP ?                                                          
   IUNSCR =        1    unscreen: 0-lin 1-nonlin 2-no                                               
   RPACOR =    2.170    partial core radius                                                         
   POMASS =   69.723; ZVAL   =    3.000    mass and valenz                                          
   RCORE  =    2.600    outmost cutoff radius                                                       
   RWIGS  =    2.650; RWIGS  =    1.402    wigner-seitz radius (au A)                               
   ENMAX  =  134.678; ENMIN  =  101.009 eV                                                          
   ICORE  =        3    local potential                                                             
   LCOR   =        T    correct aug charges                                                         
   LPAW   =        T    paw PP                                                                      
   EAUG   =  320.264                                                                                
   DEXC   =    0.000                                                                                
   RMAX   =    2.658    core radius for proj-oper                                                   
   RAUG   =    1.300    factor for augmentation sphere                                              
   RDEP   =    2.684    radius for radial grids                                                     
   RDEPT  =    2.308    core radius for aug-charge                                                  
                                                                                                    
   Atomic configuration                                                                             
   10 entries                                                                                       
     n  l   j            E        occ.                                                              
     1  0  0.50    -10228.7830   2.0000                                                             
     2  0  0.50     -1262.1604   2.0000                                                             
     2  1  1.50     -1098.6333   6.0000                                                             
     3  0  0.50      -148.1110   2.0000                                                             
     3  1  1.50       -98.8436   6.0000                                                             
     3  2  2.50       -19.1549  10.0000                                                             
     4  0  0.50        -8.9483   2.0000                                                             
     4  1  0.50        -2.5791   1.0000                                                             
     4  2  1.50         5.4423   0.0000                                                             
     4  3  2.50        -2.7416   0.0000                                                             
   Description                                                                                      
     l       E           TYP  RCUT    TYP  RCUT                                                     
     0     -8.9483097     23  2.600                                                                 
     0     -5.8232215     23  2.600                                                                 
     1     -2.5790793     23  2.600                                                                 
     1      5.2230115     23  2.600                                                                 
     2      1.3605826     23  2.600                                                                 
     3     -1.3605826      7  2.600                                                                 
  local pseudopotential read in
  partial core-charges read in
  partial kinetic energy density read in
  atomic valenz-charges read in
  non local Contribution for L=           0  read in
    real space projection operators read in
  non local Contribution for L=           0  read in
    real space projection operators read in
  non local Contribution for L=           1  read in
    real space projection operators read in
  non local Contribution for L=           1  read in
    real space projection operators read in
  non local Contribution for L=           2  read in
    real space projection operators read in
    PAW grid and wavefunctions read in
 
   number of l-projection  operators is LMAX  =           5
   number of lm-projection operators is LMMAX =          13
 
 -----------------------------------------------------------------------------
|                                                                             |
|               ----> ADVICE to this user running VASP <----                  |
|                                                                             |
|     You have a (more or less) 'large supercell' and for larger cells it     |
|     might be more efficient to use real-space projection operators.         |
|     Therefore, try LREAL= Auto in the INCAR file.                           |
|     Mind: For very accurate calculation, you might also keep the            |
|     reciprocal projection scheme (i.e. LREAL=.FALSE.).                      |
|                                                                             |
 -----------------------------------------------------------------------------

  PAW_PBE As 22Sep2009                  :
 energy of atom  1       EATOM= -170.1867
 kinetic energy error for atom=    0.0013 (will be added to EATOM!!)
  PAW_PBE Ga 08Apr2002                  :
 energy of atom  2       EATOM=  -58.8688
 kinetic energy error for atom=    0.0001 (will be added to EATOM!!)
 
 
 POSCAR: cubic gallium arsenide
  positions in direct lattice
  velocities in cartesian coordinates


 exchange-correlation table for PE
   RHO(1)=    0.500       N(1)  =     2000
   RHO(2)=  100.500       N(2)  =     4000
 


--------------------------------------------------------------------------------------------------------


 ion  position               nearest neighbor table
   1  0.000  0.000  0.000-  33 2.50  46 2.50  55 2.50  60 2.50
   2  0.000  0.000  0.500-  34 2.50  45 2.50  56 2.50  59 2.50
   3  0.000  0.500  0.000-  35 2.50  48 2.50  53 2.50  58 2.50
   4  0.000  0.500  0.500-  36 2.50  47 2.50  54 2.50  57 2.50
   5  0.500  0.000  0.000-  37 2.50  42 2.50  51 2.50  64 2.50
   6  0.500  0.000  0.500-  38 2.50  41 2.50  52 2.50  63 2.50
   7  0.500  0.500  0.000-  39 2.50  44 2.50  49 2.50  62 2.50
   8  0.500  0.500  0.500-  40 2.50  43 2.50  50 2.50  61 2.50
   9  0.250  0.250  0.000-  33 2.50  42 2.50  49 2.50  58 2.50
  10  0.250  0.250  0.500-  34 2.50  41 2.50  50 2.50  57 2.50
  11  0.250  0.750  0.000-  35 2.50  44 2.50  51 2.50  60 2.50
  12  0.250  0.750  0.500-  36 2.50  43 2.50  52 2.50  59 2.50
  13  0.750  0.250  0.000-  37 2.50  46 2.50  53 2.50  62 2.50
  14  0.750  0.250  0.500-  38 2.50  45 2.50  54 2.50  61 2.50
  15  0.750  0.750  0.000-  39 2.50  48 2.50  55 2.50  64 2.50
  16  0.750  0.750  0.500-  40 2.50  47 2.50  56 2.50  63 2.50
  17  0.250  0.000  0.250-  33 2.50  41 2.50  51 2.50  59 2.50
  18  0.250  0.000  0.750-  34 2.50  42 2.50  52 2.50  60 2.50
  19  0.250  0.500  0.250-  35 2.50  43 2.50  49 2.50  57 2.50
  20  0.250  0.500  0.750-  36 2.50  44 2.50  50 2.50  58 2.50
  21  0.750  0.000  0.250-  37 2.50  45 2.50  55 2.50  63 2.50
  22  0.750  0.000  0.750-  38 2.50  46 2.50  56 2.50  64 2.50
  23  0.750  0.500  0.250-  39 2.50  47 2.50  53 2.50  61 2.50
  24  0.750  0.500  0.750-  40 2.50  48 2.50  54 2.50  62 2.50
  25  0.000  0.250  0.250-  33 2.50  45 2.50  53 2.50  57 2.50
  26  0.000  0.250  0.750-  34 2.50  46 2.50  54 2.50  58 2.50
  27  0.000  0.750  0.250-  35 2.50  47 2.50  55 2.50  59 2.50
  28  0.000  0.750  0.750-  36 2.50  48 2.50  56 2.50  60 2.50
  29  0.500  0.250  0.250-  37 2.50  41 2.50  49 2.50  61 2.50
  30  0.500  0.250  0.750-  38 2.50  42 2.50  50 2.50  62 2.50
  31  0.500  0.750  0.250-  39 2.50  43 2.50  51 2.50  63 2.50
  32  0.500  0.750  0.750-  40 2.50  44 2.50  52 2.50  64 2.50
  33  0.125  0.125  0.125-   1 2.50   9 2.50  17 2.50  25 2.50
  34  0.125  0.125  0.625-   2 2.50  10 2.50  18 2.50  26 2.50
  35  0.125  0.625  0.125-   3 2.50  11 2.50  19 2.50  27 2.50
  36  0.125  0.625  0.625-   4 2.50  12 2.50  20 2.50  28 2.50
  37  0.625  0.125  0.125-   5 2.50  13 2.50  21 2.50  29 2.50
  38  0.625  0.125  0.625-   6 2.50  14 2.50  22 2.50  30 2.50
  39  0.625  0.625  0.125-   7 2.50  15 2.50  23 2.50  31 2.50
  40  0.625  0.625  0.625-   8 2.50  16 2.50  24 2.50  32 2.50
  41  0.375  0.125  0.375-   6 2.50  10 2.50  17 2.50  29 2.50
  42  0.375  0.125  0.875-   5 2.50   9 2.50  18 2.50  30 2.50
  43  0.375  0.625  0.375-   8 2.50  12 2.50  19 2.50  31 2.50
  44  0.375  0.625  0.875-   7 2.50  11 2.50  20 2.50  32 2.50
  45  0.875  0.125  0.375-   2 2.50  14 2.50  21 2.50  25 2.50
  46  0.875  0.125  0.875-   1 2.50  13 2.50  22 2.50  26 2.50
  47  0.875  0.625  0.375-   4 2.50  16 2.50  23 2.50  27 2.50
  48  0.875  0.625  0.875-   3 2.50  15 2.50  24 2.50  28 2.50
  49  0.375  0.375  0.125-   7 2.50   9 2.50  19 2.50  29 2.50
  50  0.375  0.375  0.625-   8 2.50  10 2.50  20 2.50  30 2.50
  51  0.375  0.875  0.125-   5 2.50  11 2.50  17 2.50  31 2.50
  52  0.375  0.875  0.625-   6 2.50  12 2.50  18 2.50  32 2.50
  53  0.875  0.375  0.125-   3 2.50  13 2.50  23 2.50  25 2.50
  54  0.875  0.375  0.625-   4 2.50  14 2.50  24 2.50  26 2.50
  55  0.875  0.875  0.125-   1 2.50  15 2.50  21 2.50  27 2.50
  56  0.875  0.875  0.625-   2 2.50  16 2.50  22 2.50  28 2.50
  57  0.125  0.375  0.375-   4 2.50  10 2.50  19 2.50  25 2.50
  58  0.125  0.375  0.875-   3 2.50   9 2.50  20 2.50  26 2.50
  59  0.125  0.875  0.375-   2 2.50  12 2.50  17 2.50  27 2.50
  60  0.125  0.875  0.875-   1 2.50  11 2.50  18 2.50  28 2.50
  61  0.625  0.375  0.375-   8 2.50  14 2.50  23 2.50  29 2.50
  62  0.625  0.375  0.875-   7 2.50  13 2.50  24 2.50  30 2.50
  63  0.625  0.875  0.375-   6 2.50  16 2.50  21 2.50  31 2.50
  64  0.625  0.875  0.875-   5 2.50  15 2.50  22 2.50  32 2.50
 
  LATTYP: Found a simple tetragonal cell.
 ALAT       =    11.4374671349
 C/A-ratio  =     1.0330057949
  
  Lattice vectors:
  
 A1 = (   0.0000000000,  11.4374671349,   0.0000000000)
 A2 = (   0.0000000000,   0.0000000000,  11.4374671349)
 A3 = (  11.8149698294,   0.0000000000,   0.0000000000)


Analysis of symmetry for initial positions (statically):
=====================================================================
 Subroutine PRICEL returns following result:
 
  LATTYP: Found a body centered tetragonal cell.
 ALAT       =     4.0437552853
 C/A-ratio  =     1.4608908052
  
  Lattice vectors:
  
 A1 = (   2.9537424574,   0.0000000000,   2.8593667837)
 A2 = (   2.9537424574,   0.0000000000,  -2.8593667837)
 A3 = (  -2.9537424574,   2.8593667837,   0.0000000000)
 
  32 primitive cells build up your supercell.
 

 Routine SETGRP: Setting up the symmetry group for a 
 simple tetragonal supercell.


 Subroutine GETGRP returns: Found  8 space group operations
 (whereof  8 operations were pure point group operations)
 out of a pool of 16 trial point group operations.


The static configuration has the point symmetry D_2d.


Analysis of symmetry for dynamics (positions and initial velocities):
=====================================================================
 Subroutine PRICEL returns following result:
 
  LATTYP: Found a body centered tetragonal cell.
 ALAT       =     4.0437552853
 C/A-ratio  =     1.4608908052
  
  Lattice vectors:
  
 A1 = (   2.9537424574,   0.0000000000,   2.8593667837)
 A2 = (   2.9537424574,   0.0000000000,  -2.8593667837)
 A3 = (  -2.9537424574,   2.8593667837,   0.0000000000)
 
  32 primitive cells build up your supercell.
 

 Routine SETGRP: Setting up the symmetry group for a 
 simple tetragonal supercell.


 Subroutine GETGRP returns: Found  8 space group operations
 (whereof  8 operations were pure point group operations)
 out of a pool of 16 trial point group operations.


The dynamic configuration has the point symmetry D_2d.


 Subroutine INISYM returns: Found  8 space group operations
 (whereof  8 operations are pure point group operations),
 and found    32 'primitive' translations


----------------------------------------------------------------------------------------

                                     Primitive cell                                     

  volume of cell :      48.2995

  direct lattice vectors                    reciprocal lattice vectors
     2.953742457  0.000000000  2.859366784     0.169276776  0.174863890  0.174863890
     2.953742457  0.000000000 -2.859366784     0.169276776  0.174863890 -0.174863890
    -2.953742457  2.859366784  0.000000000     0.000000000  0.349727781  0.000000000

  length of vectors
     4.111030638  4.111030638  4.111030638     0.299682144  0.299682144  0.349727781

  position of ions in fractional coordinates (direct lattice)
     0.000000000  0.000000000  0.000000000
     0.750000000  0.250000000  0.500000000

  ion indices of the primitive-cell ions
   primitive index   ion index
                 1           1
                 2          33

----------------------------------------------------------------------------------------

 
 
 KPOINTS: Automatic mesh                          

Automatic generation of k-mesh.
 Grid dimensions read from file:
 generate k-points for:    5    5    5

 Generating k-lattice:

  Cartesian coordinates                     Fractional coordinates (reciprocal lattice)
     0.016927678  0.000000000  0.000000000     0.200000000  0.000000000  0.000000000
     0.000000000  0.017486389  0.000000000     0.000000000  0.200000000  0.000000000
     0.000000000  0.000000000  0.017486389     0.000000000  0.000000000  0.200000000

  Length of vectors
     0.016927678  0.017486389  0.017486389

  Shift w.r.t. Gamma in fractional coordinates (k-lattice)
     0.000000000  0.000000000  0.000000000

 TETIRR: Found    177 inequivalent tetrahedra from      750
 
 Subroutine IBZKPT returns following result:
 ===========================================
 
 Found     18 irreducible k-points:
 
 Following reciprocal coordinates:
            Coordinates               Weight
  0.000000  0.000000  0.000000      1.000000
  0.200000  0.000000  0.000000      2.000000
  0.400000  0.000000  0.000000      2.000000
  0.000000  0.200000  0.000000      4.000000
  0.200000  0.200000  0.000000      8.000000
  0.400000  0.200000  0.000000      8.000000
  0.000000  0.400000  0.000000      4.000000
  0.200000  0.400000  0.000000      8.000000
  0.400000  0.400000  0.000000      8.000000
  0.000000  0.200000  0.200000      4.000000
  0.200000  0.200000  0.200000      8.000000
  0.400000  0.200000  0.200000      8.000000
  0.000000  0.400000  0.200000      8.000000
  0.200000  0.400000  0.200000     16.000000
  0.400000  0.400000  0.200000     16.000000
  0.000000  0.400000  0.400000      4.000000
  0.200000  0.400000  0.400000      8.000000
  0.400000  0.400000  0.400000      8.000000
 
 Following cartesian coordinates:
            Coordinates               Weight
  0.000000  0.000000  0.000000      1.000000
  0.016928  0.000000  0.000000      2.000000
  0.033855  0.000000  0.000000      2.000000
  0.000000  0.017486  0.000000      4.000000
  0.016928  0.017486  0.000000      8.000000
  0.033855  0.017486  0.000000      8.000000
  0.000000  0.034973  0.000000      4.000000
  0.016928  0.034973  0.000000      8.000000
  0.033855  0.034973  0.000000      8.000000
  0.000000  0.017486  0.017486      4.000000
  0.016928  0.017486  0.017486      8.000000
  0.033855  0.017486  0.017486      8.000000
  0.000000  0.034973  0.017486      8.000000
  0.016928  0.034973  0.017486     16.000000
  0.033855  0.034973  0.017486     16.000000
  0.000000  0.034973  0.034973      4.000000
  0.016928  0.034973  0.034973      8.000000
  0.033855  0.034973  0.034973      8.000000
 
 
 Subroutine IBZKPT_HF returns following result:
 ==============================================
 
 Found    125 k-points in 1st BZ
 the following    125 k-points will be used (e.g. in the exchange kernel)
 Following reciprocal coordinates:   # in IRBZ
  0.000000  0.000000  0.000000    0.00800000   1 t-inv F
  0.200000  0.000000  0.000000    0.00800000   2 t-inv F
  0.400000  0.000000  0.000000    0.00800000   3 t-inv F
  0.000000  0.200000  0.000000    0.00800000   4 t-inv F
  0.200000  0.200000  0.000000    0.00800000   5 t-inv F
  0.400000  0.200000  0.000000    0.00800000   6 t-inv F
  0.000000  0.400000  0.000000    0.00800000   7 t-inv F
  0.200000  0.400000  0.000000    0.00800000   8 t-inv F
  0.400000  0.400000  0.000000    0.00800000   9 t-inv F
  0.000000  0.200000  0.200000    0.00800000  10 t-inv F
  0.200000  0.200000  0.200000    0.00800000  11 t-inv F
  0.400000  0.200000  0.200000    0.00800000  12 t-inv F
  0.000000  0.400000  0.200000    0.00800000  13 t-inv F
  0.200000  0.400000  0.200000    0.00800000  14 t-inv F
  0.400000  0.400000  0.200000    0.00800000  15 t-inv F
  0.000000  0.400000  0.400000    0.00800000  16 t-inv F
  0.200000  0.400000  0.400000    0.00800000  17 t-inv F
  0.400000  0.400000  0.400000    0.00800000  18 t-inv F
 -0.200000  0.000000  0.000000    0.00800000   2 t-inv F
 -0.400000  0.000000  0.000000    0.00800000   3 t-inv F
  0.000000  0.000000 -0.200000    0.00800000   4 t-inv F
  0.000000 -0.200000  0.000000    0.00800000   4 t-inv F
  0.000000  0.000000  0.200000    0.00800000   4 t-inv F
 -0.200000  0.000000 -0.200000    0.00800000   5 t-inv F
  0.200000 -0.200000  0.000000    0.00800000   5 t-inv F
 -0.200000  0.000000  0.200000    0.00800000   5 t-inv F
 -0.200000 -0.200000  0.000000    0.00800000   5 t-inv F
  0.200000  0.000000 -0.200000    0.00800000   5 t-inv F
 -0.200000  0.200000  0.000000    0.00800000   5 t-inv F
  0.200000  0.000000  0.200000    0.00800000   5 t-inv F
 -0.400000  0.000000 -0.200000    0.00800000   6 t-inv F
  0.400000 -0.200000  0.000000    0.00800000   6 t-inv F
 -0.400000  0.000000  0.200000    0.00800000   6 t-inv F
 -0.400000 -0.200000  0.000000    0.00800000   6 t-inv F
  0.400000  0.000000 -0.200000    0.00800000   6 t-inv F
 -0.400000  0.200000  0.000000    0.00800000   6 t-inv F
  0.400000  0.000000  0.200000    0.00800000   6 t-inv F
  0.000000  0.000000 -0.400000    0.00800000   7 t-inv F
  0.000000 -0.400000  0.000000    0.00800000   7 t-inv F
  0.000000  0.000000  0.400000    0.00800000   7 t-inv F
 -0.200000  0.000000 -0.400000    0.00800000   8 t-inv F
  0.200000 -0.400000  0.000000    0.00800000   8 t-inv F
 -0.200000  0.000000  0.400000    0.00800000   8 t-inv F
 -0.200000 -0.400000  0.000000    0.00800000   8 t-inv F
  0.200000  0.000000 -0.400000    0.00800000   8 t-inv F
 -0.200000  0.400000  0.000000    0.00800000   8 t-inv F
  0.200000  0.000000  0.400000    0.00800000   8 t-inv F
 -0.400000  0.000000 -0.400000    0.00800000   9 t-inv F
  0.400000 -0.400000  0.000000    0.00800000   9 t-inv F
 -0.400000  0.000000  0.400000    0.00800000   9 t-inv F
 -0.400000 -0.400000  0.000000    0.00800000   9 t-inv F
  0.400000  0.000000 -0.400000    0.00800000   9 t-inv F
 -0.400000  0.400000  0.000000    0.00800000   9 t-inv F
  0.400000  0.000000  0.400000    0.00800000   9 t-inv F
  0.000000  0.200000 -0.200000    0.00800000  10 t-inv F
  0.000000 -0.200000 -0.200000    0.00800000  10 t-inv F
  0.000000 -0.200000  0.200000    0.00800000  10 t-inv F
 -0.200000  0.200000 -0.200000    0.00800000  11 t-inv F
  0.200000 -0.200000 -0.200000    0.00800000  11 t-inv F
 -0.200000 -0.200000  0.200000    0.00800000  11 t-inv F
 -0.400000  0.200000 -0.200000    0.00800000  12 t-inv F
  0.400000 -0.200000 -0.200000    0.00800000  12 t-inv F
 -0.400000 -0.200000  0.200000    0.00800000  12 t-inv F
  0.000000  0.200000 -0.400000    0.00800000  13 t-inv F
  0.000000 -0.400000 -0.200000    0.00800000  13 t-inv F
  0.000000 -0.200000  0.400000    0.00800000  13 t-inv F
  0.000000 -0.400000  0.200000    0.00800000  13 t-inv F
  0.000000 -0.200000 -0.400000    0.00800000  13 t-inv F
  0.000000  0.400000 -0.200000    0.00800000  13 t-inv F
  0.000000  0.200000  0.400000    0.00800000  13 t-inv F
 -0.200000  0.200000 -0.400000    0.00800000  14 t-inv F
  0.200000 -0.400000 -0.200000    0.00800000  14 t-inv F
 -0.200000 -0.200000  0.400000    0.00800000  14 t-inv F
 -0.200000 -0.400000  0.200000    0.00800000  14 t-inv F
  0.200000 -0.200000 -0.400000    0.00800000  14 t-inv F
 -0.200000  0.400000 -0.200000    0.00800000  14 t-inv F
  0.200000  0.200000  0.400000    0.00800000  14 t-inv F
 -0.400000  0.200000 -0.400000    0.00800000  15 t-inv F
  0.400000 -0.400000 -0.200000    0.00800000  15 t-inv F
 -0.400000 -0.200000  0.400000    0.00800000  15 t-inv F
 -0.400000 -0.400000  0.200000    0.00800000  15 t-inv F
  0.400000 -0.200000 -0.400000    0.00800000  15 t-inv F
 -0.400000  0.400000 -0.200000    0.00800000  15 t-inv F
  0.400000  0.200000  0.400000    0.00800000  15 t-inv F
  0.000000  0.400000 -0.400000    0.00800000  16 t-inv F
  0.000000 -0.400000 -0.400000    0.00800000  16 t-inv F
  0.000000 -0.400000  0.400000    0.00800000  16 t-inv F
 -0.200000  0.400000 -0.400000    0.00800000  17 t-inv F
  0.200000 -0.400000 -0.400000    0.00800000  17 t-inv F
 -0.200000 -0.400000  0.400000    0.00800000  17 t-inv F
 -0.400000  0.400000 -0.400000    0.00800000  18 t-inv F
  0.400000 -0.400000 -0.400000    0.00800000  18 t-inv F
 -0.400000 -0.400000  0.400000    0.00800000  18 t-inv F
 -0.200000 -0.200000 -0.200000    0.00800000  11 t-inv T
  0.200000 -0.200000  0.200000    0.00800000  11 t-inv T
 -0.200000  0.200000  0.200000    0.00800000  11 t-inv T
  0.200000  0.200000 -0.200000    0.00800000  11 t-inv T
 -0.400000 -0.200000 -0.200000    0.00800000  12 t-inv T
  0.400000 -0.200000  0.200000    0.00800000  12 t-inv T
 -0.400000  0.200000  0.200000    0.00800000  12 t-inv T
  0.400000  0.200000 -0.200000    0.00800000  12 t-inv T
 -0.200000 -0.400000 -0.200000    0.00800000  14 t-inv T
  0.200000 -0.200000  0.400000    0.00800000  14 t-inv T
 -0.200000  0.400000  0.200000    0.00800000  14 t-inv T
  0.200000  0.200000 -0.400000    0.00800000  14 t-inv T
  0.200000  0.400000 -0.200000    0.00800000  14 t-inv T
 -0.200000  0.200000  0.400000    0.00800000  14 t-inv T
  0.200000 -0.400000  0.200000    0.00800000  14 t-inv T
 -0.200000 -0.200000 -0.400000    0.00800000  14 t-inv T
 -0.400000 -0.400000 -0.200000    0.00800000  15 t-inv T
  0.400000 -0.200000  0.400000    0.00800000  15 t-inv T
 -0.400000  0.400000  0.200000    0.00800000  15 t-inv T
  0.400000  0.200000 -0.400000    0.00800000  15 t-inv T
  0.400000  0.400000 -0.200000    0.00800000  15 t-inv T
 -0.400000  0.200000  0.400000    0.00800000  15 t-inv T
  0.400000 -0.400000  0.200000    0.00800000  15 t-inv T
 -0.400000 -0.200000 -0.400000    0.00800000  15 t-inv T
 -0.200000 -0.400000 -0.400000    0.00800000  17 t-inv T
  0.200000 -0.400000  0.400000    0.00800000  17 t-inv T
 -0.200000  0.400000  0.400000    0.00800000  17 t-inv T
  0.200000  0.400000 -0.400000    0.00800000  17 t-inv T
 -0.400000 -0.400000 -0.400000    0.00800000  18 t-inv T
  0.400000 -0.400000  0.400000    0.00800000  18 t-inv T
 -0.400000  0.400000  0.400000    0.00800000  18 t-inv T
  0.400000  0.400000 -0.400000    0.00800000  18 t-inv T


--------------------------------------------------------------------------------------------------------




 Dimension of arrays:
   k-points           NKPTS =     18   k-points in BZ     NKDIM =     18   number of bands    NBANDS=    168
   number of dos      NEDOS =    301   number of ions     NIONS =     64
   non local maximal  LDIM  =      5   non local SUM 2l+1 LMDIM =     13
   total plane-waves  NPLWV = 188160
   max r-space proj   IRMAX =      1   max aug-charges    IRDMAX=   8948
   dimension x,y,z NGX =    60 NGY =   56 NGZ =   56
   dimension x,y,z NGXF=   120 NGYF=  112 NGZF=  112
   support grid    NGXF=   120 NGYF=  112 NGZF=  112
   ions per type =              32  32
   NGX,Y,Z   is equivalent  to a cutoff of   8.44,  8.14,  8.14 a.u.
   NGXF,Y,Z  is equivalent  to a cutoff of  16.88, 16.28, 16.28 a.u.

 SYSTEM =  GaAs                                    
 POSCAR =  cubic gallium arsenide                  

 Startparameter for this run:
   NWRITE =      2    write-flag & timer
   PREC   = normal    normal or accurate (medium, high low for compatibility)
   ISTART =      0    job   : 0-new  1-cont  2-samecut
   ICHARG =      2    charge: 1-file 2-atom 10-const
   ISPIN  =      1    spin polarized calculation?
   LNONCOLLINEAR =      F non collinear calculations
   LSORBIT =      F    spin-orbit coupling
   INIWAV =      1    electr: 0-lowe 1-rand  2-diag
   LASPH  =      F    aspherical Exc in radial PAW
 Electronic Relaxation 1
   ENCUT  =  400.0 eV  29.40 Ry    5.42 a.u.  19.27 18.65 18.65*2*pi/ulx,y,z
   ENINI  =  400.0     initial cutoff
   ENAUG  =  462.8 eV  augmentation charge cutoff
   NELM   =     60;   NELMIN=  2; NELMDL= -5     # of ELM steps 
   EDIFF  = 0.1E-05   stopping-criterion for ELM
   LREAL  =      F    real-space projection
   NLSPLINE    = F    spline interpolate recip. space projectors
   LCOMPAT=      F    compatible to vasp.4.4
   GGA_COMPAT  = T    GGA compatible to vasp.4.4-vasp.4.6
   LMAXPAW     = -100 max onsite density
   LMAXMIX     =    2 max onsite mixed and CHGCAR
   VOSKOWN=      0    Vosko Wilk Nusair interpolation
   ROPT   =    0.00000   0.00000
 Ionic relaxation
   EDIFFG = 0.1E-02   stopping-criterion for IOM
   NSW    =    100    number of steps for IOM
   NBLOCK =      1;   KBLOCK =    100    inner block; outer block 
   IBRION =      2    ionic relax: 0-MD 1-quasi-New 2-CG
   NFREE  =      2    steps in history (QN), initial steepest desc. (CG)
   ISIF   =      2    stress and relaxation
   IWAVPR =     11    prediction:  0-non 1-charg 2-wave 3-comb
   ISYM   =      2    0-nonsym 1-usesym 2-fastsym
   LCORR  =      T    Harris-Foulkes like correction to forces

   POTIM  = 0.1000    time-step for ionic-motion
   TEIN   =    0.0    initial temperature
   TEBEG  =    0.0;   TEEND  =   0.0 temperature during run
   SMASS  =  -3.00    Nose mass-parameter (am)
   estimated Nose-frequenzy (Omega)   =  0.10E-29 period in steps = 0.63E+47 mass=  -0.319E-26a.u.
   SCALEE = 1.0000    scale energy and forces
   NPACO  =    256;   APACO  = 10.0  distance and # of slots for P.C.
   PSTRESS=    0.0 pullay stress

  Mass of Ions in am
   POMASS =  74.92 69.72
  Ionic Valenz
   ZVAL   =   5.00  3.00
  Atomic Wigner-Seitz radii
   RWIGS  =  -1.00 -1.00
  virtual crystal weights 
   VCA    =   1.00  1.00
   NELECT =     256.0000    total number of electrons
   NUPDOWN=      -1.0000    fix difference up-down

 DOS related values:
   EMIN   =  10.00;   EMAX   =-10.00  energy-range for DOS
   EFERMI =   0.00;   METHOD = LEGACY      
   ISMEAR =    -5;   SIGMA  =   0.10  broadening in eV -4-tet -1-fermi 0-gaus

 Electronic relaxation 2 (details)
   IALGO  =     38    algorithm
   LDIAG  =      T    sub-space diagonalisation (order eigenvalues)
   LSUBROT=      F    optimize rotation matrix (better conditioning)
   TURBO    =      0    0=normal 1=particle mesh
   IRESTART =      0    0=no restart 2=restart with 2 vectors
   NREBOOT  =      0    no. of reboots
   NMIN     =      0    reboot dimension
   EREF     =   0.00    reference energy to select bands
   IMIX   =      4    mixing-type and parameters
     AMIX     =   0.40;   BMIX     =  1.00
     AMIX_MAG =   1.60;   BMIX_MAG =  1.00
     AMIN     =   0.10
     WC   =   100.;   INIMIX=   1;  MIXPRE=   1;  MAXMIX= -45

 Intra band minimization:
   WEIMIN = 0.0010     energy-eigenvalue tresh-hold
   EBREAK =  0.15E-08  absolut break condition
   DEPER  =   0.30     relativ break condition  

   TIME   =   0.40     timestep for ELM

  volume/ion in A,a.u.               =      24.15       162.97
  Fermi-wavevector in a.u.,A,eV,Ry     =   0.899064  1.698985 10.997813  0.808316
  Thomas-Fermi vector in A             =   2.021851
 
 Write flags
   LWAVE        =      T    write WAVECAR
   LDOWNSAMPLE  =      F    k-point downsampling of WAVECAR
   LCHARG       =      T    write CHGCAR
   LVTOT        =      F    write LOCPOT, total local potential
   LVHAR        =      F    write LOCPOT, Hartree potential only
   WRT_POTENTIAL= false  ! write potential to hdf5 file
   LELF         =      F    write electronic localiz. function (ELF)
   LORBIT       =      0    0 simple, 1 ext, 2 COOP (PROOUT), +10 PAW based schemes


 Dipole corrections
   LMONO      =      F    monopole corrections only (constant potential shift)
   LDIPOL     =      F    correct potential (dipole corrections)
   IDIPOL     =      0    1-x, 2-y, 3-z, 4-all directions 
   EPSILON    =  1.0000000 bulk dielectric constant
   LVACPOTAV  =      F  vacuum potentials using an averaging scheme for the charge density
   VACPOTFLAT =  0.1000000 required flatness to determine vacuum potential
 Exchange correlation treatment:
   GGA     = PE    functional components
   XC_C    = 1    coefficients multiplying the functional components
   LIBXC   =     F    Libxc                    
   VOSKOWN =     0    Vosko Wilk Nusair interpolation
   LHFCALC =     F    Hartree Fock is set to
   LHFONE  =     F    Hartree Fock one center treatment
   AEXX    =    0.0000 exact exchange contribution

 Parameters of functionals:
   PE:
     No parameter
 
 Van der Waals corrections
   IVDW    =     0    specifies the selected vdW correction

 Linear response parameters
   LEPSILON=     T    determine dielectric tensor
   LRPA    =     F    only Hartree local field effects (RPA)
   LNABLA  =     F    use nabla operator in PAW spheres
   LVEL    =     F    velocity operator in full k-point grid
   CSHIFT  =0.1000    complex shift for real part using Kramers Kronig
   OMEGAMAX=  -1.0    maximum frequency
   DEG_THRESHOLD= 0.2000000E-02 threshold for treating states as degnerate
   RTIME   =   -0.100 relaxation time in fs
  (WPLASMAI=    0.000 imaginary part of plasma frequency in eV, 0.658/RTIME)
   DFIELD  = 0.0000000 0.0000000 0.0000000 field for delta impulse in time
 
  Optional k-point grid parameters
   LKPOINTS_OPT  =     F    use optional k-point grid
   KPOINTS_OPT_MODE=     1    mode for optional k-point grid
 
 Orbital magnetization related:
   ORBITALMAG=     F  switch on orbital magnetization
   LCHIMAG   =     F  perturbation theory with respect to B field
   DQ        =  0.001000  dq finite difference perturbation B field
   LLRAUG    =     F  two centre corrections for induced B field
   LBONE     =     F  B-component reconstruction in AE one-centre
   LVGVCALC  =     T  calculate vGv susceptibility
   LVGVAPPL  =     F  apply vGv susceptibility instead of pGv for G=0

 Random number generation:
   RANDOM_GENERATOR = DEFAULT
   PCG_SEED         = not used


--------------------------------------------------------------------------------------------------------


 conjugate gradient relaxation of ions
 charge density and potential will be updated during run
 non-spin polarized calculation
 Variant of blocked Davidson
 Davidson routine will perform the subspace rotation
 perform sub-space diagonalisation
    after iterative eigenvector-optimisation
 modified Broyden-mixing scheme, WC =      100.0
 initial mixing is a Kerker type mixing with AMIX =  0.4000 and BMIX =      1.0000
 Hartree-type preconditioning will be used
 using additional bands           40
 reciprocal scheme for non local part
 use partial core corrections
 calculate Harris-corrections to forces 
   (improved forces if not selfconsistent)
 use gradient corrections 
 use of overlap-Matrix (Vanderbilt PP)
 Fermi weights with tetrahedron method with Bloechl corrections


--------------------------------------------------------------------------------------------------------


  energy-cutoff  :      400.00
  volume of cell :     1545.58
      direct lattice vectors                 reciprocal lattice vectors
    11.814969829  0.000000000  0.000000000     0.084638388  0.000000000  0.000000000
     0.000000000 11.437467135  0.000000000     0.000000000  0.087431945  0.000000000
     0.000000000  0.000000000 11.437467135     0.000000000  0.000000000  0.087431945

  length of vectors
    11.814969829 11.437467135 11.437467135     0.084638388  0.087431945  0.087431945


 
 k-points in units of 2pi/SCALE and weight: Automatic mesh                          
   0.00000000  0.00000000  0.00000000       0.008
   0.01692768  0.00000000  0.00000000       0.016
   0.03385536  0.00000000  0.00000000       0.016
   0.00000000  0.01748639  0.00000000       0.032
   0.01692768  0.01748639  0.00000000       0.064
   0.03385536  0.01748639  0.00000000       0.064
   0.00000000  0.03497278  0.00000000       0.032
   0.01692768  0.03497278  0.00000000       0.064
   0.03385536  0.03497278  0.00000000       0.064
   0.00000000  0.01748639  0.01748639       0.032
   0.01692768  0.01748639  0.01748639       0.064
   0.03385536  0.01748639  0.01748639       0.064
   0.00000000  0.03497278  0.01748639       0.064
   0.01692768  0.03497278  0.01748639       0.128
   0.03385536  0.03497278  0.01748639       0.128
   0.00000000  0.03497278  0.03497278       0.032
   0.01692768  0.03497278  0.03497278       0.064
   0.03385536  0.03497278  0.03497278       0.064
 
 k-points in reciprocal lattice and weights: Automatic mesh                          
   0.00000000  0.00000000  0.00000000       0.008
   0.20000000  0.00000000  0.00000000       0.016
   0.40000000  0.00000000  0.00000000       0.016
   0.00000000  0.20000000  0.00000000       0.032
   0.20000000  0.20000000  0.00000000       0.064
   0.40000000  0.20000000  0.00000000       0.064
   0.00000000  0.40000000  0.00000000       0.032
   0.20000000  0.40000000  0.00000000       0.064
   0.40000000  0.40000000  0.00000000       0.064
   0.00000000  0.20000000  0.20000000       0.032
   0.20000000  0.20000000  0.20000000       0.064
   0.40000000  0.20000000  0.20000000       0.064
   0.00000000  0.40000000  0.20000000       0.064
   0.20000000  0.40000000  0.20000000       0.128
   0.40000000  0.40000000  0.20000000       0.128
   0.00000000  0.40000000  0.40000000       0.032
   0.20000000  0.40000000  0.40000000       0.064
   0.40000000  0.40000000  0.40000000       0.064
 
 position of ions in fractional coordinates (direct lattice) 
   0.00000000  0.00000000  0.00000000
   0.00000000  0.00000000  0.50000000
   0.00000000  0.50000000  0.00000000
   0.00000000  0.50000000  0.50000000
   0.50000000  0.00000000  0.00000000
   0.50000000  0.00000000  0.50000000
   0.50000000  0.50000000  0.00000000
   0.50000000  0.50000000  0.50000000
   0.25000000  0.25000000  0.00000000
   0.25000000  0.25000000  0.50000000
   0.25000000  0.75000000  0.00000000
   0.25000000  0.75000000  0.50000000
   0.75000000  0.25000000  0.00000000
   0.75000000  0.25000000  0.50000000
   0.75000000  0.75000000  0.00000000
   0.75000000  0.75000000  0.50000000
   0.25000000  0.00000000  0.25000000
   0.25000000  0.00000000  0.75000000
   0.25000000  0.50000000  0.25000000
   0.25000000  0.50000000  0.75000000
   0.75000000  0.00000000  0.25000000
   0.75000000  0.00000000  0.75000000
   0.75000000  0.50000000  0.25000000
   0.75000000  0.50000000  0.75000000
   0.00000000  0.25000000  0.25000000
   0.00000000  0.25000000  0.75000000
   0.00000000  0.75000000  0.25000000
   0.00000000  0.75000000  0.75000000
   0.50000000  0.25000000  0.25000000
   0.50000000  0.25000000  0.75000000
   0.50000000  0.75000000  0.25000000
   0.50000000  0.75000000  0.75000000
   0.12500000  0.12500000  0.12500000
   0.12500000  0.12500000  0.62500000
   0.12500000  0.62500000  0.12500000
   0.12500000  0.62500000  0.62500000
   0.62500000  0.12500000  0.12500000
   0.62500000  0.12500000  0.62500000
   0.62500000  0.62500000  0.12500000
   0.62500000  0.62500000  0.62500000
   0.37500000  0.12500000  0.37500000
   0.37500000  0.12500000  0.87500000
   0.37500000  0.62500000  0.37500000
   0.37500000  0.62500000  0.87500000
   0.87500000  0.12500000  0.37500000
   0.87500000  0.12500000  0.87500000
   0.87500000  0.62500000  0.37500000
   0.87500000  0.62500000  0.87500000
   0.37500000  0.37500000  0.12500000
   0.37500000  0.37500000  0.62500000
   0.37500000  0.87500000  0.12500000
   0.37500000  0.87500000  0.62500000
   0.87500000  0.37500000  0.12500000
   0.87500000  0.37500000  0.62500000
   0.87500000  0.87500000  0.12500000
   0.87500000  0.87500000  0.62500000
   0.12500000  0.37500000  0.37500000
   0.12500000  0.37500000  0.87500000
   0.12500000  0.87500000  0.37500000
   0.12500000  0.87500000  0.87500000
   0.62500000  0.37500000  0.37500000
   0.62500000  0.37500000  0.87500000
   0.62500000  0.87500000  0.37500000
   0.62500000  0.87500000  0.87500000
 
 position of ions in cartesian coordinates  (Angst):
   0.00000000  0.00000000  0.00000000
   0.00000000  0.00000000  5.71873357
   0.00000000  5.71873357  0.00000000
   0.00000000  5.71873357  5.71873357
   5.90748491  0.00000000  0.00000000
   5.90748491  0.00000000  5.71873357
   5.90748491  5.71873357  0.00000000
   5.90748491  5.71873357  5.71873357
   2.95374246  2.85936678  0.00000000
   2.95374246  2.85936678  5.71873357
   2.95374246  8.57810035  0.00000000
   2.95374246  8.57810035  5.71873357
   8.86122737  2.85936678  0.00000000
   8.86122737  2.85936678  5.71873357
   8.86122737  8.57810035  0.00000000
   8.86122737  8.57810035  5.71873357
   2.95374246  0.00000000  2.85936678
   2.95374246  0.00000000  8.57810035
   2.95374246  5.71873357  2.85936678
   2.95374246  5.71873357  8.57810035
   8.86122737  0.00000000  2.85936678
   8.86122737  0.00000000  8.57810035
   8.86122737  5.71873357  2.85936678
   8.86122737  5.71873357  8.57810035
   0.00000000  2.85936678  2.85936678
   0.00000000  2.85936678  8.57810035
   0.00000000  8.57810035  2.85936678
   0.00000000  8.57810035  8.57810035
   5.90748491  2.85936678  2.85936678
   5.90748491  2.85936678  8.57810035
   5.90748491  8.57810035  2.85936678
   5.90748491  8.57810035  8.57810035
   1.47687123  1.42968339  1.42968339
   1.47687123  1.42968339  7.14841696
   1.47687123  7.14841696  1.42968339
   1.47687123  7.14841696  7.14841696
   7.38435614  1.42968339  1.42968339
   7.38435614  1.42968339  7.14841696
   7.38435614  7.14841696  1.42968339
   7.38435614  7.14841696  7.14841696
   4.43061369  1.42968339  4.28905018
   4.43061369  1.42968339 10.00778374
   4.43061369  7.14841696  4.28905018
   4.43061369  7.14841696 10.00778374
  10.33809860  1.42968339  4.28905018
  10.33809860  1.42968339 10.00778374
  10.33809860  7.14841696  4.28905018
  10.33809860  7.14841696 10.00778374
   4.43061369  4.28905018  1.42968339
   4.43061369  4.28905018  7.14841696
   4.43061369 10.00778374  1.42968339
   4.43061369 10.00778374  7.14841696
  10.33809860  4.28905018  1.42968339
  10.33809860  4.28905018  7.14841696
  10.33809860 10.00778374  1.42968339
  10.33809860 10.00778374  7.14841696
   1.47687123  4.28905018  4.28905018
   1.47687123  4.28905018 10.00778374
   1.47687123 10.00778374  4.28905018
   1.47687123 10.00778374 10.00778374
   7.38435614  4.28905018  4.28905018
   7.38435614  4.28905018 10.00778374
   7.38435614 10.00778374  4.28905018
   7.38435614 10.00778374 10.00778374
 


--------------------------------------------------------------------------------------------------------


 k-point     1 :   0.0000 0.0000 0.0000  plane waves:   28059
 k-point     2 :   0.2000 0.0000 0.0000  plane waves:   28091
 k-point     3 :   0.4000 0.0000 0.0000  plane waves:   28162
 k-point     4 :   0.0000 0.2000 0.0000  plane waves:   28091
 k-point     5 :   0.2000 0.2000 0.0000  plane waves:   28096
 k-point     6 :   0.4000 0.2000 0.0000  plane waves:   28081
 k-point     7 :   0.0000 0.4000 0.0000  plane waves:   28068
 k-point     8 :   0.2000 0.4000 0.0000  plane waves:   28075
 k-point     9 :   0.4000 0.4000 0.0000  plane waves:   28074
 k-point    10 :   0.0000 0.2000 0.2000  plane waves:   28092
 k-point    11 :   0.2000 0.2000 0.2000  plane waves:   28082
 k-point    12 :   0.4000 0.2000 0.2000  plane waves:   28093
 k-point    13 :   0.0000 0.4000 0.2000  plane waves:   28067
 k-point    14 :   0.2000 0.4000 0.2000  plane waves:   28069
 k-point    15 :   0.4000 0.4000 0.2000  plane waves:   28060
 k-point    16 :   0.0000 0.4000 0.4000  plane waves:   28106
 k-point    17 :   0.2000 0.4000 0.4000  plane waves:   28061
 k-point    18 :   0.4000 0.4000 0.4000  plane waves:   28044

 maximum and minimum number of plane-waves per node :     28162    28044

 maximum number of plane-waves:     28162
 maximum index in each direction: 
   IXMAX=   19   IYMAX=   18   IZMAX=   18
   IXMIN=  -19   IYMIN=  -19   IZMIN=  -19


 serial   3D FFT for wavefunctions
 parallel 3D FFT for charge:
    minimum data exchange during FFTs selected (reduces bandwidth)


 total amount of memory used by VASP MPI-rank0   365679. kBytes
=======================================================================

   base      :      30000. kBytes
   nonl-proj :     134305. kBytes
   fftplans  :       7212. kBytes
   grid      :      18251. kBytes
   one-center:        519. kBytes
   wavefun   :     175392. kBytes
 
     INWAV:  cpu time      0.0000: real time      0.0011
 Broyden mixing: mesh for mixing (old mesh)
   NGX = 39   NGY = 37   NGZ = 37
  (NGX  =120   NGY  =112   NGZ  =112)
  gives a total of  53391 points

 initial charge density was supplied:
 charge density of overlapping atoms calculated
 number of electron     256.0000000 magnetization 
 keeping initial charge density in first step


--------------------------------------------------------------------------------------------------------


 Maximum index for augmentation-charges         1087 (set IRDMAX)


--------------------------------------------------------------------------------------------------------


 First call to EWALD:  gamma=   0.153
 Maximum number of real-space cells 3x 3x 3
 Maximum number of reciprocal cells 3x 3x 3

    FEWALD:  cpu time      0.0024: real time      0.0024


--------------------------------------- Ionic step        1  -------------------------------------------




--------------------------------------- Iteration      1(   1)  ---------------------------------------


    POTLOK:  cpu time      0.1187: real time      0.1216
    SETDIJ:  cpu time      0.0111: real time      0.0112
     EDDAV:  cpu time     74.2213: real time     75.2725
 BZINTS: Fermi energy:    9.701871;  256.000000 electrons
         Band energy: 0.369174E+03;  BLOECHL correction:   -0.022436
       DOS:  cpu time      0.0126: real time      0.0127
    --------------------------------------------
      LOOP:  cpu time     74.3637: real time     75.4180

 eigenvalue-minimisations  :  6048
 total energy-change (2. order) : 0.9329150E+03  (-0.8082406E+04)
 number of electron     256.0000000 magnetization 
 augmentation part      256.0000000 magnetization 

 Free energy of the ion-electron system (eV)
  ---------------------------------------------------
  alpha Z        PSCENC =       566.62537604
  Ewald energy   TEWEN  =     -7172.54278532
  -Hartree energ DENC   =      -607.27178851
  -exchange      EXHF   =         0.00000000
  -V(xc)+E(xc)   XCENC  =      -997.02941813
  PAW double counting   =      6692.16565901    -5247.93935635
  entropy T*S    EENTRO =         0.00000000
  eigenvalues    EBANDS =       369.17429527
  atomic energy  EATOM  =      7329.73306348
  Solvation  Ediel_sol  =         0.00000000
  ---------------------------------------------------
  free energy    TOTEN  =       932.91504549 eV

  energy without entropy =      932.91504549  energy(sigma->0) =      932.91504549


--------------------------------------------------------------------------------------------------------




--------------------------------------- Iteration      1(   2)  ---------------------------------------


     EDDAV:  cpu time     84.7577: real time     85.9787
 BZINTS: Fermi energy:    3.138529;  256.000000 electrons
         Band energy:-0.731196E+03;  BLOECHL correction:    0.000000
       DOS:  cpu time      0.0083: real time      0.0084
    --------------------------------------------
      LOOP:  cpu time     84.7661: real time     85.9871

 eigenvalue-minimisations  :  7200
 total energy-change (2. order) :-0.1100371E+04  (-0.1048824E+04)
 number of electron     256.0000000 magnetization 
 augmentation part      256.0000000 magnetization 

 Free energy of the ion-electron system (eV)
  ---------------------------------------------------
  alpha Z        PSCENC =       566.62537604
  Ewald energy   TEWEN  =     -7172.54278532
  -Hartree energ DENC   =      -607.27178851
  -exchange      EXHF   =         0.00000000
  -V(xc)+E(xc)   XCENC  =      -997.02941813
  PAW double counting   =      6692.16565901    -5247.93935635
  entropy T*S    EENTRO =         0.00000000
  eigenvalues    EBANDS =      -731.19626696
  atomic energy  EATOM  =      7329.73306348
  Solvation  Ediel_sol  =         0.00000000
  ---------------------------------------------------
  free energy    TOTEN  =      -167.45551674 eV

  energy without entropy =     -167.45551674  energy(sigma->0) =     -167.45551674


--------------------------------------------------------------------------------------------------------




--------------------------------------- Iteration      1(   3)  ---------------------------------------


     EDDAV:  cpu time     78.5930: real time     79.6712
 BZINTS: Fermi energy:    1.844501;  256.000000 electrons
         Band energy:-0.831107E+03;  BLOECHL correction:    0.000000
       DOS:  cpu time      0.0075: real time      0.0075
    --------------------------------------------
      LOOP:  cpu time     78.6005: real time     79.6787

 eigenvalue-minimisations  :  7408
 total energy-change (2. order) :-0.9991110E+02  (-0.9849978E+02)
 number of electron     256.0000000 magnetization 
 augmentation part      256.0000000 magnetization 

 Free energy of the ion-electron system (eV)
  ---------------------------------------------------
  alpha Z        PSCENC =       566.62537604
  Ewald energy   TEWEN  =     -7172.54278532
  -Hartree energ DENC   =      -607.27178851
  -exchange      EXHF   =         0.00000000
  -V(xc)+E(xc)   XCENC  =      -997.02941813
  PAW double counting   =      6692.16565901    -5247.93935635
  entropy T*S    EENTRO =         0.00000000
  eigenvalues    EBANDS =      -831.10736198
  atomic energy  EATOM  =      7329.73306348
  Solvation  Ediel_sol  =         0.00000000
  ---------------------------------------------------
  free energy    TOTEN  =      -267.36661176 eV

  energy without entropy =     -267.36661176  energy(sigma->0) =     -267.36661176


--------------------------------------------------------------------------------------------------------




--------------------------------------- Iteration      1(   4)  ---------------------------------------


     EDDAV:  cpu time     76.3226: real time     77.3686
 BZINTS: Fermi energy:    1.788791;  256.000000 electrons
         Band energy:-0.833624E+03;  BLOECHL correction:    0.000000
       DOS:  cpu time      0.0077: real time      0.0077
    --------------------------------------------
      LOOP:  cpu time     76.3303: real time     77.3763

 eigenvalue-minimisations  :  7264
 total energy-change (2. order) :-0.2516647E+01  (-0.2486084E+01)
 number of electron     256.0000000 magnetization 
 augmentation part      256.0000000 magnetization 

 Free energy of the ion-electron system (eV)
  ---------------------------------------------------
  alpha Z        PSCENC =       566.62537604
  Ewald energy   TEWEN  =     -7172.54278532
  -Hartree energ DENC   =      -607.27178851
  -exchange      EXHF   =         0.00000000
  -V(xc)+E(xc)   XCENC  =      -997.02941813
  PAW double counting   =      6692.16565901    -5247.93935635
  entropy T*S    EENTRO =         0.00000000
  eigenvalues    EBANDS =      -833.62400946
  atomic energy  EATOM  =      7329.73306348
  Solvation  Ediel_sol  =         0.00000000
  ---------------------------------------------------
  free energy    TOTEN  =      -269.88325924 eV

  energy without entropy =     -269.88325924  energy(sigma->0) =     -269.88325924


--------------------------------------------------------------------------------------------------------




--------------------------------------- Iteration      1(   5)  ---------------------------------------


     EDDAV:  cpu time     77.1566: real time     78.2151
 BZINTS: Fermi energy:    1.762694;  256.000000 electrons
         Band energy:-0.833699E+03;  BLOECHL correction:    0.000000
       DOS:  cpu time      0.0076: real time      0.0076
    CHARGE:  cpu time      0.7476: real time      0.7525
    MIXING:  cpu time      0.0030: real time      0.0031
    --------------------------------------------
      LOOP:  cpu time     77.9148: real time     78.9783

 eigenvalue-minimisations  :  7368
 total energy-change (2. order) :-0.7528218E-01  (-0.7502707E-01)
 number of electron     255.9999997 magnetization 
 augmentation part      -41.5092859 magnetization 

 Broyden mixing:
  rms(total) = 0.19915E+01    rms(broyden)= 0.19915E+01
  rms(prec ) = 0.22639E+01
  weight for this iteration     100.00

 Free energy of the ion-electron system (eV)
  ---------------------------------------------------
  alpha Z        PSCENC =       566.62537604
  Ewald energy   TEWEN  =     -7172.54278532
  -Hartree energ DENC   =      -607.27178851
  -exchange      EXHF   =         0.00000000
  -V(xc)+E(xc)   XCENC  =      -997.02941813
  PAW double counting   =      6692.16565901    -5247.93935635
  entropy T*S    EENTRO =         0.00000000
  eigenvalues    EBANDS =      -833.69929164
  atomic energy  EATOM  =      7329.73306348
  Solvation  Ediel_sol  =         0.00000000
  ---------------------------------------------------
  free energy    TOTEN  =      -269.95854142 eV

  energy without entropy =     -269.95854142  energy(sigma->0) =     -269.95854142


--------------------------------------------------------------------------------------------------------




--------------------------------------- Iteration      1(   6)  ---------------------------------------


    POTLOK:  cpu time      0.1086: real time      0.1141
    SETDIJ:  cpu time      0.0104: real time      0.0105
     EDDAV:  cpu time     73.6203: real time     74.6286
 BZINTS: Fermi energy:    2.047942;  256.000000 electrons
         Band energy:-0.782409E+03;  BLOECHL correction:    0.000000
       DOS:  cpu time      0.0081: real time      0.0081
    CHARGE:  cpu time      0.7503: real time      0.7550
    MIXING:  cpu time      0.0032: real time      0.0033
    --------------------------------------------
      LOOP:  cpu time     74.5010: real time     75.5197

 eigenvalue-minimisations  :  7032
 total energy-change (2. order) : 0.4155888E+01  (-0.6561009E+00)
 number of electron     255.9999999 magnetization 
 augmentation part      -41.3933981 magnetization 

 Broyden mixing:
  rms(total) = 0.11682E+01    rms(broyden)= 0.11682E+01
  rms(prec ) = 0.12880E+01
  weight for this iteration     100.00

 eigenvalues of (default mixing * dielectric matrix)
  average eigenvalue GAMMA=   2.2535
  2.2535

 Free energy of the ion-electron system (eV)
  ---------------------------------------------------
  alpha Z        PSCENC =       566.62537604
  Ewald energy   TEWEN  =     -7172.54278532
  -Hartree energ DENC   =      -657.75279676
  -exchange      EXHF   =         0.00000000
  -V(xc)+E(xc)   XCENC  =      -988.26463676
  PAW double counting   =      9354.31898037    -7915.51072442
  entropy T*S    EENTRO =         0.00000000
  eigenvalues    EBANDS =      -782.40913013
  atomic energy  EATOM  =      7329.73306348
  Solvation  Ediel_sol  =         0.00000000
  ---------------------------------------------------
  free energy    TOTEN  =      -265.80265351 eV

  energy without entropy =     -265.80265351  energy(sigma->0) =     -265.80265351


--------------------------------------------------------------------------------------------------------




--------------------------------------- Iteration      1(   7)  ---------------------------------------


    POTLOK:  cpu time      0.1106: real time      0.1153
    SETDIJ:  cpu time      0.0105: real time      0.0106
     EDDAV:  cpu time     76.0601: real time     77.1027
 BZINTS: Fermi energy:    2.280885;  256.000000 electrons
         Band energy:-0.734317E+03;  BLOECHL correction:   -0.000000
       DOS:  cpu time      0.0085: real time      0.0085
    CHARGE:  cpu time      0.7628: real time      0.7681
    MIXING:  cpu time      0.0036: real time      0.0036
    --------------------------------------------
      LOOP:  cpu time     76.9561: real time     78.0089

 eigenvalue-minimisations  :  7288
 total energy-change (2. order) : 0.8029271E+00  (-0.4296260E+00)
 number of electron     256.0000001 magnetization 
 augmentation part      -41.2829689 magnetization 

 Broyden mixing:
  rms(total) = 0.24474E+00    rms(broyden)= 0.24474E+00
  rms(prec ) = 0.28636E+00
  weight for this iteration     100.00

 eigenvalues of (default mixing * dielectric matrix)
  average eigenvalue GAMMA=   1.9337
  1.6145  2.2529

 Free energy of the ion-electron system (eV)
  ---------------------------------------------------
  alpha Z        PSCENC =       566.62537604
  Ewald energy   TEWEN  =     -7172.54278532
  -Hartree energ DENC   =      -710.10307051
  -exchange      EXHF   =         0.00000000
  -V(xc)+E(xc)   XCENC  =      -977.54266348
  PAW double counting   =     13748.80221305   -12315.65533656
  entropy T*S    EENTRO =         0.00000000
  eigenvalues    EBANDS =      -734.31652313
  atomic energy  EATOM  =      7329.73306348
  Solvation  Ediel_sol  =         0.00000000
  ---------------------------------------------------
  free energy    TOTEN  =      -264.99972643 eV

  energy without entropy =     -264.99972643  energy(sigma->0) =     -264.99972643


--------------------------------------------------------------------------------------------------------




--------------------------------------- Iteration      1(   8)  ---------------------------------------


    POTLOK:  cpu time      0.1095: real time      0.1145
    SETDIJ:  cpu time      0.0105: real time      0.0106
     EDDAV:  cpu time     74.1434: real time     75.1723
 BZINTS: Fermi energy:    2.263849;  256.000000 electrons
         Band energy:-0.736060E+03;  BLOECHL correction:    0.000000
       DOS:  cpu time      0.0076: real time      0.0077
    CHARGE:  cpu time      0.7471: real time      0.7516
    MIXING:  cpu time      0.0035: real time      0.0035
    --------------------------------------------
      LOOP:  cpu time     75.0215: real time     76.0603

 eigenvalue-minimisations  :  7064
 total energy-change (2. order) : 0.4218977E-01  (-0.5144310E-01)
 number of electron     256.0000000 magnetization 
 augmentation part      -41.2843934 magnetization 

 Broyden mixing:
  rms(total) = 0.61382E-01    rms(broyden)= 0.61381E-01
  rms(prec ) = 0.71583E-01
  weight for this iteration     100.00

 eigenvalues of (default mixing * dielectric matrix)
  average eigenvalue GAMMA=   1.9439
  2.6770  1.5774  1.5774

 Free energy of the ion-electron system (eV)
  ---------------------------------------------------
  alpha Z        PSCENC =       566.62537604
  Ewald energy   TEWEN  =     -7172.54278532
  -Hartree energ DENC   =      -709.36475476
  -exchange      EXHF   =         0.00000000
  -V(xc)+E(xc)   XCENC  =      -976.20352404
  PAW double counting   =     14399.36481696   -12966.50929638
  entropy T*S    EENTRO =         0.00000000
  eigenvalues    EBANDS =      -736.06043263
  atomic energy  EATOM  =      7329.73306348
  Solvation  Ediel_sol  =         0.00000000
  ---------------------------------------------------
  free energy    TOTEN  =      -264.95753666 eV

  energy without entropy =     -264.95753666  energy(sigma->0) =     -264.95753666


--------------------------------------------------------------------------------------------------------




--------------------------------------- Iteration      1(   9)  ---------------------------------------


    POTLOK:  cpu time      0.1099: real time      0.1179
    SETDIJ:  cpu time      0.0105: real time      0.0106
     EDDAV:  cpu time     71.9006: real time     72.8876
 BZINTS: Fermi energy:    2.274859;  256.000000 electrons
         Band energy:-0.731992E+03;  BLOECHL correction:    0.000000
       DOS:  cpu time      0.0081: real time      0.0081
    CHARGE:  cpu time      0.7493: real time      0.7542
    MIXING:  cpu time      0.0034: real time      0.0034
    --------------------------------------------
      LOOP:  cpu time     72.7817: real time     73.7818

 eigenvalue-minimisations  :  6904
 total energy-change (2. order) :-0.1153095E-01  (-0.3681365E-02)
 number of electron     256.0000000 magnetization 
 augmentation part      -41.2857499 magnetization 

 Broyden mixing:
  rms(total) = 0.23433E-01    rms(broyden)= 0.23433E-01
  rms(prec ) = 0.24874E-01
  weight for this iteration     100.00

 eigenvalues of (default mixing * dielectric matrix)
  average eigenvalue GAMMA=   1.6753
  2.5664  1.6728  1.6728  0.7891

 Free energy of the ion-electron system (eV)
  ---------------------------------------------------
  alpha Z        PSCENC =       566.62537604
  Ewald energy   TEWEN  =     -7172.54278532
  -Hartree energ DENC   =      -714.15828543
  -exchange      EXHF   =         0.00000000
  -V(xc)+E(xc)   XCENC  =      -975.27851745
  PAW double counting   =     14592.67655351   -13160.03241982
  entropy T*S    EENTRO =         0.00000000
  eigenvalues    EBANDS =      -731.99205261
  atomic energy  EATOM  =      7329.73306348
  Solvation  Ediel_sol  =         0.00000000
  ---------------------------------------------------
  free energy    TOTEN  =      -264.96906760 eV

  energy without entropy =     -264.96906760  energy(sigma->0) =     -264.96906760


--------------------------------------------------------------------------------------------------------




--------------------------------------- Iteration      1(  10)  ---------------------------------------


    POTLOK:  cpu time      0.1086: real time      0.1119
    SETDIJ:  cpu time      0.0105: real time      0.0106
     EDDAV:  cpu time     76.7361: real time     77.8111
 BZINTS: Fermi energy:    2.278372;  256.000000 electrons
         Band energy:-0.731969E+03;  BLOECHL correction:    0.000000
       DOS:  cpu time      0.0079: real time      0.0080
    CHARGE:  cpu time      0.7494: real time      0.7540
    MIXING:  cpu time      0.0037: real time      0.0038
    --------------------------------------------
      LOOP:  cpu time     77.6162: real time     78.6993

 eigenvalue-minimisations  :  7432
 total energy-change (2. order) :-0.1186810E-02  (-0.1093666E-03)
 number of electron     256.0000000 magnetization 
 augmentation part      -41.2861195 magnetization 

 Broyden mixing:
  rms(total) = 0.10275E-01    rms(broyden)= 0.10275E-01
  rms(prec ) = 0.12076E-01
  weight for this iteration     100.00

 eigenvalues of (default mixing * dielectric matrix)
  average eigenvalue GAMMA=   1.9232
  3.1193  2.4978  1.0355  1.4816  1.4816

 Free energy of the ion-electron system (eV)
  ---------------------------------------------------
  alpha Z        PSCENC =       566.62537604
  Ewald energy   TEWEN  =     -7172.54278532
  -Hartree energ DENC   =      -714.21918454
  -exchange      EXHF   =         0.00000000
  -V(xc)+E(xc)   XCENC  =      -975.32594127
  PAW double counting   =     14505.10843323   -13072.38039099
  entropy T*S    EENTRO =         0.00000000
  eigenvalues    EBANDS =      -731.96882504
  atomic energy  EATOM  =      7329.73306348
  Solvation  Ediel_sol  =         0.00000000
  ---------------------------------------------------
  free energy    TOTEN  =      -264.97025441 eV

  energy without entropy =     -264.97025441  energy(sigma->0) =     -264.97025441


--------------------------------------------------------------------------------------------------------




--------------------------------------- Iteration      1(  11)  ---------------------------------------


    POTLOK:  cpu time      0.1093: real time      0.1123
    SETDIJ:  cpu time      0.0105: real time      0.0106
     EDDAV:  cpu time     70.1779: real time     71.1652
 BZINTS: Fermi energy:    2.286835;  256.000000 electrons
         Band energy:-0.731562E+03;  BLOECHL correction:    0.000000
       DOS:  cpu time      0.0077: real time      0.0078
    CHARGE:  cpu time      0.7474: real time      0.7526
    MIXING:  cpu time      0.0036: real time      0.0036
    --------------------------------------------
      LOOP:  cpu time     71.0564: real time     72.0522

 eigenvalue-minimisations  :  6568
 total energy-change (2. order) :-0.1277638E-02  (-0.2230058E-03)
 number of electron     256.0000000 magnetization 
 augmentation part      -41.2833978 magnetization 

 Broyden mixing:
  rms(total) = 0.50565E-02    rms(broyden)= 0.50565E-02
  rms(prec ) = 0.53465E-02
  weight for this iteration     100.00

 eigenvalues of (default mixing * dielectric matrix)
  average eigenvalue GAMMA=   1.7985
  3.0730  2.4802  1.6741  1.6741  0.9718  0.9181

 Free energy of the ion-electron system (eV)
  ---------------------------------------------------
  alpha Z        PSCENC =       566.62537604
  Ewald energy   TEWEN  =     -7172.54278532
  -Hartree energ DENC   =      -714.76191758
  -exchange      EXHF   =         0.00000000
  -V(xc)+E(xc)   XCENC  =      -975.24248910
  PAW double counting   =     14460.72704920   -13027.94750374
  entropy T*S    EENTRO =         0.00000000
  eigenvalues    EBANDS =      -731.56232503
  atomic energy  EATOM  =      7329.73306348
  Solvation  Ediel_sol  =         0.00000000
  ---------------------------------------------------
  free energy    TOTEN  =      -264.97153205 eV

  energy without entropy =     -264.97153205  energy(sigma->0) =     -264.97153205


--------------------------------------------------------------------------------------------------------




--------------------------------------- Iteration      1(  12)  ---------------------------------------


    POTLOK:  cpu time      0.1084: real time      0.1133
    SETDIJ:  cpu time      0.0106: real time      0.0107
     EDDAV:  cpu time     77.0538: real time     78.1205
 BZINTS: Fermi energy:    2.281929;  256.000000 electrons
         Band energy:-0.731507E+03;  BLOECHL correction:    0.000000
       DOS:  cpu time      0.0077: real time      0.0077
    CHARGE:  cpu time      0.7465: real time      0.7514
    MIXING:  cpu time      0.0038: real time      0.0038
    --------------------------------------------
      LOOP:  cpu time     77.9307: real time     79.0075

 eigenvalue-minimisations  :  7392
 total energy-change (2. order) :-0.4977253E-05  (-0.3889915E-05)
 number of electron     256.0000000 magnetization 
 augmentation part      -41.2833142 magnetization 

 Broyden mixing:
  rms(total) = 0.21853E-02    rms(broyden)= 0.21853E-02
  rms(prec ) = 0.24616E-02
  weight for this iteration     100.00

 eigenvalues of (default mixing * dielectric matrix)
  average eigenvalue GAMMA=   1.8821
  3.2476  2.6094  2.6094  1.3304  1.3304  1.0237  1.0237

 Free energy of the ion-electron system (eV)
  ---------------------------------------------------
  alpha Z        PSCENC =       566.62537604
  Ewald energy   TEWEN  =     -7172.54278532
  -Hartree energ DENC   =      -714.80377907
  -exchange      EXHF   =         0.00000000
  -V(xc)+E(xc)   XCENC  =      -975.24832583
  PAW double counting   =     14466.38605235   -13033.61373612
  entropy T*S    EENTRO =         0.00000000
  eigenvalues    EBANDS =      -731.50740255
  atomic energy  EATOM  =      7329.73306348
  Solvation  Ediel_sol  =         0.00000000
  ---------------------------------------------------
  free energy    TOTEN  =      -264.97153703 eV

  energy without entropy =     -264.97153703  energy(sigma->0) =     -264.97153703


--------------------------------------------------------------------------------------------------------




--------------------------------------- Iteration      1(  13)  ---------------------------------------


    POTLOK:  cpu time      0.1077: real time      0.1107
    SETDIJ:  cpu time      0.0105: real time      0.0106
     EDDAV:  cpu time     73.8266: real time     74.8482
 BZINTS: Fermi energy:    2.276534;  256.000000 electrons
         Band energy:-0.731381E+03;  BLOECHL correction:   -0.000000
       DOS:  cpu time      0.0074: real time      0.0074
    CHARGE:  cpu time      0.7518: real time      0.7566
    MIXING:  cpu time      0.0042: real time      0.0042
    --------------------------------------------
      LOOP:  cpu time     74.7082: real time     75.7378

 eigenvalue-minimisations  :  6968
 total energy-change (2. order) :-0.7829023E-05  (-0.8070972E-05)
 number of electron     256.0000000 magnetization 
 augmentation part      -41.2826189 magnetization 

 Broyden mixing:
  rms(total) = 0.92169E-03    rms(broyden)= 0.92169E-03
  rms(prec ) = 0.10299E-02
  weight for this iteration     100.00

 eigenvalues of (default mixing * dielectric matrix)
  average eigenvalue GAMMA=   1.8329
  3.3354  2.7798  2.4715  1.5994  1.5994  1.1110  0.8834  0.8834

 Free energy of the ion-electron system (eV)
  ---------------------------------------------------
  alpha Z        PSCENC =       566.62537604
  Ewald energy   TEWEN  =     -7172.54278532
  -Hartree energ DENC   =      -714.92976139
  -exchange      EXHF   =         0.00000000
  -V(xc)+E(xc)   XCENC  =      -975.24312195
  PAW double counting   =     14469.76025445   -13036.99380865
  entropy T*S    EENTRO =         0.00000000
  eigenvalues    EBANDS =      -731.38076151
  atomic energy  EATOM  =      7329.73306348
  Solvation  Ediel_sol  =         0.00000000
  ---------------------------------------------------
  free energy    TOTEN  =      -264.97154486 eV

  energy without entropy =     -264.97154486  energy(sigma->0) =     -264.97154486


--------------------------------------------------------------------------------------------------------




--------------------------------------- Iteration      1(  14)  ---------------------------------------


    POTLOK:  cpu time      0.1084: real time      0.1135
    SETDIJ:  cpu time      0.0106: real time      0.0107
     EDDAV:  cpu time     63.7794: real time     64.6748
 BZINTS: Fermi energy:    2.285221;  256.000000 electrons
         Band energy:-0.731391E+03;  BLOECHL correction:    0.000000
       DOS:  cpu time      0.0075: real time      0.0075
    --------------------------------------------
      LOOP:  cpu time     63.9058: real time     64.8064

 eigenvalue-minimisations  :  5784
 total energy-change (2. order) : 0.2699362E-06  (-0.3949895E-06)
 number of electron     256.0000000 magnetization 
 augmentation part      -41.2826189 magnetization 

 Free energy of the ion-electron system (eV)
  ---------------------------------------------------
  alpha Z        PSCENC =       566.62537604
  Ewald energy   TEWEN  =     -7172.54278532
  -Hartree energ DENC   =      -714.92008012
  -exchange      EXHF   =         0.00000000
  -V(xc)+E(xc)   XCENC  =      -975.24313324
  PAW double counting   =     14469.82111169   -13037.05361393
  entropy T*S    EENTRO =         0.00000000
  eigenvalues    EBANDS =      -731.39148320
  atomic energy  EATOM  =      7329.73306348
  Solvation  Ediel_sol  =         0.00000000
  ---------------------------------------------------
  free energy    TOTEN  =      -264.97154459 eV

  energy without entropy =     -264.97154459  energy(sigma->0) =     -264.97154459


--------------------------------------------------------------------------------------------------------




 average (electrostatic) potential at core
  the test charge radii are     1.0621  1.2767
  (the norm of the test charge is              1.0000)
       1 -51.9601       2 -51.9601       3 -51.9601       4 -51.9601       5 -51.9601
       6 -51.9601       7 -51.9601       8 -51.9601       9 -51.9601      10 -51.9601
      11 -51.9601      12 -51.9601      13 -51.9601      14 -51.9601      15 -51.9601
      16 -51.9601      17 -51.9601      18 -51.9601      19 -51.9601      20 -51.9601
      21 -51.9601      22 -51.9601      23 -51.9601      24 -51.9601      25 -51.9601
      26 -51.9601      27 -51.9601      28 -51.9601      29 -51.9601      30 -51.9601
      31 -51.9601      32 -51.9601      33 -15.1393      34 -15.1393      35 -15.1393
      36 -15.1393      37 -15.1393      38 -15.1393      39 -15.1393      40 -15.1393
      41 -15.1393      42 -15.1393      43 -15.1393      44 -15.1393      45 -15.1393
      46 -15.1393      47 -15.1393      48 -15.1393      49 -15.1393      50 -15.1393
      51 -15.1393      52 -15.1393      53 -15.1393      54 -15.1393      55 -15.1393
      56 -15.1393      57 -15.1393      58 -15.1393      59 -15.1393      60 -15.1393
      61 -15.1393      62 -15.1393      63 -15.1393      64 -15.1393
 
 
 
 E-fermi :   2.2852     XC(G=0):  -8.9151     alpha+bet : -8.0066

 val. band max:        2.2765673230   @ k =   0.0000   0.0000   0.0000
 cond. band min:       2.2877518726   @ k =   0.0000   0.0000   0.0000
 fundamental gap:      0.0111845495
 Fermi energy:         2.2852213138

 k-point     1 :       0.0000    0.0000    0.0000
  band No.  band energies     occupation 
      1     -10.0288      2.00000
      2      -9.2636      2.00000
      3      -9.2636      2.00000
      4      -9.2231      2.00000
      5      -9.2231      2.00000
      6      -9.2231      2.00000
      7      -9.2231      2.00000
      8      -8.6493      2.00000
      9      -8.6493      2.00000
     10      -8.6493      2.00000
     11      -8.6493      2.00000
     12      -8.6493      2.00000
     13      -8.6493      2.00000
     14      -8.6493      2.00000
     15      -8.6493      2.00000
     16      -8.6344      2.00000
     17      -8.6344      2.00000
     18      -8.6344      2.00000
     19      -8.6344      2.00000
     20      -8.5602      2.00000
     21      -8.5602      2.00000
     22      -8.5602      2.00000
     23      -8.5602      2.00000
     24      -7.9909      2.00000
     25      -7.9054      2.00000
     26      -7.9054      2.00000
     27      -7.9054      2.00000
     28      -7.9054      2.00000
     29      -7.8920      2.00000
     30      -7.8920      2.00000
     31      -7.8634      2.00000
     32      -7.8634      2.00000
     33      -4.3901      2.00000
     34      -4.2106      2.00000
     35      -4.2106      2.00000
     36      -4.1235      2.00000
     37      -4.1235      2.00000
     38      -4.1235      2.00000
     39      -4.1235      2.00000
     40      -4.0576      2.00000
     41      -4.0576      2.00000
     42      -4.0445      2.00000
     43      -4.0445      2.00000
     44      -4.0445      2.00000
     45      -4.0445      2.00000
     46      -3.2525      2.00000
     47      -3.2525      2.00000
     48      -3.2525      2.00000
     49      -3.2525      2.00000
     50      -3.1998      2.00000
     51      -3.1998      2.00000
     52      -3.1998      2.00000
     53      -3.1998      2.00000
     54      -3.1998      2.00000
     55      -3.1998      2.00000
     56      -3.1998      2.00000
     57      -3.1998      2.00000
     58      -1.9366      2.00000
     59      -1.9366      2.00000
     60      -1.7791      2.00000
     61      -1.7791      2.00000
     62      -1.7791      2.00000
     63      -1.7791      2.00000
[...]
   15.399690    0.364077    0.407240    0.407240    0.000000    0.000000   -0.000000
   15.419382    0.366123    0.408933    0.408933    0.000000    0.000000   -0.000000
   15.439075    0.368173    0.410607    0.410607    0.000000    0.000000   -0.000000
   15.458768    0.370216    0.412259    0.412259    0.000000    0.000000   -0.000000
   15.478460    0.372238    0.413889    0.413889    0.000000    0.000000   -0.000000
   15.498153    0.374228    0.415501    0.415501    0.000000    0.000000   -0.000000
   15.517846    0.376181    0.417099    0.417099    0.000000    0.000000   -0.000000
   15.537539    0.378099    0.418691    0.418691    0.000000    0.000000   -0.000000
   15.557231    0.379991    0.420279    0.420279    0.000000    0.000000   -0.000000
   15.576924    0.381869    0.421864    0.421864    0.000000    0.000000   -0.000000
   15.596617    0.383741    0.423441    0.423441    0.000000    0.000000   -0.000000
   15.616309    0.385609    0.425010    0.425010    0.000000    0.000000   -0.000000
   15.636002    0.387472    0.426569    0.426569    0.000000    0.000000   -0.000000
   15.655695    0.389329    0.428124    0.428124    0.000000    0.000000   -0.000000
   15.675387    0.391176    0.429681    0.429681    0.000000    0.000000   -0.000000
   15.695080    0.393015    0.431247    0.431247    0.000000    0.000000   -0.000000
   15.714773    0.394845    0.432828    0.432828    0.000000    0.000000   -0.000000
   15.734466    0.396664    0.434428    0.434428    0.000000    0.000000   -0.000000
   15.754158    0.398473    0.436046    0.436046    0.000000    0.000000   -0.000000
   15.773851    0.400271    0.437680    0.437680    0.000000    0.000000   -0.000000
   15.793544    0.402056    0.439325    0.439325    0.000000    0.000000   -0.000000
   15.813236    0.403826    0.440978    0.440978    0.000000    0.000000   -0.000000
   15.832929    0.405581    0.442634    0.442634    0.000000    0.000000   -0.000000
   15.852622    0.407323    0.444293    0.444293    0.000000    0.000000   -0.000000
   15.872314    0.409054    0.445958    0.445958    0.000000    0.000000   -0.000000
   15.892007    0.410779    0.447635    0.447635    0.000000    0.000000   -0.000000
   15.911700    0.412502    0.449323    0.449323    0.000000    0.000000   -0.000000
   15.931393    0.414222    0.451020    0.451020    0.000000    0.000000   -0.000000
   15.951085    0.415941    0.452720    0.452720    0.000000    0.000000   -0.000000
   15.970778    0.417660    0.454421    0.454421    0.000000    0.000000   -0.000000
   15.990471    0.419378    0.456119    0.456119    0.000000    0.000000   -0.000000
   16.010163    0.421096    0.457814    0.457814    0.000000    0.000000   -0.000000
   16.029856    0.422814    0.459503    0.459503    0.000000    0.000000   -0.000000
   16.049549    0.424529    0.461185    0.461185    0.000000    0.000000   -0.000000
   16.069241    0.426239    0.462858    0.462858    0.000000    0.000000   -0.000000
   16.088934    0.427942    0.464522    0.464522    0.000000    0.000000   -0.000000
   16.108627    0.429635    0.466174    0.466174    0.000000    0.000000   -0.000000
   16.128319    0.431317    0.467815    0.467815    0.000000    0.000000   -0.000000
   16.148012    0.432988    0.469443    0.469443    0.000000    0.000000   -0.000000
   16.167705    0.434648    0.471059    0.471059    0.000000    0.000000   -0.000000
   16.187398    0.436296    0.472663    0.472663    0.000000    0.000000   -0.000000
   16.207090    0.437934    0.474255    0.474255    0.000000    0.000000   -0.000000
   16.226783    0.439560    0.475835    0.475835    0.000000    0.000000   -0.000000
   16.246476    0.441176    0.477404    0.477404    0.000000    0.000000   -0.000000
   16.266168    0.442781    0.478961    0.478961    0.000000    0.000000   -0.000000
   16.285861    0.444376    0.480507    0.480507    0.000000    0.000000   -0.000000
   16.305554    0.445962    0.482042    0.482042    0.000000    0.000000   -0.000000
   16.325246    0.447537    0.483566    0.483566    0.000000    0.000000   -0.000000
   16.344939    0.449103    0.485080    0.485080    0.000000    0.000000   -0.000000
   16.364632    0.450660    0.486583    0.486583    0.000000    0.000000   -0.000000
   16.384325    0.452207    0.488076    0.488076    0.000000    0.000000   -0.000000
   16.404017    0.453746    0.489558    0.489558    0.000000    0.000000   -0.000000
   16.423710    0.455276    0.491031    0.491031    0.000000    0.000000   -0.000000
   16.443403    0.456797    0.492494    0.492494    0.000000    0.000000   -0.000000
   16.463095    0.458310    0.493948    0.493948    0.000000    0.000000   -0.000000
   16.482788    0.459814    0.495392    0.495392    0.000000    0.000000   -0.000000
   16.502481    0.461310    0.496828    0.496828    0.000000    0.000000   -0.000000
   16.522173    0.462798    0.498254    0.498254    0.000000    0.000000   -0.000000
   16.541866    0.464278    0.499672    0.499672    0.000000    0.000000   -0.000000
   16.561559    0.465750    0.501082    0.501082    0.000000    0.000000   -0.000000
   16.581252    0.467215    0.502483    0.502483    0.000000    0.000000   -0.000000
   16.600944    0.468672    0.503876    0.503876    0.000000    0.000000   -0.000000
   16.620637    0.470121    0.505261    0.505261    0.000000    0.000000   -0.000000
   16.640330    0.471563    0.506639    0.506639    0.000000    0.000000   -0.000000
   16.660022    0.472997    0.508008    0.508008    0.000000    0.000000   -0.000000
   16.679715    0.474425    0.509370    0.509370    0.000000    0.000000   -0.000000
   16.699408    0.475845    0.510725    0.510725    0.000000    0.000000   -0.000000
   16.719100    0.477258    0.512072    0.512072    0.000000    0.000000   -0.000000
   16.738793    0.478664    0.513412    0.513412    0.000000    0.000000   -0.000000
   16.758486    0.480063    0.514745    0.514745    0.000000    0.000000   -0.000000
   16.778179    0.481456    0.516071    0.516071    0.000000    0.000000   -0.000000
   16.797871    0.482842    0.517390    0.517390    0.000000    0.000000   -0.000000
   16.817564    0.484221    0.518702    0.518702    0.000000    0.000000   -0.000000
   16.837257    0.485593    0.520007    0.520007    0.000000    0.000000   -0.000000
   16.856949    0.486959    0.521306    0.521306    0.000000    0.000000   -0.000000
   16.876642    0.488318    0.522598    0.522598    0.000000    0.000000   -0.000000
   16.896335    0.489671    0.523883    0.523883    0.000000    0.000000   -0.000000
   16.916027    0.491018    0.525162    0.525162    0.000000    0.000000   -0.000000
   16.935720    0.492358    0.526435    0.526435    0.000000    0.000000   -0.000000
   16.955413    0.493692    0.527701    0.527701    0.000000    0.000000   -0.000000
   16.975105    0.495020    0.528962    0.528962    0.000000    0.000000   -0.000000
   16.994798    0.496342    0.530216    0.530216    0.000000    0.000000   -0.000000
   17.014491    0.497658    0.531464    0.531464    0.000000    0.000000   -0.000000
   17.034184    0.498968    0.532706    0.532706    0.000000    0.000000   -0.000000
   17.053876    0.500272    0.533942    0.533942    0.000000    0.000000   -0.000000
   17.073569    0.501570    0.535172    0.535172    0.000000    0.000000   -0.000000
   17.093262    0.502862    0.536396    0.536396    0.000000    0.000000   -0.000000
   17.112954    0.504148    0.537615    0.537615    0.000000    0.000000   -0.000000
   17.132647    0.505429    0.538828    0.538828    0.000000    0.000000   -0.000000
   17.152340    0.506703    0.540035    0.540035    0.000000    0.000000   -0.000000
   17.172032    0.507973    0.541236    0.541236    0.000000    0.000000   -0.000000
   17.191725    0.509236    0.542432    0.542432    0.000000    0.000000   -0.000000
   17.211418    0.510494    0.543623    0.543623    0.000000    0.000000   -0.000000
   17.231111    0.511747    0.544808    0.544808    0.000000    0.000000   -0.000000
   17.250803    0.512994    0.545988    0.545988    0.000000    0.000000   -0.000000
   17.270496    0.514236    0.547162    0.547162    0.000000    0.000000   -0.000000
   17.290189    0.515472    0.548331    0.548331    0.000000    0.000000   -0.000000
   17.309881    0.516703    0.549495    0.549495    0.000000    0.000000   -0.000000
   17.329574    0.517929    0.550653    0.550653    0.000000    0.000000   -0.000000
   17.349267    0.519149    0.551806    0.551806    0.000000    0.000000   -0.000000
   17.368959    0.520364    0.552955    0.552955    0.000000    0.000000   -0.000000
   17.388652    0.521574    0.554098    0.554098    0.000000    0.000000   -0.000000
   17.408345    0.522779    0.555236    0.555236    0.000000    0.000000   -0.000000
   17.428038    0.523979    0.556369    0.556369    0.000000    0.000000   -0.000000
   17.447730    0.525174    0.557497    0.557497    0.000000    0.000000   -0.000000
   17.467423    0.526363    0.558620    0.558620    0.000000    0.000000   -0.000000
   17.487116    0.527548    0.559739    0.559739    0.000000    0.000000   -0.000000
   17.506808    0.528728    0.560852    0.560852    0.000000    0.000000   -0.000000
   17.526501    0.529903    0.561961    0.561961    0.000000    0.000000   -0.000000
   17.546194    0.531073    0.563065    0.563065    0.000000    0.000000   -0.000000
   17.565886    0.532238    0.564164    0.564164    0.000000    0.000000   -0.000000
   17.585579    0.533398    0.565258    0.565258    0.000000    0.000000   -0.000000
   17.605272    0.534554    0.566348    0.566348    0.000000    0.000000   -0.000000
   17.624965    0.535704    0.567433    0.567433    0.000000    0.000000   -0.000000
   17.644657    0.536851    0.568514    0.568514    0.000000    0.000000   -0.000000
   17.664350    0.537992    0.569590    0.569590    0.000000    0.000000   -0.000000
   17.684043    0.539129    0.570662    0.570662    0.000000    0.000000   -0.000000
   17.703735    0.540261    0.571729    0.571729    0.000000    0.000000   -0.000000
   17.723428    0.541388    0.572791    0.572791    0.000000    0.000000   -0.000000
   17.743121    0.542511    0.573849    0.573849    0.000000    0.000000   -0.000000
   17.762813    0.543630    0.574903    0.574903    0.000000    0.000000   -0.000000
   17.782506    0.544744    0.575953    0.575953    0.000000    0.000000   -0.000000
   17.802199    0.545853    0.576998    0.576998    0.000000    0.000000   -0.000000
   17.821891    0.546958    0.578039    0.578039    0.000000    0.000000   -0.000000
   17.841584    0.548059    0.579075    0.579075    0.000000    0.000000   -0.000000
   17.861277    0.549155    0.580107    0.580107    0.000000    0.000000   -0.000000
   17.880970    0.550247    0.581135    0.581135    0.000000    0.000000   -0.000000
   17.900662    0.551334    0.582159    0.582159    0.000000    0.000000   -0.000000
   17.920355    0.552418    0.583179    0.583179    0.000000    0.000000   -0.000000
   17.940048    0.553497    0.584195    0.584195    0.000000    0.000000   -0.000000
   17.959740    0.554571    0.585206    0.585206    0.000000    0.000000   -0.000000
   17.979433    0.555642    0.586213    0.586213    0.000000    0.000000   -0.000000
   17.999126    0.556708    0.587217    0.587217    0.000000    0.000000   -0.000000
   18.018818    0.557771    0.588216    0.588216    0.000000    0.000000   -0.000000
   18.038511    0.558829    0.589212    0.589212    0.000000    0.000000   -0.000000
   18.058204    0.559883    0.590203    0.590203    0.000000    0.000000   -0.000000
   18.077897    0.560932    0.591190    0.591190    0.000000    0.000000   -0.000000
   18.097589    0.561978    0.592174    0.592174    0.000000    0.000000   -0.000000
   18.117282    0.563020    0.593154    0.593154    0.000000    0.000000   -0.000000
   18.136975    0.564058    0.594129    0.594129    0.000000    0.000000   -0.000000
   18.156667    0.565091    0.595101    0.595101    0.000000    0.000000   -0.000000
   18.176360    0.566121    0.596070    0.596070    0.000000    0.000000   -0.000000
   18.196053    0.567147    0.597034    0.597034    0.000000    0.000000   -0.000000
   18.215745    0.568169    0.597994    0.597994    0.000000    0.000000   -0.000000
   18.235438    0.569187    0.598951    0.598951    0.000000    0.000000   -0.000000
   18.255131    0.570201    0.599904    0.599904    0.000000    0.000000   -0.000000
   18.274824    0.571211    0.600854    0.600854    0.000000    0.000000   -0.000000
   18.294516    0.572218    0.601800    0.601800    0.000000    0.000000   -0.000000
   18.314209    0.573221    0.602742    0.602742    0.000000    0.000000   -0.000000
   18.333902    0.574220    0.603680    0.603680    0.000000    0.000000   -0.000000
   18.353594    0.575215    0.604615    0.604615    0.000000    0.000000   -0.000000
   18.373287    0.576206    0.605546    0.605546    0.000000    0.000000   -0.000000
   18.392980    0.577194    0.606474    0.606474    0.000000    0.000000   -0.000000
   18.412672    0.578178    0.607398    0.607398    0.000000    0.000000   -0.000000
   18.432365    0.579158    0.608319    0.608319    0.000000    0.000000   -0.000000
   18.452058    0.580135    0.609236    0.609236    0.000000    0.000000   -0.000000
   18.471751    0.581108    0.610150    0.610150    0.000000    0.000000   -0.000000
   18.491443    0.582077    0.611060    0.611060    0.000000    0.000000   -0.000000
   18.511136    0.583043    0.611967    0.611967    0.000000    0.000000   -0.000000
   18.530829    0.584005    0.612870    0.612870    0.000000    0.000000   -0.000000
   18.550521    0.584964    0.613770    0.613770    0.000000    0.000000   -0.000000
   18.570214    0.585919    0.614667    0.614667    0.000000    0.000000   -0.000000
   18.589907    0.586871    0.615560    0.615560    0.000000    0.000000   -0.000000
   18.609599    0.587819    0.616450    0.616450    0.000000    0.000000   -0.000000
   18.629292    0.588764    0.617336    0.617336    0.000000    0.000000   -0.000000
   18.648985    0.589705    0.618219    0.618219    0.000000    0.000000   -0.000000
   18.668677    0.590643    0.619099    0.619099    0.000000    0.000000   -0.000000
   18.688370    0.591577    0.619976    0.619976    0.000000    0.000000   -0.000000
   18.708063    0.592508    0.620850    0.620850    0.000000    0.000000   -0.000000
   18.727756    0.593436    0.621720    0.621720    0.000000    0.000000   -0.000000
   18.747448    0.594360    0.622587    0.622587    0.000000    0.000000   -0.000000
   18.767141    0.595281    0.623451    0.623451    0.000000    0.000000   -0.000000
   18.786834    0.596199    0.624311    0.624311    0.000000    0.000000   -0.000000
   18.806526    0.597113    0.625169    0.625169    0.000000    0.000000   -0.000000
   18.826219    0.598024    0.626023    0.626023    0.000000    0.000000   -0.000000
   18.845912    0.598932    0.626874    0.626874    0.000000    0.000000   -0.000000
   18.865604    0.599836    0.627723    0.627723    0.000000    0.000000   -0.000000
   18.885297    0.600738    0.628568    0.628568    0.000000    0.000000   -0.000000
   18.904990    0.601636    0.629410    0.629410    0.000000    0.000000   -0.000000
   18.924683    0.602531    0.630249    0.630249    0.000000    0.000000   -0.000000
   18.944375    0.603422    0.631085    0.631085    0.000000    0.000000   -0.000000
   18.964068    0.604311    0.631917    0.631917    0.000000    0.000000   -0.000000
   18.983761    0.605196    0.632747    0.632747    0.000000    0.000000   -0.000000
   19.003453    0.606078    0.633574    0.633574    0.000000    0.000000   -0.000000
   19.023146    0.606957    0.634398    0.634398    0.000000    0.000000   -0.000000
   19.042839    0.607833    0.635219    0.635219    0.000000    0.000000   -0.000000
   19.062531    0.608706    0.636037    0.636037    0.000000    0.000000   -0.000000
   19.082224    0.609576    0.636852    0.636852    0.000000    0.000000   -0.000000
   19.101917    0.610443    0.637664    0.637664    0.000000    0.000000   -0.000000
   19.121610    0.611307    0.638474    0.638474    0.000000    0.000000   -0.000000
   19.141302    0.612167    0.639280    0.639280    0.000000    0.000000   -0.000000
   19.160995    0.613025    0.640084    0.640084    0.000000    0.000000   -0.000000
   19.180688    0.613880    0.640885    0.640885    0.000000    0.000000   -0.000000
   19.200380    0.614732    0.641682    0.641682    0.000000    0.000000   -0.000000
   19.220073    0.615580    0.642478    0.642478    0.000000    0.000000   -0.000000
   19.239766    0.616426    0.643270    0.643270    0.000000    0.000000   -0.000000
   19.259458    0.617269    0.644059    0.644059    0.000000    0.000000   -0.000000
   19.279151    0.618109    0.644846    0.644846    0.000000    0.000000   -0.000000
   19.298844    0.618946    0.645630    0.645630    0.000000    0.000000   -0.000000
   19.318537    0.619780    0.646411    0.646411    0.000000    0.000000   -0.000000
   19.338229    0.620612    0.647190    0.647190    0.000000    0.000000   -0.000000
   19.357922    0.621440    0.647966    0.647966    0.000000    0.000000   -0.000000
   19.377615    0.622266    0.648739    0.648739    0.000000    0.000000   -0.000000
   19.397307    0.623089    0.649509    0.649509    0.000000    0.000000   -0.000000
   19.417000    0.623909    0.650277    0.650277    0.000000    0.000000   -0.000000
   19.436693    0.624726    0.651042    0.651042    0.000000    0.000000   -0.000000
   19.456385    0.625540    0.651804    0.651804    0.000000    0.000000   -0.000000
   19.476078    0.626352    0.652564    0.652564    0.000000    0.000000   -0.000000
   19.495771    0.627161    0.653321    0.653321    0.000000    0.000000   -0.000000
   19.515464    0.627967    0.654076    0.654076    0.000000    0.000000   -0.000000
   19.535156    0.628770    0.654828    0.654828    0.000000    0.000000   -0.000000
   19.554849    0.629571    0.655577    0.655577    0.000000    0.000000   -0.000000
   19.574542    0.630369    0.656324    0.656324    0.000000    0.000000   -0.000000
   19.594234    0.631164    0.657068    0.657068    0.000000    0.000000   -0.000000
   19.613927    0.631957    0.657810    0.657810    0.000000    0.000000   -0.000000
   19.633620    0.632747    0.658549    0.658549    0.000000    0.000000   -0.000000
   19.653312    0.633534    0.659286    0.659286    0.000000    0.000000   -0.000000
   19.673005    0.634318    0.660020    0.660020    0.000000    0.000000   -0.000000
 
 The outermost node in the dielectric function lies at epsilon=   4.0


--------------------------------------------------------------------------------------------------------


    OPTICS:  cpu time     33.7371: real time     34.2335
    4ORBIT:  cpu time      0.0000: real time      0.0000
 BZINTS: Fermi energy:    2.280085;  256.000000 electrons
         Band energy:-0.731404E+03;  BLOECHL correction:    0.000000

 total amount of memory used by VASP MPI-rank0   365679. kBytes
=======================================================================

   base      :      30000. kBytes
   nonl-proj :     134305. kBytes
   fftplans  :       7212. kBytes
   grid      :      18251. kBytes
   one-center:        519. kBytes
   wavefun   :     175392. kBytes
 
  
  
 General timing and accounting informations for this job:
 ========================================================
  
                  Total CPU time used (sec):    11354.581
                            User time (sec):    11037.244
                          System time (sec):      317.337
                         Elapsed time (sec):    11498.296
  
                   Maximum memory used (kb):     1895764.
                   Average memory used (kb):          N/A
  
                          Minor page faults:       174316
                          Major page faults:          238
                 Voluntary context switches:        19745
